<event>
 9    1  0.1445593E-005  0.1059017E+03  0.7546771E-02  0.1273762E+00
          1   -1    0    0  502    0 -0.00000000000E+00  0.00000000000E+00  0.10675094196E+03  0.10675094196E+03  0.00000000000E+00 0. -1.
         21   -1    0    0  501  502  0.00000000000E+00 -0.00000000000E+00 -0.30496329515E+03  0.30496329515E+03  0.00000000000E+00 0. -1.
         23    2    1    2    0    0 -0.43793127114E+02 -0.33442964736E+02 -0.99533332659E+01  0.10779597065E+03  0.92112065291E+02 0.  0.
         23    2    1    2    0    0  0.19981142509E+01 -0.46931479593E+02 -0.23022525924E+02  0.11547736499E+03  0.10294867113E+03 0.  0.
        -13    1    4    4    0    0  0.47152315781E+02 -0.11002059966E+02 -0.30599305770E+02  0.57277427671E+02  0.00000000000E+00 0.  1.
         13    1    4    4    0    0 -0.45154201530E+02 -0.35929419628E+02  0.75767798459E+01  0.58199937314E+02  0.00000000000E+00 0. -1.
        -13    1    3    3    0    0  0.24553678887E+02 -0.12433138551E+02  0.15873359623E+02  0.31771522262E+02  0.00000000000E+00 0.  1.
         13    1    3    3    0    0 -0.68346806001E+02 -0.21009826185E+02 -0.25826692889E+02  0.76024448386E+02  0.00000000000E+00 0. -1.
          1    1    1    2  501    0  0.41795012863E+02  0.80374444329E+02 -0.16523649400E+03  0.18844090148E+03  0.00000000000E+00 0. -1.
<scales pt_clust_5="13000.00000" pt_clust_6="13000.00000" pt_clust_7="13000.00000" pt_clust_8="13000.00000" pt_clust_9="90.59180"></scales>
<clustering>
<clus scale="   90.592">  2  9  1 -1</clus>
<clus scale="   92.112">  7  8 -1 -1</clus>
<clus scale="   95.401">  1  7  2 -1</clus>
<clus scale="  102.949">  5  6 -1 -1</clus>
<clus scale="   90.592">  2  5  1 -1</clus>
</clustering>
</event>
<event>
 9    1  0.1445593E-005  0.1126322E+03  0.7546771E-02  0.1267648E+00
          1   -1    0    0  502    0 -0.00000000000E+00  0.00000000000E+00  0.10627114388E+03  0.10627114388E+03  0.00000000000E+00 0. -1.
         21   -1    0    0  501  502  0.00000000000E+00 -0.00000000000E+00 -0.22790355913E+03  0.22790355913E+03  0.00000000000E+00 0.  1.
         23    2    1    2    0    0 -0.19195425317E+02 -0.11404716470E+02  0.42331591767E+02  0.10013939192E+03  0.87962504753E+02 0.  0.
         23    2    1    2    0    0 -0.24247720918E+02 -0.85885091787E+01 -0.13890733727E+03  0.18004574983E+03  0.11162217174E+03 0.  0.
        -11    1    3    3    0    0  0.33630690410E+02 -0.15170494052E+02  0.10541019201E+02  0.38370305095E+02  0.00000000000E+00 0. -1.
         11    1    3    3    0    0 -0.52826115727E+02  0.37657775816E+01  0.31790572565E+02  0.61769086828E+02  0.00000000000E+00 0.  1.
        -13    1    4    4    0    0 -0.61238221106E+02 -0.23567449578E+01 -0.37317173525E+02  0.71751274629E+02  0.00000000000E+00 0.  1.
         13    1    4    4    0    0  0.36990500187E+02 -0.62317642209E+01 -0.10159016375E+03  0.10829447520E+03  0.00000000000E+00 0. -1.
          1    1    1    2  501    0  0.43443146235E+02  0.19993225649E+02 -0.25056669745E+02  0.53989561263E+02  0.00000000000E+00 0. -1.
<scales pt_clust_5="13000.00000" pt_clust_6="13000.00000" pt_clust_7="13000.00000" pt_clust_8="13000.00000" pt_clust_9="47.82297"></scales>
<clustering>
<clus scale="   47.823">  2  9  1 -1</clus>
<clus scale="   87.963">  5  6 -1 -1</clus>
<clus scale="   89.241">  1  5  2 -1</clus>
<clus scale="  111.622">  7  8 -1 -1</clus>
<clus scale="   47.823">  2  5  1 -1</clus>
</clustering>
</event>
<event>
 9    1  0.1445593E-005  0.1257257E+03  0.7546771E-02  0.1234149E+00
         21   -1    0    0  501  502  0.00000000000E+00  0.00000000000E+00  0.94917210389E+03  0.94917210389E+03  0.00000000000E+00 0. -1.
          3   -1    0    0  502    0 -0.00000000000E+00 -0.00000000000E+00 -0.48906941195E+02  0.48906941195E+02  0.00000000000E+00 0. -1.
         23    2    1    2    0    0 -0.81062750424E+02 -0.31863329643E+02  0.97544274530E+02  0.15912692736E+03  0.90664503727E+02 0.  0.
         23    2    1    2    0    0  0.98272000188E+02 -0.47966763850E+02  0.33351460121E+03  0.36269216578E+03  0.91407994424E+02 0.  0.
        -13    1    3    3    0    0 -0.44437666983E+02  0.12389383532E+02  0.24108919986E+00  0.46133081354E+02  0.00000000000E+00 0.  1.
         13    1    3    3    0    0 -0.36625083441E+02 -0.44252713175E+02  0.97303185330E+02  0.11299384601E+03  0.00000000000E+00 0. -1.
        -13    1    4    4    0    0  0.51871508297E+02 -0.72004949015E+02  0.18341241556E+03  0.20375347908E+03  0.00000000000E+00 0. -1.
         13    1    4    4    0    0  0.46400491891E+02  0.24038185165E+02  0.15010218565E+03  0.15893868670E+03  0.00000000000E+00 0.  1.
          3    1    1    2  501    0 -0.17209249764E+02  0.79830093492E+02  0.46920628696E+03  0.47625995195E+03  0.00000000000E+00 0. -1.
<scales pt_clust_5="13000.00000" pt_clust_6="13000.00000" pt_clust_7="13000.00000" pt_clust_8="13000.00000" pt_clust_9="81.66396"></scales>
<clustering>
<clus scale="   81.664">  1  9  2 -1</clus>
<clus scale="   90.665">  5  6 -1 -1</clus>
<clus scale="   91.408">  7  8 -1 -1</clus>
<clus scale="  125.186">  2  5  1 -1</clus>
<clus scale="   81.664">  1  5  2 -1</clus>
</clustering>
</event>
<event>
 9    1  0.1445593E-005  0.2420889E+03  0.7546771E-02  0.1118856E+00
         -1   -1    0    0    0  501 -0.00000000000E+00  0.00000000000E+00  0.39986685294E+03  0.39986685294E+03  0.00000000000E+00 0.  1.
         21   -1    0    0  501  502  0.00000000000E+00 -0.00000000000E+00 -0.60766734816E+03  0.60766734816E+03  0.00000000000E+00 0.  1.
         23    2    1    2    0    0  0.62923060087E+02 -0.23276811981E+03  0.28640250570E+03  0.38397724171E+03  0.85274954068E+02 0.  0.
         23    2    1    2    0    0 -0.10035944826E+03  0.14151757173E+03 -0.10675961566E+03  0.22375635601E+03  0.92574561058E+02 0.  0.
        -13    1    3    3    0    0  0.50040011504E+02 -0.14866982766E+03  0.24096353805E+03  0.28752416781E+03  0.00000000000E+00 0.  1.
         13    1    3    3    0    0  0.12883048583E+02 -0.84098292153E+02  0.45438967652E+02  0.96453073902E+02  0.00000000000E+00 0. -1.
        -13    1    4    4    0    0  0.53564341399E+01  0.47609935877E+02 -0.55575130805E+02  0.73375694511E+02  0.00000000000E+00 0. -1.
         13    1    4    4    0    0 -0.10571588240E+03  0.93907635857E+02 -0.51184484854E+02  0.15038066150E+03  0.00000000000E+00 0.  1.
         -1    1    1    2    0  502  0.37436388169E+02  0.91250548079E+02 -0.38744338525E+03  0.39980060338E+03  0.00000000000E+00 0.  1.
<scales pt_clust_5="13000.00000" pt_clust_6="13000.00000" pt_clust_7="13000.00000" pt_clust_8="13000.00000" pt_clust_9="98.63136"></scales>
<clustering>
<clus scale="   85.275">  5  6 -1 -1</clus>
<clus scale="   92.575">  7  8 -1 -1</clus>
<clus scale="   98.631">  2  9  1 -1</clus>
<clus scale="  239.393">  1  5  2 -1</clus>
<clus scale="   98.631">  2  5  1 -1</clus>
</clustering>
</event>
<event>
 9    1  0.1445593E-005  0.1710174E+03  0.7546771E-02  0.1177143E+00
          2   -1    0    0  502    0 -0.00000000000E+00  0.00000000000E+00  0.14558977070E+04  0.14558977070E+04  0.00000000000E+00 0. -1.
         21   -1    0    0  501  502  0.00000000000E+00 -0.00000000000E+00 -0.40964520359E+02  0.40964520359E+02  0.00000000000E+00 0. -1.
         23    2    1    2    0    0  0.23716217635E+02 -0.11622164822E+03  0.61834673010E+03  0.63610798999E+03  0.90613276113E+02 0.  0.
         23    2    1    2    0    0  0.13034576500E+02  0.20704535783E+03  0.58248601186E+03  0.62530027688E+03  0.93127879130E+02 0.  0.
        -11    1    4    4    0    0 -0.32190832345E+02  0.70594701323E+02  0.14016044160E+03  0.16020240613E+03  0.00000000000E+00 0.  1.
         11    1    4    4    0    0  0.45225408845E+02  0.13645065651E+03  0.44232557026E+03  0.46509787075E+03  0.00000000000E+00 0. -1.
        -11    1    3    3    0    0 -0.32106198626E+02 -0.64715376448E+02  0.33956196121E+03  0.34716165318E+03  0.00000000000E+00 0.  1.
         11    1    3    3    0    0  0.55822416261E+02 -0.51506271776E+02  0.27878476889E+03  0.28894633681E+03  0.00000000000E+00 0. -1.
          2    1    1    2  501    0 -0.36750794136E+02 -0.90823709609E+02  0.21410044469E+03  0.23545396049E+03  0.00000000000E+00 0. -1.
<scales pt_clust_5="13000.00000" pt_clust_6="13000.00000" pt_clust_7="13000.00000" pt_clust_8="13000.00000" pt_clust_9="97.97738"></scales>
<clustering>
<clus scale="   90.613">  7  8 -1 -1</clus>
<clus scale="   93.128">  5  6 -1 -1</clus>
<clus scale="   97.977">  2  9  1 -1</clus>
<clus scale="  169.661">  1  7  2 -1</clus>
<clus scale="   97.977">  2  5  1 -1</clus>
</clustering>
</event>
<event>
 9    1  0.1445593E-005  0.1822136E+03  0.7546771E-02  0.1165983E+00
         -1   -1    0    0    0  501 -0.00000000000E+00  0.00000000000E+00  0.25582579800E+03  0.25582579800E+03  0.00000000000E+00 0.  1.
         21   -1    0    0  501  502  0.00000000000E+00 -0.00000000000E+00 -0.32368049892E+03  0.32368049892E+03  0.00000000000E+00 0. -1.
         23    2    1    2    0    0 -0.20560325028E+02  0.14368632175E+03  0.47187771428E+02  0.17859202355E+03  0.92735856502E+02 0.  0.
         23    2    1    2    0    0  0.11923895437E+03 -0.14228079043E+03  0.46541400464E+02  0.21157649225E+03  0.90203983019E+02 0.  0.
        -11    1    4    4    0    0  0.23456572525E+02 -0.10997523364E+02 -0.23159645437E+02  0.34749467500E+02  0.00000000000E+00 0. -1.
         11    1    4    4    0    0  0.95782381842E+02 -0.13128326706E+03  0.69701045901E+02  0.17682702475E+03  0.00000000000E+00 0.  1.
        -13    1    3    3    0    0 -0.57421188331E+02  0.85091445557E+02  0.33877237286E+02  0.10809909427E+03  0.00000000000E+00 0.  1.
         13    1    3    3    0    0  0.36860863303E+02  0.58594876188E+02  0.13310534142E+02  0.70492929277E+02  0.00000000000E+00 0. -1.
         -1    1    1    2    0  502 -0.98678629339E+02 -0.14055313163E+01 -0.16158387281E+03  0.18933778112E+03  0.00000000000E+00 0.  1.
<scales pt_clust_5="13000.00000" pt_clust_6="13000.00000" pt_clust_7="13000.00000" pt_clust_8="13000.00000" pt_clust_9="98.68864"></scales>
<clustering>
<clus scale="   90.204">  5  6 -1 -1</clus>
<clus scale="   92.736">  7  8 -1 -1</clus>
<clus scale="   98.689">  2  9  1 -1</clus>
<clus scale="  180.938">  2  5  1 -1</clus>
<clus scale="   98.689">  2  5  1 -1</clus>
</clustering>
</event>
<event>
 9    1  0.1445593E-005  0.1187878E+03  0.7546771E-02  0.1245899E+00
         21   -1    0    0  501  502  0.00000000000E+00  0.00000000000E+00  0.24626362848E+03  0.24626362848E+03  0.00000000000E+00 0.  1.
         -3   -1    0    0    0  501 -0.00000000000E+00 -0.00000000000E+00 -0.12289029110E+03  0.12289029110E+03  0.00000000000E+00 0.  1.
         23    2    1    2    0    0  0.45797778347E+02 -0.70274762132E+02 -0.49152313920E+02  0.13295027001E+03  0.90685421312E+02 0.  0.
         23    2    1    2    0    0 -0.31702229104E+02  0.39710396041E+02  0.67007069190E+02  0.12544699670E+03  0.93086275973E+02 0.  0.
        -11    1    4    4    0    0 -0.30982988896E+02  0.63434367393E+02  0.72384342675E+02  0.10111062077E+03  0.00000000000E+00 0.  1.
         11    1    4    4    0    0 -0.71924020875E+00 -0.23723971352E+02 -0.53772734851E+01  0.24336375928E+02  0.00000000000E+00 0. -1.
        -11    1    3    3    0    0  0.40057502051E+02 -0.91508029961E+02 -0.48255357217E+02  0.11093647965E+03  0.00000000000E+00 0.  1.
         11    1    3    3    0    0  0.57402762954E+01  0.21233267828E+02 -0.89695670286E+00  0.22013790358E+02  0.00000000000E+00 0. -1.
         -3    1    1    2    0  502 -0.14095549242E+02  0.30564366092E+02  0.10551858212E+03  0.11075665287E+03  0.00000000000E+00 0.  1.
<scales pt_clust_5="13000.00000" pt_clust_6="13000.00000" pt_clust_7="13000.00000" pt_clust_8="13000.00000" pt_clust_9="33.65806"></scales>
<clustering>
<clus scale="   33.658">  1  9  2 -1</clus>
<clus scale="   90.685">  7  8 -1 -1</clus>
<clus scale="   93.086">  5  6 -1 -1</clus>
<clus scale="  116.916">  2  7  1 -1</clus>
<clus scale="   33.658">  1  5  2 -1</clus>
</clustering>
</event>
<event>
 9    1  0.1445593E-005  0.9861391E+02  0.7546771E-02  0.1286632E+00
         -1   -1    0    0    0  501 -0.00000000000E+00  0.00000000000E+00  0.30701536084E+03  0.30701536084E+03  0.00000000000E+00 0.  1.
         21   -1    0    0  501  502  0.00000000000E+00 -0.00000000000E+00 -0.62740320398E+02  0.62740320398E+02  0.00000000000E+00 0. -1.
         23    2    1    2    0    0  0.11227439906E+02  0.33580126323E+02  0.15655665105E+03  0.18630833097E+03  0.94589264233E+02 0.  0.
         23    2    1    2    0    0  0.18963142308E+02 -0.21091224463E+02  0.11006743938E+03  0.14386295992E+03  0.88188828703E+02 0.  0.
        -11    1    3    3    0    0 -0.34345229464E+02 -0.46448629035E+01  0.93056347061E+02  0.99300822085E+02  0.00000000000E+00 0.  1.
         11    1    3    3    0    0  0.45572669370E+02  0.38224989227E+02  0.63500303992E+02  0.87007508883E+02  0.00000000000E+00 0. -1.
        -11    1    4    4    0    0 -0.26839247785E+02  0.12604968436E+02  0.64521471188E+02  0.71008807167E+02  0.00000000000E+00 0.  1.
         11    1    4    4    0    0  0.45802390093E+02 -0.33696192899E+02  0.45545968195E+02  0.72854152750E+02  0.00000000000E+00 0. -1.
         -1    1    1    2    0  502 -0.30190582214E+02 -0.12488901861E+02 -0.22349049994E+02  0.39584390354E+02  0.00000000000E+00 0.  1.
<scales pt_clust_5="13000.00000" pt_clust_6="13000.00000" pt_clust_7="13000.00000" pt_clust_8="13000.00000" pt_clust_9="32.67176"></scales>
<clustering>
<clus scale="   32.672">  2  9  1 -1</clus>
<clus scale="   88.189">  7  8 -1 -1</clus>
<clus scale="   92.492">  2  7  1 -1</clus>
<clus scale="   94.589">  5  6 -1 -1</clus>
<clus scale="   32.672">  2  5  1 -1</clus>
</clustering>
</event>
<event>
 9    1  0.1445593E-005  0.9795923E+02  0.7546771E-02  0.1287384E+00
          2   -1    0    0  502    0 -0.00000000000E+00  0.00000000000E+00  0.56037276713E+03  0.56037276713E+03  0.00000000000E+00 0. -1.
         21   -1    0    0  501  502  0.00000000000E+00 -0.00000000000E+00 -0.64169737353E+02  0.64169737353E+02  0.00000000000E+00 0. -1.
         23    2    1    2    0    0 -0.23479911330E+02 -0.18228489203E+02  0.49704012516E+03  0.50671246860E+03  0.93941767955E+02 0.  0.
         23    2    1    2    0    0 -0.20664550857E+01  0.19269001241E+02  0.68228887668E+01  0.91139684454E+02  0.88793725149E+02 0.  0.
        -11    1    3    3    0    0  0.22517912248E+02 -0.41012836041E+02  0.21396058656E+03  0.21901653293E+03  0.00000000000E+00 0.  1.
         11    1    3    3    0    0 -0.45997823578E+02  0.22784346838E+02  0.28307953859E+03  0.28769593568E+03  0.00000000000E+00 0. -1.
        -13    1    4    4    0    0  0.40802662348E+02  0.66791177124E+01 -0.11397290100E+02  0.42887831488E+02  0.00000000000E+00 0.  1.
         13    1    4    4    0    0 -0.42869117434E+02  0.12589883529E+02  0.18220178867E+02  0.48251852967E+02  0.00000000000E+00 0. -1.
          2    1    1    2  501    0  0.25546366416E+02 -0.10405120383E+01 -0.76599841430E+01  0.26690351429E+02  0.00000000000E+00 0. -1.
<scales pt_clust_5="13000.00000" pt_clust_6="13000.00000" pt_clust_7="13000.00000" pt_clust_8="13000.00000" pt_clust_9="25.56755"></scales>
<clustering>
<clus scale="   25.568">  2  9  1 -1</clus>
<clus scale="   88.794">  7  8 -1 -1</clus>
<clus scale="   93.034">  2  7  1 -1</clus>
<clus scale="   93.942">  5  6 -1 -1</clus>
<clus scale="   25.568">  2  5  1 -1</clus>
</clustering>
</event>
<event>
 9    1  0.1445593E-005  0.1533074E+03  0.7546771E-02  0.1197234E+00
          1   -1    0    0  502    0 -0.00000000000E+00  0.00000000000E+00  0.57500408362E+02  0.57500408362E+02  0.00000000000E+00 0. -1.
         21   -1    0    0  501  502  0.00000000000E+00 -0.00000000000E+00 -0.77278330729E+03  0.77278330729E+03  0.00000000000E+00 0. -1.
         23    2    1    2    0    0 -0.66812800338E+02  0.85363805694E+02 -0.16304211846E+03  0.21708361339E+03  0.93763709387E+02 0.  0.
         23    2    1    2    0    0  0.25729888133E+02 -0.15778383139E+03 -0.37445335653E+03  0.41688190671E+03  0.89540177175E+02 0.  0.
        -11    1    3    3    0    0 -0.38090450549E+02  0.10128243624E+03 -0.10730604769E+03  0.15239292039E+03  0.00000000000E+00 0. -1.
         11    1    3    3    0    0 -0.28722349789E+02 -0.15918630546E+02 -0.55736070773E+02  0.64690693001E+02  0.00000000000E+00 0.  1.
        -13    1    4    4    0    0 -0.12045963273E+02 -0.51801358906E+02 -0.48211311562E+02  0.71783121820E+02  0.00000000000E+00 0.  1.
         13    1    4    4    0    0  0.37775851406E+02 -0.10598247249E+03 -0.32624204497E+03  0.34509878489E+03  0.00000000000E+00 0. -1.
          1    1    1    2  501    0  0.41082912206E+02  0.72420025700E+02 -0.17778742393E+03  0.19631819556E+03  0.00000000000E+00 0. -1.
<scales pt_clust_5="13000.00000" pt_clust_6="13000.00000" pt_clust_7="13000.00000" pt_clust_8="13000.00000" pt_clust_9="83.26143"></scales>
<clustering>
<clus scale="   83.261">  2  9  1 -1</clus>
<clus scale="   89.540">  7  8 -1 -1</clus>
<clus scale="   93.764">  5  6 -1 -1</clus>
<clus scale="  150.761">  2  7  1 -1</clus>
<clus scale="   83.261">  2  5  1 -1</clus>
</clustering>
</event>
<event>
 9    1  0.1445593E-005  0.1433486E+03  0.7546771E-02  0.1209255E+00
         21   -1    0    0  501  502  0.00000000000E+00  0.00000000000E+00  0.60178459137E+02  0.60178459137E+02  0.00000000000E+00 0. -1.
          2   -1    0    0  502    0 -0.00000000000E+00 -0.00000000000E+00 -0.63107489989E+03  0.63107489989E+03  0.00000000000E+00 0. -1.
         23    2    1    2    0    0 -0.97441119149E+02 -0.35592958725E+01 -0.33386816327E+03  0.35915163493E+03  0.89523774183E+02 0.  0.
         23    2    1    2    0    0  0.14339706657E+03 -0.30501975816E+02 -0.19863060501E+03  0.26320687244E+03  0.91272401210E+02 0.  0.
        -11    1    3    3    0    0 -0.93742273847E+02 -0.34914337430E+02 -0.26927060363E+03  0.28725125386E+03  0.00000000000E+00 0. -1.
         11    1    3    3    0    0 -0.36988453020E+01  0.31355041557E+02 -0.64597559633E+02  0.71900381071E+02  0.00000000000E+00 0.  1.
        -11    1    4    4    0    0  0.24703304663E+02  0.19956341355E+02 -0.87061672897E+02  0.92672777606E+02  0.00000000000E+00 0.  1.
         11    1    4    4    0    0  0.11869376191E+03 -0.50458317171E+02 -0.11156893211E+03  0.17053409484E+03  0.00000000000E+00 0. -1.
          2    1    1    2  501    0 -0.45955947424E+02  0.34061271689E+02 -0.38397672476E+02  0.68894851653E+02  0.00000000000E+00 0. -1.
<scales pt_clust_5="13000.00000" pt_clust_6="13000.00000" pt_clust_7="13000.00000" pt_clust_8="13000.00000" pt_clust_9="57.20244"></scales>
<clustering>
<clus scale="   57.202">  1  9  2 -1</clus>
<clus scale="   89.524">  5  6 -1 -1</clus>
<clus scale="   91.272">  7  8 -1 -1</clus>
<clus scale="  142.242">  2  5  1 -1</clus>
<clus scale="   57.202">  1  5  2 -1</clus>
</clustering>
</event>
<event>
 9    1  0.1445593E-005  0.9916636E+02  0.7546771E-02  0.1283249E+00
         21   -1    0    0  501  502  0.00000000000E+00  0.00000000000E+00  0.18900049255E+03  0.18900049255E+03  0.00000000000E+00 0.  1.
          1   -1    0    0  502    0 -0.00000000000E+00 -0.00000000000E+00 -0.18500532578E+03  0.18500532578E+03  0.00000000000E+00 0. -1.
         23    2    1    2    0    0  0.32226897435E+02  0.13548756782E+02 -0.10232730278E+03  0.13952269110E+03  0.88167809935E+02 0.  0.
         23    2    1    2    0    0 -0.44088674667E+02 -0.82922884924E+02  0.98856746386E+02  0.16370736558E+03  0.90594862778E+02 0.  0.
        -11    1    3    3    0    0 -0.57823901186E+01  0.37748488933E+02 -0.14570740224E+02  0.40874086203E+02  0.00000000000E+00 0.  1.
         11    1    3    3    0    0  0.38009287554E+02 -0.24199732151E+02 -0.87756562554E+02  0.98648604895E+02  0.00000000000E+00 0. -1.
        -11    1    4    4    0    0 -0.41130212097E+02 -0.54676618973E+01  0.69259686603E+02  0.80737190081E+02  0.00000000000E+00 0.  1.
         11    1    4    4    0    0 -0.29584625700E+01 -0.77455223027E+02  0.29597059783E+02  0.82970175501E+02  0.00000000000E+00 0. -1.
          1    1    1    2  501    0  0.11861777232E+02  0.69374128142E+02  0.74657231612E+01  0.70775761648E+02  0.00000000000E+00 0. -1.
<scales pt_clust_5="13000.00000" pt_clust_6="13000.00000" pt_clust_7="13000.00000" pt_clust_8="13000.00000" pt_clust_9="70.38090"></scales>
<clustering>
<clus scale="   70.381">  1  9  2 -1</clus>
<clus scale="   88.168">  5  6 -1 -1</clus>
<clus scale="   90.595">  7  8 -1 -1</clus>
<clus scale="   96.954">  2  5  1 -1</clus>
<clus scale="   70.381">  1  5  2 -1</clus>
</clustering>
</event>
<event>
 9    1  0.1445593E-005  0.1377701E+03  0.7546771E-02  0.1218024E+00
          2   -1    0    0  502    0 -0.00000000000E+00  0.00000000000E+00  0.10802349503E+03  0.10802349503E+03  0.00000000000E+00 0. -1.
         21   -1    0    0  501  502  0.00000000000E+00 -0.00000000000E+00 -0.55056778071E+03  0.55056778071E+03  0.00000000000E+00 0. -1.
         23    2    1    2    0    0 -0.11549168426E+03  0.21636270127E+02 -0.15927825753E+02  0.14924229264E+03  0.90626204598E+02 0.  0.
         23    2    1    2    0    0  0.61064353364E+01 -0.10539468839E+03 -0.21616915568E+03  0.25781633478E+03  0.92708304481E+02 0.  0.
        -11    1    4    4    0    0 -0.17796832326E+02 -0.10860895293E+03 -0.14096920831E+03  0.17884336608E+03  0.00000000000E+00 0.  1.
         11    1    4    4    0    0  0.23903267662E+02  0.32142645479E+01 -0.75199947364E+02  0.78972968699E+02  0.00000000000E+00 0. -1.
        -11    1    3    3    0    0 -0.23767364152E+02 -0.10649408986E+02 -0.41227228005E+02  0.48764555155E+02  0.00000000000E+00 0.  1.
         11    1    3    3    0    0 -0.91724320109E+02  0.32285679113E+02  0.25299402252E+02  0.10047773748E+03  0.00000000000E+00 0. -1.
          2    1    1    2  501    0  0.10938524892E+03  0.83758418259E+02 -0.21044730424E+03  0.25153264833E+03  0.00000000000E+00 0. -1.
<scales pt_clust_5="13000.00000" pt_clust_6="13000.00000" pt_clust_7="13000.00000" pt_clust_8="13000.00000" pt_clust_9="137.77012"></scales>
<clustering>
<clus scale="   90.626">  7  8 -1 -1</clus>
<clus scale="   92.708">  5  6 -1 -1</clus>
<clus scale="  137.770">  2  9  1 -1</clus>
<clus scale="  133.021">  1  7  2 -1</clus>
<clus scale="  137.770">  2  5  1 -1</clus>
</clustering>
</event>
<event>
 9    1  0.1445593E-005  0.1869800E+03  0.7546771E-02  0.1184675E+00
         21   -1    0    0  501  502  0.00000000000E+00  0.00000000000E+00  0.92553557332E+03  0.92553557332E+03  0.00000000000E+00 0.  1.
          1   -1    0    0  502    0 -0.00000000000E+00 -0.00000000000E+00 -0.77374953556E+02  0.77374953556E+02  0.00000000000E+00 0. -1.
         23    2    1    2    0    0 -0.50015642604E+02  0.26601966352E+02  0.49225583881E+02  0.12016970903E+03  0.93852926125E+02 0.  0.
         23    2    1    2    0    0  0.12940983182E+03 -0.13046923405E+03  0.66431241124E+03  0.69508395640E+03  0.89786419423E+02 0.  0.
        -11    1    3    3    0    0 -0.17781037658E+02  0.44320360972E+02 -0.11548742474E+02  0.49130775992E+02  0.00000000000E+00 0. -1.
         11    1    3    3    0    0 -0.32234604946E+02 -0.17718394620E+02  0.60774326355E+02  0.71038933043E+02  0.00000000000E+00 0.  1.
        -13    1    4    4    0    0  0.95651763793E+02 -0.13853283055E+03  0.51613002265E+03  0.54289115423E+03  0.00000000000E+00 0.  1.
         13    1    4    4    0    0  0.33758068027E+02  0.80635964995E+01  0.14818238858E+03  0.15219280217E+03  0.00000000000E+00 0. -1.
          1    1    1    2  501    0 -0.79394189216E+02  0.10386726770E+03  0.13462262465E+03  0.18765686144E+03  0.00000000000E+00 0. -1.
<scales pt_clust_5="13000.00000" pt_clust_6="13000.00000" pt_clust_7="13000.00000" pt_clust_8="13000.00000" pt_clust_9="164.01205"></scales>
<clustering>
<clus scale="   89.786">  7  8 -1 -1</clus>
<clus scale="   93.853">  5  6 -1 -1</clus>
<clus scale="  109.625">  2  5  1 -1</clus>
<clus scale="  164.012">  1  9  2 -1</clus>
<clus scale="  164.012">  1  5  2 -1</clus>
</clustering>
</event>
<event>
 9    1  0.1445593E-005  0.9832715E+02  0.7546771E-02  0.1284909E+00
          1   -1    0    0  502    0 -0.00000000000E+00  0.00000000000E+00  0.64372737198E+03  0.64372737198E+03  0.00000000000E+00 0. -1.
         21   -1    0    0  501  502  0.00000000000E+00 -0.00000000000E+00 -0.22074176541E+02  0.22074176541E+02  0.00000000000E+00 0.  1.
         23    2    1    2    0    0  0.46713718738E+01  0.33327895169E+02  0.36810799786E+03  0.38072956182E+03  0.91208173103E+02 0.  0.
         23    2    1    2    0    0 -0.26385113345E+02 -0.38686748537E+02  0.16114212940E+03  0.19000079818E+03  0.89110486048E+02 0.  0.
        -11    1    4    4    0    0  0.30219211220E+02  0.27952756960E+01  0.44134282876E+02  0.53561639426E+02  0.00000000000E+00 0.  1.
         11    1    4    4    0    0 -0.56604324565E+02 -0.41482024233E+02  0.11700784652E+03  0.13643915875E+03  0.00000000000E+00 0. -1.
        -11    1    3    3    0    0 -0.21488488219E+02 -0.25179242089E+02  0.12111134265E+03  0.12555360081E+03  0.00000000000E+00 0. -1.
         11    1    3    3    0    0  0.26159860092E+02  0.58507137258E+02  0.24699665521E+03  0.25517596101E+03  0.00000000000E+00 0.  1.
          1    1    1    2  501    0  0.21713741471E+02  0.53588533679E+01  0.92403068185E+02  0.95071188528E+02  0.00000000000E+00 0. -1.
<scales pt_clust_5="13000.00000" pt_clust_6="13000.00000" pt_clust_7="13000.00000" pt_clust_8="13000.00000" pt_clust_9="22.36525"></scales>
<clustering>
<clus scale="   22.365">  2  9  1 -1</clus>
<clus scale="   89.110">  5  6 -1 -1</clus>
<clus scale="   91.208">  7  8 -1 -1</clus>
<clus scale="   96.385">  2  5  1 -1</clus>
<clus scale="   22.365">  2  5  1 -1</clus>
</clustering>
</event>
<event>
 9    1  0.1445593E-005  0.1708075E+03  0.7546771E-02  0.1197404E+00
          1   -1    0    0  502    0 -0.00000000000E+00  0.00000000000E+00  0.15085604914E+04  0.15085604914E+04  0.00000000000E+00 0. -1.
         21   -1    0    0  501  502  0.00000000000E+00 -0.00000000000E+00 -0.63632917190E+02  0.63632917190E+02  0.00000000000E+00 0. -1.
         23    2    1    2    0    0  0.34740830958E+02 -0.44279921790E+02  0.52780876354E+03  0.53886611338E+03  0.92881432297E+02 0.  0.
         23    2    1    2    0    0 -0.15646800626E+03  0.11225299347E+03  0.85441140914E+03  0.88045459693E+03  0.89991497716E+02 0.  0.
        -11    1    4    4    0    0 -0.91242934246E+02  0.32824520650E+02  0.26574919277E+03  0.28288753183E+03  0.00000000000E+00 0.  1.
         11    1    4    4    0    0 -0.65225072014E+02  0.79428472817E+02  0.58866221637E+03  0.59756706510E+03  0.00000000000E+00 0. -1.
        -13    1    3    3    0    0  0.57713292365E+02  0.79725042037E+00  0.30083430321E+03  0.30632129817E+03  0.00000000000E+00 0.  1.
         13    1    3    3    0    0 -0.22972461407E+02 -0.45077172210E+02  0.22697446033E+03  0.23254481521E+03  0.00000000000E+00 0. -1.
          1    1    1    2  501    0  0.12172717530E+03 -0.67973071677E+02  0.62707401564E+02  0.15287269832E+03  0.00000000000E+00 0. -1.
<scales pt_clust_5="13000.00000" pt_clust_6="13000.00000" pt_clust_7="13000.00000" pt_clust_8="13000.00000" pt_clust_9="145.17823"></scales>
<clustering>
<clus scale="   89.991">  5  6 -1 -1</clus>
<clus scale="   92.881">  7  8 -1 -1</clus>
<clus scale="  108.603">  1  7  2 -1</clus>
<clus scale="  145.178">  2  9  1 -1</clus>
<clus scale="  145.178">  2  5  1 -1</clus>
</clustering>
</event>
<event>
 9    1  0.1445593E-005  0.9355221E+02  0.7546771E-02  0.1294690E+00
          2   -1    0    0  502    0 -0.00000000000E+00  0.00000000000E+00  0.11991254078E+03  0.11991254078E+03  0.00000000000E+00 0. -1.
         21   -1    0    0  501  502  0.00000000000E+00 -0.00000000000E+00 -0.25694011942E+03  0.25694011942E+03  0.00000000000E+00 0. -1.
         23    2    1    2    0    0  0.21131778925E+02  0.15099647418E+02  0.75563536905E+02  0.12067850881E+03  0.90437287369E+02 0.  0.
         23    2    1    2    0    0 -0.12690250337E+02  0.87387979044E+01 -0.82563886948E+02  0.12371052974E+03  0.90830009904E+02 0.  0.
        -11    1    4    4    0    0 -0.29253238160E+02  0.32054395274E+02 -0.83711337916E+01  0.44196290345E+02  0.00000000000E+00 0. -1.
         11    1    4    4    0    0  0.16562987823E+02 -0.23315597370E+02 -0.74192753157E+02  0.79514239400E+02  0.00000000000E+00 0.  1.
        -11    1    3    3    0    0 -0.38382235443E+01  0.38370653918E+02  0.77423366726E+02  0.86495183434E+02  0.00000000000E+00 0. -1.
         11    1    3    3    0    0  0.24970002470E+02 -0.23271006500E+02 -0.18598298213E+01  0.34183325377E+02  0.00000000000E+00 0.  1.
          2    1    1    2  501    0 -0.84415285882E+01 -0.23838445322E+02 -0.13002722860E+03  0.13246362164E+03  0.00000000000E+00 0. -1.
<scales pt_clust_5="13000.00000" pt_clust_6="13000.00000" pt_clust_7="13000.00000" pt_clust_8="13000.00000" pt_clust_9="25.28895"></scales>
<clustering>
<clus scale="   25.289">  2  9  1 -1</clus>
<clus scale="   90.437">  7  8 -1 -1</clus>
<clus scale="   90.830">  5  6 -1 -1</clus>
<clus scale="   93.171">  1  7  2 -1</clus>
<clus scale="   25.289">  2  5  1 -1</clus>
</clustering>
</event>
<event>
 9    1  0.1445593E-005  0.9176481E+02  0.7546771E-02  0.1299894E+00
          1   -1    0    0  502    0 -0.00000000000E+00  0.00000000000E+00  0.66380530749E+02  0.66380530749E+02  0.00000000000E+00 0. -1.
         21   -1    0    0  501  502  0.00000000000E+00 -0.00000000000E+00 -0.29016075536E+03  0.29016075536E+03  0.00000000000E+00 0.  1.
         23    2    1    2    0    0  0.10685095543E+02 -0.33416174652E+01  0.16915023252E+01  0.91725717446E+02  0.91024218682E+02 0.  0.
         23    2    1    2    0    0 -0.15388482794E+02 -0.27327264991E+02 -0.20990898552E+03  0.23010388298E+03  0.88895612632E+02 0.  0.
        -11    1    3    3    0    0 -0.14757609113E+02  0.38870314315E+02  0.69681532327E+01  0.42157366155E+02  0.00000000000E+00 0.  1.
         11    1    3    3    0    0  0.25442704656E+02 -0.42211931780E+02 -0.52766509075E+01  0.49568351290E+02  0.00000000000E+00 0. -1.
        -13    1    4    4    0    0 -0.36570941255E+02  0.12519799200E+02 -0.15115552773E+03  0.15601978298E+03  0.00000000000E+00 0.  1.
         13    1    4    4    0    0  0.21182458461E+02 -0.39847064191E+02 -0.58753457791E+02  0.74084100005E+02  0.00000000000E+00 0. -1.
          1    1    1    2  501    0  0.47033872513E+01  0.30668882456E+02 -0.15562741419E+02  0.34711685687E+02  0.00000000000E+00 0. -1.
<scales pt_clust_5="13000.00000" pt_clust_6="13000.00000" pt_clust_7="13000.00000" pt_clust_8="13000.00000" pt_clust_9="31.02746"></scales>
<clustering>
<clus scale="   31.027">  2  9  1 -1</clus>
<clus scale="   88.896">  7  8 -1 -1</clus>
<clus scale="   89.654">  2  7  1 -1</clus>
<clus scale="   91.024">  5  6 -1 -1</clus>
<clus scale="   31.027">  2  5  1 -1</clus>
</clustering>
</event>
<event>
 9    1  0.1445593E-005  0.1810001E+03  0.7546771E-02  0.1187429E+00
          3   -1    0    0  502    0 -0.00000000000E+00  0.00000000000E+00  0.23254844111E+03  0.23254844111E+03  0.00000000000E+00 0. -1.
         21   -1    0    0  501  502  0.00000000000E+00 -0.00000000000E+00 -0.24136534171E+03  0.24136534171E+03  0.00000000000E+00 0. -1.
         23    2    1    2    0    0  0.68554693416E+02 -0.14099009654E+02  0.44159584061E+02  0.12194606729E+03  0.89566993919E+02 0.  0.
         23    2    1    2    0    0 -0.11854979724E+03  0.14386811608E+03 -0.24114242304E+02  0.20993757640E+03  0.93489037053E+02 0.  0.
        -11    1    4    4    0    0 -0.10014692652E+03  0.15212358061E+03 -0.50729111624E+01  0.18219968468E+03  0.00000000000E+00 0. -1.
         11    1    4    4    0    0 -0.18402870718E+02 -0.82554645253E+01 -0.19041331142E+02  0.27737891716E+02  0.00000000000E+00 0.  1.
        -13    1    3    3    0    0  0.34433516528E+02 -0.10719449300E+02  0.70179226727E+02  0.78903089406E+02  0.00000000000E+00 0.  1.
         13    1    3    3    0    0  0.34121176887E+02 -0.33795603542E+01 -0.26019642666E+02  0.43042977881E+02  0.00000000000E+00 0. -1.
          3    1    1    2  501    0  0.49995103826E+02 -0.12976910643E+03 -0.28862242355E+02  0.14203013914E+03  0.00000000000E+00 0. -1.
<scales pt_clust_5="13000.00000" pt_clust_6="13000.00000" pt_clust_7="13000.00000" pt_clust_8="13000.00000" pt_clust_9="154.98662"></scales>
<clustering>
<clus scale="   89.567">  7  8 -1 -1</clus>
<clus scale="   93.489">  5  6 -1 -1</clus>
<clus scale="  113.670">  1  7  2 -1</clus>
<clus scale="  154.987">  2  9  1 -1</clus>
<clus scale="  154.987">  2  5  1 -1</clus>
</clustering>
</event>
<event>
 9    1  0.1445593E-005  0.9359563E+02  0.7546771E-02  0.1294515E+00
         21   -1    0    0  501  502  0.00000000000E+00  0.00000000000E+00  0.55162654809E+02  0.55162654809E+02  0.00000000000E+00 0.  1.
          2   -1    0    0  502    0 -0.00000000000E+00 -0.00000000000E+00 -0.26977817824E+03  0.26977817824E+03  0.00000000000E+00 0. -1.
         23    2    1    2    0    0 -0.14519744774E+01  0.19581922844E+01 -0.14030388101E+03  0.16838673285E+03  0.93075077365E+02 0.  0.
         23    2    1    2    0    0 -0.34472048549E+02  0.99579447234E+01 -0.48226957317E+02  0.11058736713E+03  0.92823723061E+02 0.  0.
        -11    1    3    3    0    0 -0.31402082502E+02  0.29079276554E+02 -0.33989667548E+02  0.54653386083E+02  0.00000000000E+00 0. -1.
         11    1    3    3    0    0  0.29950108024E+02 -0.27121084270E+02 -0.10631421347E+03  0.11373334677E+03  0.00000000000E+00 0.  1.
        -11    1    4    4    0    0 -0.28659681564E+02 -0.21727817365E+02  0.15513974640E+02  0.39168339305E+02  0.00000000000E+00 0.  1.
         11    1    4    4    0    0 -0.58123669856E+01  0.31685762088E+02 -0.63740931957E+02  0.71419027828E+02  0.00000000000E+00 0. -1.
          2    1    1    2  501    0  0.35924023027E+02 -0.11916137008E+02 -0.26084685096E+02  0.45966733059E+02  0.00000000000E+00 0. -1.
<scales pt_clust_5="13000.00000" pt_clust_6="13000.00000" pt_clust_7="13000.00000" pt_clust_8="13000.00000" pt_clust_9="37.84877"></scales>
<clustering>
<clus scale="   37.849">  1  9  2 -1</clus>
<clus scale="   92.824">  7  8 -1 -1</clus>
<clus scale="   93.075">  5  6 -1 -1</clus>
<clus scale="   93.346">  1  7  2 -1</clus>
<clus scale="   37.849">  1  5  2 -1</clus>
</clustering>
</event>
<event>
 9    1  0.1445593E-005  0.9817029E+02  0.7546771E-02  0.1285273E+00
         21   -1    0    0  501  502  0.00000000000E+00  0.00000000000E+00  0.10790248402E+03  0.10790248402E+03  0.00000000000E+00 0. -1.
          1   -1    0    0  502    0 -0.00000000000E+00 -0.00000000000E+00 -0.43425027667E+03  0.43425027667E+03  0.00000000000E+00 0. -1.
         23    2    1    2    0    0 -0.16857650574E+02  0.25335455850E+02 -0.36874196228E+03  0.38156751070E+03  0.93258054717E+02 0.  0.
         23    2    1    2    0    0  0.38738227839E+02 -0.11316279006E+02 -0.11885591685E+02  0.10040560667E+03  0.91166386868E+02 0.  0.
        -11    1    3    3    0    0 -0.14289421029E+02 -0.34456330123E+02 -0.11664598406E+03  0.12246514539E+03  0.00000000000E+00 0.  1.
         11    1    3    3    0    0 -0.25682295448E+01  0.59791785973E+02 -0.25209597822E+03  0.25910236531E+03  0.00000000000E+00 0. -1.
        -11    1    4    4    0    0 -0.19017516142E+02  0.10306746252E+02  0.21313091975E+02  0.30366804705E+02  0.00000000000E+00 0.  1.
         11    1    4    4    0    0  0.57755743980E+02 -0.21623025257E+02 -0.33198683659E+02  0.70038801965E+02  0.00000000000E+00 0. -1.
          1    1    1    2  501    0 -0.21880577265E+02 -0.14019176844E+02  0.54279761317E+02  0.60179643315E+02  0.00000000000E+00 0. -1.
<scales pt_clust_5="13000.00000" pt_clust_6="13000.00000" pt_clust_7="13000.00000" pt_clust_8="13000.00000" pt_clust_9="25.98648"></scales>
<clustering>
<clus scale="   25.986">  1  9  2 -1</clus>
<clus scale="   91.166">  7  8 -1 -1</clus>
<clus scale="   93.258">  5  6 -1 -1</clus>
<clus scale="   96.186">  1  7  2 -1</clus>
<clus scale="   25.986">  1  5  2 -1</clus>
</clustering>
</event>
<event>
 9    1  0.1445593E-005  0.1997386E+03  0.7546771E-02  0.1150266E+00
          1   -1    0    0  502    0 -0.00000000000E+00  0.00000000000E+00  0.62208708804E+03  0.62208708804E+03  0.00000000000E+00 0. -1.
         21   -1    0    0  501  502  0.00000000000E+00 -0.00000000000E+00 -0.37013208289E+03  0.37013208289E+03  0.00000000000E+00 0.  1.
         23    2    1    2    0    0  0.79098288902E+02 -0.15657860218E+03  0.55608805883E+03  0.59005430368E+03  0.90314750481E+02 0.  0.
         23    2    1    2    0    0 -0.92863880283E+02  0.17602485904E+03 -0.30759186091E+03  0.37808973984E+03  0.93437932423E+02 0.  0.
        -13    1    3    3    0    0 -0.13206659789E+02 -0.55168296299E+02  0.11655077866E+03  0.12962268623E+03  0.00000000000E+00 0.  1.
         13    1    3    3    0    0  0.92304948691E+02 -0.10141030588E+03  0.43953728017E+03  0.46043161745E+03  0.00000000000E+00 0. -1.
        -13    1    4    4    0    0 -0.49269314353E+02  0.67514696962E+02 -0.20914734145E+03  0.22522946095E+03  0.00000000000E+00 0. -1.
         13    1    4    4    0    0 -0.43594565930E+02  0.10851016208E+03 -0.98444519462E+02  0.15286027890E+03  0.00000000000E+00 0.  1.
          1    1    1    2  501    0  0.13765591380E+02 -0.19446256861E+02  0.34588072383E+01  0.24075127403E+02  0.00000000000E+00 0. -1.
<scales pt_clust_5="13000.00000" pt_clust_6="13000.00000" pt_clust_7="13000.00000" pt_clust_8="13000.00000" pt_clust_9="23.82537"></scales>
<clustering>
<clus scale="   23.825">  2  9  1 -1</clus>
<clus scale="   90.315">  5  6 -1 -1</clus>
<clus scale="   93.438">  7  8 -1 -1</clus>
<clus scale="  198.297">  1  5  2 -1</clus>
<clus scale="   23.825">  2  5  1 -1</clus>
</clustering>
</event>
<event>
 9    1  0.1445593E-005  0.1016266E+03  0.7546771E-02  0.1277251E+00
         -3   -1    0    0    0  501 -0.00000000000E+00  0.00000000000E+00  0.96266866490E+02  0.96266866490E+02  0.00000000000E+00 0.  1.
         21   -1    0    0  501  502  0.00000000000E+00 -0.00000000000E+00 -0.41118970630E+03  0.41118970630E+03  0.00000000000E+00 0.  1.
         23    2    1    2    0    0  0.46706654191E+02 -0.21788408166E+02  0.49212850492E+02  0.11556748237E+03  0.90981822640E+02 0.  0.
         23    2    1    2    0    0 -0.82724341374E+01  0.11158010551E+02 -0.16295096903E+03  0.18679036615E+03  0.90247926364E+02 0.  0.
        -11    1    4    4    0    0 -0.45247074098E+02 -0.50639478135E+01 -0.11740468280E+03  0.12592378975E+03  0.00000000000E+00 0. -1.
         11    1    4    4    0    0  0.36974639960E+02  0.16221958364E+02 -0.45546286234E+02  0.60866576403E+02  0.00000000000E+00 0.  1.
        -11    1    3    3    0    0 -0.97480939724E+01  0.26441969912E+02  0.24408292656E+02  0.37282272722E+02  0.00000000000E+00 0. -1.
         11    1    3    3    0    0  0.56454748164E+02 -0.48230378078E+02  0.24804557836E+02  0.78285209645E+02  0.00000000000E+00 0.  1.
         -3    1    1    2    0  502 -0.38434220054E+02  0.10630397615E+02 -0.20118472126E+03  0.20509872426E+03  0.00000000000E+00 0.  1.
<scales pt_clust_5="13000.00000" pt_clust_6="13000.00000" pt_clust_7="13000.00000" pt_clust_8="13000.00000" pt_clust_9="39.87724"></scales>
<clustering>
<clus scale="   39.877">  2  9  1 -1</clus>
<clus scale="   90.248">  5  6 -1 -1</clus>
<clus scale="   90.982">  7  8 -1 -1</clus>
<clus scale="  100.970">  2  5  1 -1</clus>
<clus scale="   39.877">  2  5  1 -1</clus>
</clustering>
</event>
<event>
 9    1  0.1445593E-005  0.1322028E+03  0.7546771E-02  0.1224627E+00
         21   -1    0    0  501  502  0.00000000000E+00  0.00000000000E+00  0.44398862809E+03  0.44398862809E+03  0.00000000000E+00 0.  1.
          2   -1    0    0  502    0 -0.00000000000E+00 -0.00000000000E+00 -0.69438974263E+02  0.69438974263E+02  0.00000000000E+00 0. -1.
         23    2    1    2    0    0  0.70962410814E+02 -0.51415509717E+02  0.36422392664E+02  0.13333421402E+03  0.93660042452E+02 0.  0.
         23    2    1    2    0    0 -0.93805340579E+02  0.60412963675E+02  0.25241790374E+03  0.29093707859E+03  0.92089182147E+02 0.  0.
        -11    1    4    4    0    0 -0.38489321537E+02  0.56949326175E+02  0.21052311002E+03  0.22146023001E+03  0.00000000000E+00 0.  1.
         11    1    4    4    0    0 -0.55316019042E+02  0.34636375007E+01  0.41894793718E+02  0.69476848576E+02  0.00000000000E+00 0. -1.
        -11    1    3    3    0    0  0.84057789300E+02 -0.17827267873E+02  0.43936372806E+02  0.96508695345E+02  0.00000000000E+00 0.  1.
         11    1    3    3    0    0 -0.13095378486E+02 -0.33588241844E+02 -0.75139801421E+01  0.36825518672E+02  0.00000000000E+00 0. -1.
          2    1    1    2  501    0  0.22842929764E+02 -0.89974539579E+01  0.85709357426E+02  0.89156309750E+02  0.00000000000E+00 0. -1.
<scales pt_clust_5="13000.00000" pt_clust_6="13000.00000" pt_clust_7="13000.00000" pt_clust_8="13000.00000" pt_clust_9="24.55104"></scales>
<clustering>
<clus scale="   24.551">  1  9  2 -1</clus>
<clus scale="   92.089">  5  6 -1 -1</clus>
<clus scale="   93.660">  7  8 -1 -1</clus>
<clus scale="  131.095">  1  5  2 -1</clus>
<clus scale="   24.551">  1  5  2 -1</clus>
</clustering>
</event>
<event>
 9    1  0.1445593E-005  0.1264615E+03  0.7546771E-02  0.1233400E+00
         21   -1    0    0  501  502  0.00000000000E+00  0.00000000000E+00  0.13284536707E+03  0.13284536707E+03  0.00000000000E+00 0. -1.
         -3   -1    0    0    0  501 -0.00000000000E+00 -0.00000000000E+00 -0.14703103155E+03  0.14703103155E+03  0.00000000000E+00 0.  1.
         23    2    1    2    0    0 -0.21040274670E+02  0.95295640648E+02 -0.28630658669E+02  0.13669177030E+03  0.91328928421E+02 0.  0.
         23    2    1    2    0    0  0.67867270544E+01 -0.74810686631E+02  0.17981020014E+02  0.11797946141E+03  0.89180366310E+02 0.  0.
        -13    1    3    3    0    0  0.31031795857E+02  0.62126179385E+02 -0.20542754584E+01  0.69475568128E+02  0.00000000000E+00 0.  1.
         13    1    3    3    0    0 -0.52072070527E+02  0.33169461263E+02 -0.26576383210E+02  0.67216202169E+02  0.00000000000E+00 0. -1.
        -13    1    4    4    0    0  0.21334508274E+02 -0.15578936538E+02  0.44278068180E+02  0.51559788873E+02  0.00000000000E+00 0. -1.
         13    1    4    4    0    0 -0.14547781219E+02 -0.59231750093E+02 -0.26297048166E+02  0.66419672535E+02  0.00000000000E+00 0.  1.
         -3    1    1    2    0  502  0.14253547616E+02 -0.20484954017E+02 -0.35360258191E+01  0.25205166917E+02  0.00000000000E+00 0.  1.
<scales pt_clust_5="13000.00000" pt_clust_6="13000.00000" pt_clust_7="13000.00000" pt_clust_8="13000.00000" pt_clust_9="24.95591"></scales>
<clustering>
<clus scale="   24.956">  1  9  2 -1</clus>
<clus scale="   89.180">  7  8 -1 -1</clus>
<clus scale="   91.329">  5  6 -1 -1</clus>
<clus scale="  124.919">  1  7  2 -1</clus>
<clus scale="   24.956">  1  5  2 -1</clus>
</clustering>
</event>
<event>
 9    1  0.1445593E-005  0.1295754E+03  0.7546771E-02  0.1228356E+00
         21   -1    0    0  501  502  0.00000000000E+00  0.00000000000E+00  0.31572868772E+03  0.31572868772E+03  0.00000000000E+00 0. -1.
         -1   -1    0    0    0  501 -0.00000000000E+00 -0.00000000000E+00 -0.28605238452E+03  0.28605238452E+03  0.00000000000E+00 0.  1.
         23    2    1    2    0    0 -0.66292836133E+02  0.59771303453E+02 -0.23222800680E+03  0.26507192057E+03  0.91465442061E+02 0.  0.
         23    2    1    2    0    0  0.77971949538E+02 -0.84365482059E+02  0.11153321800E+03  0.18389311644E+03  0.90442578915E+02 0.  0.
        -13    1    3    3    0    0 -0.63880735390E+02  0.82604599031E+02 -0.19813646022E+03  0.22396947338E+03  0.00000000000E+00 0.  1.
         13    1    3    3    0    0 -0.24121007432E+01 -0.22833295578E+02 -0.34091546581E+02  0.41102447193E+02  0.00000000000E+00 0. -1.
        -13    1    4    4    0    0  0.25893002467E+02 -0.62041682189E+02  0.10788076291E+03  0.12711363778E+03  0.00000000000E+00 0. -1.
         13    1    4    4    0    0  0.52078947071E+02 -0.22323799870E+02  0.36524550911E+01  0.56779478659E+02  0.00000000000E+00 0.  1.
         -1    1    1    2    0  502 -0.11679113405E+02  0.24594178606E+02  0.15037109201E+03  0.15281603523E+03  0.00000000000E+00 0.  1.
<scales pt_clust_5="13000.00000" pt_clust_6="13000.00000" pt_clust_7="13000.00000" pt_clust_8="13000.00000" pt_clust_9="27.22637"></scales>
<clustering>
<clus scale="   27.226">  1  9  2 -1</clus>
<clus scale="   90.443">  7  8 -1 -1</clus>
<clus scale="   91.465">  5  6 -1 -1</clus>
<clus scale="  128.855">  1  7  2 -1</clus>
<clus scale="   27.226">  1  5  2 -1</clus>
</clustering>
</event>
<event>
 9    1  0.1445593E-005  0.1025503E+03  0.7546771E-02  0.1285477E+00
         21   -1    0    0  501  502  0.00000000000E+00  0.00000000000E+00  0.20237825575E+02  0.20237825575E+02  0.00000000000E+00 0. -1.
          1   -1    0    0  502    0 -0.00000000000E+00 -0.00000000000E+00 -0.77410178753E+03  0.77410178753E+03  0.00000000000E+00 0. -1.
         23    2    1    2    0    0 -0.14660931440E+02 -0.16898333607E+02 -0.35528276474E+03  0.36431070470E+03  0.77433520179E+02 0.  0.
         23    2    1    2    0    0  0.33528385610E+02  0.37448349591E+02 -0.38246553434E+03  0.39781092315E+03  0.97196265843E+02 0.  0.
        -11    1    4    4    0    0  0.52232196233E+02  0.59972531305E+02 -0.25981589873E+03  0.27171530702E+03  0.00000000000E+00 0. -1.
         11    1    4    4    0    0 -0.18703810622E+02 -0.22524181714E+02 -0.12264963561E+03  0.12609561613E+03  0.00000000000E+00 0.  1.
        -11    1    3    3    0    0 -0.22987624059E+01 -0.47225165989E+02 -0.23070876856E+03  0.23550379297E+03  0.00000000000E+00 0. -1.
         11    1    3    3    0    0 -0.12362169034E+02  0.30326832383E+02 -0.12457399618E+03  0.12880691173E+03  0.00000000000E+00 0.  1.
          1    1    1    2  501    0 -0.18867454170E+02 -0.20550015984E+02 -0.16115662874E+02  0.32217985251E+02  0.00000000000E+00 0. -1.
<scales pt_clust_5="13000.00000" pt_clust_6="13000.00000" pt_clust_7="13000.00000" pt_clust_8="13000.00000" pt_clust_9="27.89774"></scales>
<clustering>
<clus scale="   27.898">  1  9  2 -1</clus>
<clus scale="   77.434">  7  8 -1 -1</clus>
<clus scale="   84.056">  2  7  1 -1</clus>
<clus scale="   97.196">  5  6 -1 -1</clus>
<clus scale="   27.898">  1  5  2 -1</clus>
</clustering>
</event>
<event>
 9    1  0.1445593E-005  0.1282474E+03  0.7546771E-02  0.1232123E+00
          2   -1    0    0  502    0 -0.00000000000E+00  0.00000000000E+00  0.32165877413E+03  0.32165877413E+03  0.00000000000E+00 0. -1.
         21   -1    0    0  501  502  0.00000000000E+00 -0.00000000000E+00 -0.10790559217E+03  0.10790559217E+03  0.00000000000E+00 0.  1.
         23    2    1    2    0    0 -0.36569542380E+01  0.46256672887E+02  0.40931832060E+02  0.10997866441E+03  0.90922157086E+02 0.  0.
         23    2    1    2    0    0 -0.30749121380E+02 -0.13583512817E+03  0.88770809193E+02  0.19202171369E+03  0.97956068997E+02 0.  0.
        -11    1    4    4    0    0  0.37531858278E+01 -0.13349326582E+03  0.57502092269E+02  0.14539954965E+03  0.00000000000E+00 0.  1.
         11    1    4    4    0    0 -0.34502307207E+02 -0.23418623516E+01  0.31268716924E+02  0.46622164042E+02  0.00000000000E+00 0. -1.
        -11    1    3    3    0    0 -0.20976874529E+02 -0.22634092161E+02  0.93968358770E+01  0.32258826970E+02  0.00000000000E+00 0.  1.
         11    1    3    3    0    0  0.17319920291E+02  0.68890765048E+02  0.31534996183E+02  0.77719837442E+02  0.00000000000E+00 0. -1.
          2    1    1    2  501    0  0.34406075618E+02  0.89578455283E+02  0.84050540708E+02  0.12756398819E+03  0.00000000000E+00 0. -1.
<scales pt_clust_5="13000.00000" pt_clust_6="13000.00000" pt_clust_7="13000.00000" pt_clust_8="13000.00000" pt_clust_9="95.95878"></scales>
<clustering>
<clus scale="   90.922">  7  8 -1 -1</clus>
<clus scale="   95.959">  2  9  1 -1</clus>
<clus scale="   97.956">  5  6 -1 -1</clus>
<clus scale="  122.959">  1  7  2 -1</clus>
<clus scale="   95.959">  2  5  1 -1</clus>
</clustering>
</event>
<event>
 9    1  0.1445593E-005  0.1134832E+03  0.7546771E-02  0.1258558E+00
          1   -1    0    0  502    0 -0.00000000000E+00  0.00000000000E+00  0.28104780710E+03  0.28104780710E+03  0.00000000000E+00 0. -1.
         21   -1    0    0  501  502  0.00000000000E+00 -0.00000000000E+00 -0.66400272250E+02  0.66400272250E+02  0.00000000000E+00 0.  1.
         23    2    1    2    0    0 -0.52204336286E+02  0.15655324862E+02  0.10539249459E+03  0.14537805927E+03  0.84004882458E+02 0.  0.
         23    2    1    2    0    0  0.55493107910E+02 -0.49576762654E+02  0.11577147041E+03  0.16737212644E+03  0.95252584891E+02 0.  0.
        -11    1    3    3    0    0  0.98462417563E+01  0.33619095082E+02  0.44188532767E+02  0.56389879047E+02  0.00000000000E+00 0.  1.
         11    1    3    3    0    0 -0.62050578043E+02 -0.17963770221E+02  0.61203961823E+02  0.88988180220E+02  0.00000000000E+00 0. -1.
        -13    1    4    4    0    0  0.22174922574E+02  0.26845172169E+02  0.51215428815E+02  0.61930691976E+02  0.00000000000E+00 0.  1.
         13    1    4    4    0    0  0.33318185336E+02 -0.76421934822E+02  0.64556041597E+02  0.10544143447E+03  0.00000000000E+00 0. -1.
          1    1    1    2  501    0 -0.32887716237E+01  0.33921437792E+02 -0.65164301562E+01  0.34697893634E+02  0.00000000000E+00 0. -1.
<scales pt_clust_5="13000.00000" pt_clust_6="13000.00000" pt_clust_7="13000.00000" pt_clust_8="13000.00000" pt_clust_9="34.08049"></scales>
<clustering>
<clus scale="   34.080">  2  9  1 -1</clus>
<clus scale="   84.005">  5  6 -1 -1</clus>
<clus scale="   95.253">  7  8 -1 -1</clus>
<clus scale="  104.222">  1  5  2 -1</clus>
<clus scale="   34.080">  2  5  1 -1</clus>
</clustering>
</event>
<event>
 9    1  0.1445593E-005  0.1632562E+03  0.7546771E-02  0.1203940E+00
         21   -1    0    0  501  502  0.00000000000E+00  0.00000000000E+00  0.91257507858E+02  0.91257507858E+02  0.00000000000E+00 0.  1.
          3   -1    0    0  502    0 -0.00000000000E+00 -0.00000000000E+00 -0.50187139143E+03  0.50187139143E+03  0.00000000000E+00 0. -1.
         23    2    1    2    0    0 -0.87479554196E+01 -0.21004383457E+02 -0.19105477155E+03  0.21943740381E+03  0.10551368448E+03 0.  0.
         23    2    1    2    0    0  0.13266700106E+03  0.44582693895E+02 -0.83853810163E+02  0.18841387797E+03  0.94234697255E+02 0.  0.
        -11    1    4    4    0    0  0.11788428803E+03  0.25315195212E+02 -0.22801549952E+02  0.12270890413E+03  0.00000000000E+00 0.  1.
         11    1    4    4    0    0  0.14782713032E+02  0.19267498683E+02 -0.61052260210E+02  0.65704973837E+02  0.00000000000E+00 0. -1.
        -13    1    3    3    0    0  0.37071818932E+02 -0.42296522253E+02 -0.11662422415E+03  0.12947789468E+03  0.00000000000E+00 0.  1.
         13    1    3    3    0    0 -0.45819774352E+02  0.21292138796E+02 -0.74430547403E+02  0.89959509129E+02  0.00000000000E+00 0. -1.
          3    1    1    2  501    0 -0.12391904564E+03 -0.23578310438E+02 -0.13570530186E+03  0.18527761751E+03  0.00000000000E+00 0. -1.
<scales pt_clust_5="13000.00000" pt_clust_6="13000.00000" pt_clust_7="13000.00000" pt_clust_8="13000.00000" pt_clust_9="133.31321"></scales>
<clustering>
<clus scale="   94.235">  5  6 -1 -1</clus>
<clus scale="  105.514">  7  8 -1 -1</clus>
<clus scale="  107.939">  2  7  1 -1</clus>
<clus scale="  133.313">  1  9  2 -1</clus>
<clus scale="  133.313">  1  5  2 -1</clus>
</clustering>
</event>
<event>
 9    1  0.1445593E-005  0.1500615E+03  0.7546771E-02  0.1204528E+00
          4   -1    0    0  502    0 -0.00000000000E+00  0.00000000000E+00  0.78470870349E+02  0.78470870349E+02  0.00000000000E+00 0. -1.
         21   -1    0    0  501  502  0.00000000000E+00 -0.00000000000E+00 -0.79083442330E+03  0.79083442330E+03  0.00000000000E+00 0.  1.
         23    2    1    2    0    0 -0.71406343563E+02 -0.98611947770E+02 -0.30845631889E+02  0.14183902827E+03  0.65906561056E+02 0.  0.
         23    2    1    2    0    0 -0.96488309460E+00  0.13577337992E+03 -0.34762957703E+03  0.38380947035E+03  0.89599358308E+02 0.  0.
        -13    1    4    4    0    0 -0.36698260697E+02  0.11190921322E+03 -0.27898594785E+03  0.30282601183E+03  0.00000000000E+00 0.  1.
         13    1    4    4    0    0  0.35733377602E+02  0.23864166708E+02 -0.68643629176E+02  0.80983458521E+02  0.00000000000E+00 0. -1.
        -13    1    3    3    0    0 -0.58970936728E+01 -0.60306752569E+02 -0.19141446305E+01  0.60624616030E+02  0.00000000000E+00 0.  1.
         13    1    3    3    0    0 -0.65509249890E+02 -0.38305195201E+02 -0.28931487258E+02  0.81214412241E+02  0.00000000000E+00 0. -1.
          4    1    1    2  501    0  0.72371226658E+02 -0.37161432154E+02 -0.33388834404E+03  0.34365679503E+03  0.00000000000E+00 0. -1.
<scales pt_clust_5="13000.00000" pt_clust_6="13000.00000" pt_clust_7="13000.00000" pt_clust_8="13000.00000" pt_clust_9="81.35457"></scales>
<clustering>
<clus scale="   65.907">  7  8 -1 -1</clus>
<clus scale="   81.355">  2  9  1 -1</clus>
<clus scale="   89.599">  5  6 -1 -1</clus>
<clus scale="  137.237">  1  7  2 -1</clus>
<clus scale="   81.355">  2  5  1 -1</clus>
</clustering>
</event>
<event>
 9    1  0.1445593E-005  0.9644088E+02  0.7546771E-02  0.1289603E+00
          3   -1    0    0  502    0 -0.00000000000E+00  0.00000000000E+00  0.37367990559E+03  0.37367990559E+03  0.00000000000E+00 0. -1.
         21   -1    0    0  501  502  0.00000000000E+00 -0.00000000000E+00 -0.75194016556E+02  0.75194016556E+02  0.00000000000E+00 0. -1.
         23    2    1    2    0    0 -0.30271281287E+02  0.21811222853E+02  0.17040211216E+03  0.19475997133E+03  0.86616896105E+02 0.  0.
         23    2    1    2    0    0  0.37602004520E+02  0.26364431013E+01  0.17525472190E+03  0.20048069687E+03  0.89763192315E+02 0.  0.
        -11    1    4    4    0    0  0.71059773631E+01  0.27316099460E+02  0.15257868278E+03  0.15516738911E+03  0.00000000000E+00 0. -1.
         11    1    4    4    0    0  0.30496027157E+02 -0.24679656359E+02  0.22676039118E+02  0.45313307763E+02  0.00000000000E+00 0.  1.
        -11    1    3    3    0    0 -0.27577678511E+02 -0.30527944435E+02  0.62831754168E+02  0.75102017785E+02  0.00000000000E+00 0. -1.
         11    1    3    3    0    0 -0.26936027761E+01  0.52339167288E+02  0.10757035799E+03  0.11965795354E+03  0.00000000000E+00 0.  1.
          3    1    1    2  501    0 -0.73307232324E+01 -0.24447665954E+02 -0.47170945027E+02  0.53633253942E+02  0.00000000000E+00 0. -1.
<scales pt_clust_5="13000.00000" pt_clust_6="13000.00000" pt_clust_7="13000.00000" pt_clust_8="13000.00000" pt_clust_9="25.52309"></scales>
<clustering>
<clus scale="   25.523">  2  9  1 -1</clus>
<clus scale="   86.617">  7  8 -1 -1</clus>
<clus scale="   89.763">  5  6 -1 -1</clus>
<clus scale="   93.520">  1  7  2 -1</clus>
<clus scale="   25.523">  2  5  1 -1</clus>
</clustering>
</event>
<event>
 9    1  0.1445593E-005  0.2061121E+03  0.7546771E-02  0.1167168E+00
         21   -1    0    0  501  502  0.00000000000E+00  0.00000000000E+00  0.47966981614E+03  0.47966981614E+03  0.00000000000E+00 0.  1.
         -2   -1    0    0    0  501 -0.00000000000E+00 -0.00000000000E+00 -0.19819044600E+03  0.19819044600E+03  0.00000000000E+00 0.  1.
         23    2    1    2    0    0 -0.68502980592E+02  0.32504871269E+02  0.40226147756E+01  0.12171856923E+03  0.95131507185E+02 0.  0.
         23    2    1    2    0    0  0.21320857434E+03 -0.12129972964E+03  0.41056806299E+02  0.26509329204E+03  0.91745689601E+02 0.  0.
        -11    1    4    4    0    0  0.96534176722E+02 -0.81883180060E+02  0.60696646703E+02  0.14038441998E+03  0.00000000000E+00 0.  1.
         11    1    4    4    0    0  0.11667439762E+03 -0.39416549580E+02 -0.19639840405E+02  0.12470887206E+03  0.00000000000E+00 0. -1.
        -13    1    3    3    0    0 -0.71674313695E+02 -0.14051708217E+02  0.13032260127E+02  0.74192301160E+02  0.00000000000E+00 0. -1.
         13    1    3    3    0    0  0.31713331026E+01  0.46556579487E+02 -0.90096453519E+01  0.47526268068E+02  0.00000000000E+00 0.  1.
         -2    1    1    2    0  502 -0.14470559374E+03  0.88794858371E+02  0.23639994906E+03  0.29104840087E+03  0.00000000000E+00 0.  1.
<scales pt_clust_5="13000.00000" pt_clust_6="13000.00000" pt_clust_7="13000.00000" pt_clust_8="13000.00000" pt_clust_9="184.56689"></scales>
<clustering>
<clus scale="   91.746">  5  6 -1 -1</clus>
<clus scale="   95.132">  7  8 -1 -1</clus>
<clus scale="  121.652">  2  7  1 -1</clus>
<clus scale="  184.567">  1  9  2 -1</clus>
<clus scale="  184.567">  1  5  2 -1</clus>
</clustering>
</event>
<event>
 9    1  0.1445593E-005  0.1392015E+03  0.7546771E-02  0.1214498E+00
         -3   -1    0    0    0  501 -0.00000000000E+00  0.00000000000E+00  0.54650815480E+03  0.54650815480E+03  0.00000000000E+00 0.  1.
         21   -1    0    0  501  502  0.00000000000E+00 -0.00000000000E+00 -0.15264801019E+03  0.15264801019E+03  0.00000000000E+00 0.  1.
         23    2    1    2    0    0 -0.78955681594E+02 -0.93261769574E+02  0.41904601896E+03  0.44584981803E+03  0.90833567080E+02 0.  0.
         23    2    1    2    0    0  0.73868742113E+02  0.14877048748E+02  0.64392669348E+02  0.13416627435E+03  0.90422650190E+02 0.  0.
        -11    1    4    4    0    0  0.19461982714E+02 -0.37196563224E+02  0.28491411788E+02  0.50735723435E+02  0.00000000000E+00 0.  1.
         11    1    4    4    0    0  0.54406759399E+02  0.52073611972E+02  0.35901257560E+02  0.83430550918E+02  0.00000000000E+00 0. -1.
        -11    1    3    3    0    0 -0.66933253717E+02 -0.33164714573E+02  0.12612675137E+03  0.14658757163E+03  0.00000000000E+00 0. -1.
         11    1    3    3    0    0 -0.12022427878E+02 -0.60097055001E+02  0.29291926759E+03  0.29926224640E+03  0.00000000000E+00 0.  1.
         -3    1    1    2    0  502  0.50869394813E+01  0.78384720826E+02 -0.89578543690E+02  0.11914007261E+03  0.00000000000E+00 0.  1.
<scales pt_clust_5="13000.00000" pt_clust_6="13000.00000" pt_clust_7="13000.00000" pt_clust_8="13000.00000" pt_clust_9="78.54961"></scales>
<clustering>
<clus scale="   78.550">  2  9  1 -1</clus>
<clus scale="   90.423">  5  6 -1 -1</clus>
<clus scale="   90.834">  7  8 -1 -1</clus>
<clus scale="  138.934">  2  5  1 -1</clus>
<clus scale="   78.550">  2  5  1 -1</clus>
</clustering>
</event>
<event>
 9    1  0.1445593E-005  0.9206991E+02  0.7546771E-02  0.1299419E+00
         -2   -1    0    0    0  501 -0.00000000000E+00  0.00000000000E+00  0.17666688226E+03  0.17666688226E+03  0.00000000000E+00 0.  1.
         21   -1    0    0  501  502  0.00000000000E+00 -0.00000000000E+00 -0.34656342015E+03  0.34656342015E+03  0.00000000000E+00 0.  1.
         23    2    1    2    0    0 -0.20069627929E+01 -0.23934670856E+02  0.89658836284E+02  0.12881674440E+03  0.89320492309E+02 0.  0.
         23    2    1    2    0    0 -0.19455959561E+02 -0.37004012396E+02  0.23883944623E+02  0.10370403358E+03  0.91849074429E+02 0.  0.
        -11    1    3    3    0    0  0.53805825296E+01  0.32583466094E+02  0.19240360775E+02  0.38220732774E+02  0.00000000000E+00 0. -1.
         11    1    3    3    0    0 -0.73875453225E+01 -0.56518136950E+02  0.70418475510E+02  0.90596011630E+02  0.00000000000E+00 0.  1.
        -11    1    4    4    0    0 -0.14722062109E+02  0.20360012656E+02  0.36947719555E+02  0.44681128101E+02  0.00000000000E+00 0. -1.
         11    1    4    4    0    0 -0.47338974517E+01 -0.57364025052E+02 -0.13063774931E+02  0.59022905475E+02  0.00000000000E+00 0.  1.
         -2    1    1    2    0  502  0.21462922354E+02  0.60938683252E+02 -0.28343931880E+03  0.29070952443E+03  0.00000000000E+00 0.  1.
<scales pt_clust_5="13000.00000" pt_clust_6="13000.00000" pt_clust_7="13000.00000" pt_clust_8="13000.00000" pt_clust_9="64.60790"></scales>
<clustering>
<clus scale="   64.608">  2  9  1 -1</clus>
<clus scale="   89.320">  5  6 -1 -1</clus>
<clus scale="   89.548">  1  5  2 -1</clus>
<clus scale="   91.849">  7  8 -1 -1</clus>
<clus scale="   64.608">  2  5  1 -1</clus>
</clustering>
</event>
<event>
 9    1  0.1445593E-005  0.1666904E+03  0.7546771E-02  0.1184429E+00
         21   -1    0    0  501  502  0.00000000000E+00  0.00000000000E+00  0.23094622252E+03  0.23094622252E+03  0.00000000000E+00 0. -1.
          1   -1    0    0  502    0 -0.00000000000E+00 -0.00000000000E+00 -0.51620544447E+03  0.51620544447E+03  0.00000000000E+00 0. -1.
         23    2    1    2    0    0  0.62777856486E+02 -0.90845575300E+02 -0.30085831900E+03  0.33291412760E+03  0.90122751968E+02 0.  0.
         23    2    1    2    0    0 -0.83562017854E+02  0.18538043983E+03 -0.11034291177E+03  0.25539733174E+03  0.10818373529E+03 0.  0.
        -11    1    3    3    0    0  0.29762299963E+02 -0.64254174762E+01 -0.17603745406E+03  0.17865124047E+03  0.00000000000E+00 0. -1.
         11    1    3    3    0    0  0.33015556523E+02 -0.84420157824E+02 -0.12482086494E+03  0.15426288713E+03  0.00000000000E+00 0.  1.
        -11    1    4    4    0    0 -0.52028908254E+02  0.12015827001E+03 -0.12551478056E+03  0.18138075225E+03  0.00000000000E+00 0. -1.
         11    1    4    4    0    0 -0.31533109600E+02  0.65222169824E+02  0.15171868791E+02  0.74016579496E+02  0.00000000000E+00 0.  1.
          1    1    1    2  501    0  0.20784161368E+02 -0.94534864534E+02  0.12594200883E+03  0.15884020764E+03  0.00000000000E+00 0. -1.
<scales pt_clust_5="13000.00000" pt_clust_6="13000.00000" pt_clust_7="13000.00000" pt_clust_8="13000.00000" pt_clust_9="96.79268"></scales>
<clustering>
<clus scale="   90.123">  5  6 -1 -1</clus>
<clus scale="   96.793">  1  9  2 -1</clus>
<clus scale="  108.184">  7  8 -1 -1</clus>
<clus scale="  155.577">  2  5  1 -1</clus>
<clus scale="   96.793">  1  5  2 -1</clus>
</clustering>
</event>
<event>
 9    1  0.1445593E-005  0.9893543E+02  0.7546771E-02  0.1288612E+00
          2   -1    0    0  502    0 -0.00000000000E+00  0.00000000000E+00  0.27456723507E+03  0.27456723507E+03  0.00000000000E+00 0. -1.
         21   -1    0    0  501  502  0.00000000000E+00 -0.00000000000E+00 -0.11125068826E+03  0.11125068826E+03  0.00000000000E+00 0.  1.
         23    2    1    2    0    0 -0.13064817224E+02  0.30123956769E+02  0.12709088797E+03  0.15924472547E+03  0.90159007116E+02 0.  0.
         23    2    1    2    0    0  0.22473778863E+01 -0.50231914172E+02  0.11305872645E+03  0.14641917598E+03  0.78281565901E+02 0.  0.
        -11    1    3    3    0    0 -0.22047891264E+02 -0.15233769217E+02  0.31789813813E+01  0.26986721853E+02  0.00000000000E+00 0.  1.
         11    1    3    3    0    0  0.89830740401E+01  0.45357725986E+02  0.12391190659E+03  0.13225800362E+03  0.00000000000E+00 0. -1.
        -13    1    4    4    0    0 -0.97658448130E+01 -0.66750495345E+02  0.10425479017E+03  0.12417754076E+03  0.00000000000E+00 0.  1.
         13    1    4    4    0    0  0.12013222699E+02  0.16518581173E+02  0.88039362735E+01  0.22241635225E+02  0.00000000000E+00 0. -1.
          2    1    1    2  501    0  0.10817439338E+02  0.20107957403E+02 -0.76833067613E+02  0.80154021880E+02  0.00000000000E+00 0. -1.
<scales pt_clust_5="13000.00000" pt_clust_6="13000.00000" pt_clust_7="13000.00000" pt_clust_8="13000.00000" pt_clust_9="22.83302"></scales>
<clustering>
<clus scale="   22.833">  2  9  1 -1</clus>
<clus scale="   78.282">  7  8 -1 -1</clus>
<clus scale="   88.247">  2  7  1 -1</clus>
<clus scale="   90.159">  5  6 -1 -1</clus>
<clus scale="   22.833">  2  5  1 -1</clus>
</clustering>
</event>
<event>
 9    1  0.1445593E-005  0.9297579E+02  0.7546771E-02  0.1296183E+00
          2   -1    0    0  502    0 -0.00000000000E+00  0.00000000000E+00  0.15951975844E+03  0.15951975844E+03  0.00000000000E+00 0. -1.
         21   -1    0    0  501  502  0.00000000000E+00 -0.00000000000E+00 -0.18346427210E+03  0.18346427210E+03  0.00000000000E+00 0. -1.
         23    2    1    2    0    0  0.61761446595E+01 -0.23314669160E+02  0.10516141585E+03  0.14122552019E+03  0.91126316772E+02 0.  0.
         23    2    1    2    0    0  0.27817514615E+02 -0.62347507273E+00 -0.38691492906E+02  0.10224281326E+03  0.90456389487E+02 0.  0.
        -11    1    3    3    0    0  0.47267814372E+01 -0.56944972488E+02  0.83559495044E+02  0.10122875859E+03  0.00000000000E+00 0. -1.
         11    1    3    3    0    0  0.14493632222E+01  0.33630303328E+02  0.21601920810E+02  0.39996761599E+02  0.00000000000E+00 0.  1.
        -11    1    4    4    0    0  0.53637025982E+02 -0.10131480785E+02  0.22029490687E+00  0.54585950472E+02  0.00000000000E+00 0. -1.
         11    1    4    4    0    0 -0.25819511367E+02  0.95080057127E+01 -0.38911787812E+02  0.47656862786E+02  0.00000000000E+00 0.  1.
          2    1    1    2  501    0 -0.33993659274E+02  0.23938144233E+02 -0.90414436605E+02  0.99515697087E+02  0.00000000000E+00 0. -1.
<scales pt_clust_5="13000.00000" pt_clust_6="13000.00000" pt_clust_7="13000.00000" pt_clust_8="13000.00000" pt_clust_9="41.57648"></scales>
<clustering>
<clus scale="   41.576">  2  9  1 -1</clus>
<clus scale="   90.456">  7  8 -1 -1</clus>
<clus scale="   91.126">  5  6 -1 -1</clus>
<clus scale="   92.319">  2  7  1 -1</clus>
<clus scale="   41.576">  2  5  1 -1</clus>
</clustering>
</event>
<event>
 9    1  0.1445593E-005  0.1122661E+03  0.7546771E-02  0.1257653E+00
         -3   -1    0    0    0  501 -0.00000000000E+00  0.00000000000E+00  0.17931353545E+03  0.17931353545E+03  0.00000000000E+00 0.  1.
         21   -1    0    0  501  502  0.00000000000E+00 -0.00000000000E+00 -0.13804581189E+03  0.13804581189E+03  0.00000000000E+00 0. -1.
         23    2    1    2    0    0  0.46699529865E+02  0.46628437867E+02  0.12034648236E+03  0.16393539895E+03  0.89646427178E+02 0.  0.
         23    2    1    2    0    0 -0.23228222651E+02 -0.47996326823E+02 -0.57815780365E+02  0.12172398570E+03  0.92902457022E+02 0.  0.
        -11    1    3    3    0    0  0.96897765954E+01 -0.23221367842E+02  0.76877797426E+01  0.26310181533E+02  0.00000000000E+00 0. -1.
         11    1    3    3    0    0  0.37009753269E+02  0.69849805708E+02  0.11265870261E+03  0.13762521742E+03  0.00000000000E+00 0.  1.
        -11    1    4    4    0    0 -0.27066913335E+02  0.15686343288E+02  0.55870083223E+01  0.31778826681E+02  0.00000000000E+00 0.  1.
         11    1    4    4    0    0  0.38386906842E+01 -0.63682670111E+02 -0.63402788687E+02  0.89945159024E+02  0.00000000000E+00 0. -1.
         -3    1    1    2    0  502 -0.23471307214E+02  0.13678889566E+01 -0.21262978428E+02  0.31699962684E+02  0.00000000000E+00 0.  1.
<scales pt_clust_5="13000.00000" pt_clust_6="13000.00000" pt_clust_7="13000.00000" pt_clust_8="13000.00000" pt_clust_9="23.51113"></scales>
<clustering>
<clus scale="   23.511">  2  9  1 -1</clus>
<clus scale="   89.646">  5  6 -1 -1</clus>
<clus scale="   92.902">  7  8 -1 -1</clus>
<clus scale="  109.587">  1  5  2 -1</clus>
<clus scale="   23.511">  2  5  1 -1</clus>
</clustering>
</event>
<event>
 9    1  0.1445593E-005  0.1865417E+03  0.7546771E-02  0.1161856E+00
          3   -1    0    0  502    0 -0.00000000000E+00  0.00000000000E+00  0.41576056447E+03  0.41576056447E+03  0.00000000000E+00 0. -1.
         21   -1    0    0  501  502  0.00000000000E+00 -0.00000000000E+00 -0.27326094856E+03  0.27326094856E+03  0.00000000000E+00 0.  1.
         23    2    1    2    0    0 -0.12323523499E+03  0.10794208079E+03  0.32565835897E+03  0.37592106338E+03  0.91787053443E+02 0.  0.
         23    2    1    2    0    0  0.10446380912E+03 -0.11604901683E+03 -0.62319861960E+02  0.19054383404E+03  0.89683475476E+02 0.  0.
        -11    1    3    3    0    0 -0.27259219043E+02 -0.70506425912E+01  0.17132449308E+02  0.32959026125E+02  0.00000000000E+00 0. -1.
         11    1    3    3    0    0 -0.95976015944E+02  0.11499272338E+03  0.30852590966E+03  0.34296203726E+03  0.00000000000E+00 0.  1.
        -11    1    4    4    0    0  0.39530393573E+02  0.51202931613E+01 -0.28419202250E+02  0.48954269217E+02  0.00000000000E+00 0.  1.
         11    1    4    4    0    0  0.64933415550E+02 -0.12116930999E+03 -0.33900659710E+02  0.14158956483E+03  0.00000000000E+00 0. -1.
          3    1    1    2  501    0  0.18771425864E+02  0.81069360364E+01 -0.12083888111E+03  0.12255661560E+03  0.00000000000E+00 0. -1.
<scales pt_clust_5="13000.00000" pt_clust_6="13000.00000" pt_clust_7="13000.00000" pt_clust_8="13000.00000" pt_clust_9="20.44722"></scales>
<clustering>
<clus scale="   20.447">  2  9  1 -1</clus>
<clus scale="   89.683">  7  8 -1 -1</clus>
<clus scale="   91.787">  5  6 -1 -1</clus>
<clus scale="  185.516">  2  7  1 -1</clus>
<clus scale="   20.447">  2  5  1 -1</clus>
</clustering>
</event>
<event>
 9    1  0.1445593E-005  0.9197571E+02  0.7546771E-02  0.1320454E+00
         21   -1    0    0  501  502  0.00000000000E+00  0.00000000000E+00  0.27970510561E+02  0.27970510561E+02  0.00000000000E+00 0. -1.
         -1   -1    0    0    0  501 -0.00000000000E+00 -0.00000000000E+00 -0.31219184380E+03  0.31219184380E+03  0.00000000000E+00 0.  1.
         23    2    1    2    0    0 -0.34480778136E+01 -0.75052818671E+01 -0.15704997010E+03  0.18171006091E+03  0.91025461453E+02 0.  0.
         23    2    1    2    0    0  0.21405979743E+02 -0.14579562618E+02 -0.78535340107E+02  0.10209903858E+03  0.59880167155E+02 0.  0.
        -11    1    4    4    0    0  0.29120117017E+02  0.15474260038E+02 -0.50306929915E+02  0.60151651152E+02  0.00000000000E+00 0. -1.
         11    1    4    4    0    0 -0.77141372748E+01 -0.30053822656E+02 -0.28228410193E+02  0.41947387429E+02  0.00000000000E+00 0.  1.
        -11    1    3    3    0    0 -0.40948089029E+02  0.19216202685E+02 -0.82480711304E+02  0.94069528424E+02  0.00000000000E+00 0.  1.
         11    1    3    3    0    0  0.37500011215E+02 -0.26721484552E+02 -0.74569258794E+02  0.87640532489E+02  0.00000000000E+00 0. -1.
         -1    1    1    2    0  502 -0.17957901929E+02  0.22084844485E+02 -0.48636023031E+02  0.56353254865E+02  0.00000000000E+00 0.  1.
<scales pt_clust_5="13000.00000" pt_clust_6="13000.00000" pt_clust_7="13000.00000" pt_clust_8="13000.00000" pt_clust_9="28.46449"></scales>
<clustering>
<clus scale="   28.464">  1  9  2 -1</clus>
<clus scale="   59.880">  5  6 -1 -1</clus>
<clus scale="   61.315">  1  5  2 -1</clus>
<clus scale="   91.025">  7  8 -1 -1</clus>
<clus scale="   28.464">  1  5  2 -1</clus>
</clustering>
</event>
<event>
 9    1  0.1445593E-005  0.1305392E+03  0.7546771E-02  0.1239949E+00
         -1   -1    0    0    0  501 -0.00000000000E+00  0.00000000000E+00  0.17081837022E+03  0.17081837022E+03  0.00000000000E+00 0.  1.
         21   -1    0    0  501  502  0.00000000000E+00 -0.00000000000E+00 -0.15879379721E+03  0.15879379721E+03  0.00000000000E+00 0. -1.
         23    2    1    2    0    0 -0.30798570398E+02 -0.36517970312E+02  0.69272539019E+02  0.12220577355E+03  0.88619706230E+02 0.  0.
         23    2    1    2    0    0  0.59877091736E+02 -0.14149136751E+02 -0.21222965152E+02  0.13877318888E+03  0.12256475643E+03 0.  0.
        -11    1    3    3    0    0  0.95144930008E+00 -0.46002089528E+02  0.66675387705E+00  0.46016758441E+02  0.00000000000E+00 0. -1.
         11    1    3    3    0    0 -0.31750019698E+02  0.94841192162E+01  0.68605785142E+02  0.76189015108E+02  0.00000000000E+00 0.  1.
        -11    1    4    4    0    0 -0.57429513838E+01  0.39470168763E+02 -0.34822567597E+02  0.52947964331E+02  0.00000000000E+00 0.  1.
         11    1    4    4    0    0  0.65620043120E+02 -0.53619305514E+02  0.13599602445E+02  0.85825224553E+02  0.00000000000E+00 0. -1.
         -1    1    1    2    0  502 -0.29078521338E+02  0.50667107063E+02 -0.36025000856E+02  0.68633204996E+02  0.00000000000E+00 0.  1.
<scales pt_clust_5="13000.00000" pt_clust_6="13000.00000" pt_clust_7="13000.00000" pt_clust_8="13000.00000" pt_clust_9="58.41846"></scales>
<clustering>
<clus scale="   58.418">  2  9  1 -1</clus>
<clus scale="   88.620">  5  6 -1 -1</clus>
<clus scale="   99.357">  1  5  2 -1</clus>
<clus scale="  122.565">  7  8 -1 -1</clus>
<clus scale="   58.418">  2  5  1 -1</clus>
</clustering>
</event>
<event>
 9    1  0.1445593E-005  0.1821820E+03  0.7546771E-02  0.1165899E+00
         21   -1    0    0  501  502  0.00000000000E+00  0.00000000000E+00  0.80833926942E+02  0.80833926942E+02  0.00000000000E+00 0.  1.
         -2   -1    0    0    0  501 -0.00000000000E+00 -0.00000000000E+00 -0.68811439298E+03  0.68811439298E+03  0.00000000000E+00 0.  1.
         23    2    1    2    0    0  0.33864245461E+02  0.12924546112E+03 -0.27880050956E+03  0.32199925692E+03  0.90014559847E+02 0.  0.
         23    2    1    2    0    0 -0.15947827486E+02 -0.19813685207E+03 -0.29744006576E+03  0.36929279090E+03  0.91618924608E+02 0.  0.
        -11    1    4    4    0    0  0.16706527108E+02 -0.15955650285E+03 -0.26321019401E+03  0.30824826339E+03  0.00000000000E+00 0.  1.
         11    1    4    4    0    0 -0.32654354594E+02 -0.38580349223E+02 -0.34229871743E+02  0.61044527516E+02  0.00000000000E+00 0. -1.
        -13    1    3    3    0    0  0.18135856733E+02 -0.85635091676E+01 -0.19724064776E+02  0.28129730180E+02  0.00000000000E+00 0.  1.
         13    1    3    3    0    0  0.15728388729E+02  0.13780897029E+03 -0.25907644479E+03  0.29386952674E+03  0.00000000000E+00 0. -1.
         -2    1    1    2    0  502 -0.17916417975E+02  0.68891390947E+02 -0.31039890714E+02  0.77656272092E+02  0.00000000000E+00 0.  1.
<scales pt_clust_5="13000.00000" pt_clust_6="13000.00000" pt_clust_7="13000.00000" pt_clust_8="13000.00000" pt_clust_9="71.18302"></scales>
<clustering>
<clus scale="   71.183">  1  9  2 -1</clus>
<clus scale="   90.015">  7  8 -1 -1</clus>
<clus scale="   91.619">  5  6 -1 -1</clus>
<clus scale="  181.380">  2  7  1 -1</clus>
<clus scale="   71.183">  1  5  2 -1</clus>
</clustering>
</event>
<event>
 9    1  0.1445593E-005  0.1226241E+03  0.7546771E-02  0.1239389E+00
         -1   -1    0    0    0  501 -0.00000000000E+00  0.00000000000E+00  0.31895235305E+03  0.31895235305E+03  0.00000000000E+00 0.  1.
         21   -1    0    0  501  502  0.00000000000E+00 -0.00000000000E+00 -0.93116193944E+02  0.93116193944E+02  0.00000000000E+00 0.  1.
         23    2    1    2    0    0  0.53773093551E+02  0.46805049836E+02  0.15215671965E+03  0.19134302681E+03  0.91532662459E+02 0.  0.
         23    2    1    2    0    0 -0.71410272063E+02 -0.57939091485E+02  0.11505750191E+03  0.17438783571E+03  0.93362322281E+02 0.  0.
        -11    1    4    4    0    0 -0.49484017863E+02  0.16950361583E+02  0.37436026056E+02  0.64322926150E+02  0.00000000000E+00 0. -1.
         11    1    4    4    0    0 -0.21926254200E+02 -0.74889453068E+02  0.77621475851E+02  0.11006490956E+03  0.00000000000E+00 0.  1.
        -13    1    3    3    0    0  0.22883731747E+02  0.56626766638E+02  0.36325020436E+02  0.71061684389E+02  0.00000000000E+00 0.  1.
         13    1    3    3    0    0  0.30889361804E+02 -0.98217168026E+01  0.11583169921E+03  0.12028134243E+03  0.00000000000E+00 0. -1.
         -1    1    1    2    0  502  0.17637178511E+02  0.11134041649E+02 -0.41378062450E+02  0.46337684463E+02  0.00000000000E+00 0.  1.
<scales pt_clust_5="13000.00000" pt_clust_6="13000.00000" pt_clust_7="13000.00000" pt_clust_8="13000.00000" pt_clust_9="20.85754"></scales>
<clustering>
<clus scale="   20.858">  2  9  1 -1</clus>
<clus scale="   91.533">  7  8 -1 -1</clus>
<clus scale="   93.362">  5  6 -1 -1</clus>
<clus scale="  121.237">  1  7  2 -1</clus>
<clus scale="   20.858">  2  5  1 -1</clus>
</clustering>
</event>
<event>
 9    1  0.1445593E-005  0.1936171E+03  0.7546771E-02  0.1155681E+00
         21   -1    0    0  501  502  0.00000000000E+00  0.00000000000E+00  0.75469207902E+03  0.75469207902E+03  0.00000000000E+00 0.  1.
         -3   -1    0    0    0  501 -0.00000000000E+00 -0.00000000000E+00 -0.30244217847E+03  0.30244217847E+03  0.00000000000E+00 0.  1.
         23    2    1    2    0    0 -0.11973302102E+02 -0.15389128868E+03 -0.12890002422E+03  0.22066808279E+03  0.90847662734E+02 0.  0.
         23    2    1    2    0    0 -0.13516489738E+03  0.21326700702E+03  0.40225647500E+02  0.27275153108E+03  0.94989100544E+02 0.  0.
        -11    1    3    3    0    0 -0.48068803927E+02 -0.54772653927E+02 -0.62654962492E+02  0.96105659844E+02  0.00000000000E+00 0.  1.
         11    1    3    3    0    0  0.36095501826E+02 -0.99118634751E+02 -0.66245061733E+02  0.12456242295E+03  0.00000000000E+00 0. -1.
        -11    1    4    4    0    0  0.44521932829E+01  0.62569927953E+02  0.22155243238E+02  0.66525729699E+02  0.00000000000E+00 0. -1.
         11    1    4    4    0    0 -0.13961709066E+03  0.15069707907E+03  0.18070404262E+02  0.20622580138E+03  0.00000000000E+00 0.  1.
         -3    1    1    2    0  502  0.14713819948E+03 -0.59375718343E+02  0.54092427727E+03  0.56371464361E+03  0.00000000000E+00 0.  1.
<scales pt_clust_5="13000.00000" pt_clust_6="13000.00000" pt_clust_7="13000.00000" pt_clust_8="13000.00000" pt_clust_9="158.66671"></scales>
<clustering>
<clus scale="   90.848">  5  6 -1 -1</clus>
<clus scale="   94.989">  7  8 -1 -1</clus>
<clus scale="  158.667">  1  9  2 -1</clus>
<clus scale="  191.619">  2  5  1 -1</clus>
<clus scale="  158.667">  1  5  2 -1</clus>
</clustering>
</event>
<event>
 9    1  0.1445593E-005  0.9404437E+02  0.7546771E-02  0.1296201E+00
          1   -1    0    0  502    0 -0.00000000000E+00  0.00000000000E+00  0.39350226192E+03  0.39350226192E+03  0.00000000000E+00 0. -1.
         21   -1    0    0  501  502  0.00000000000E+00 -0.00000000000E+00 -0.71289654205E+02  0.71289654205E+02  0.00000000000E+00 0. -1.
         23    2    1    2    0    0  0.54160355946E+02  0.98170044012E+01  0.19417935730E+03  0.21928515832E+03  0.85735874203E+02 0.  0.
         23    2    1    2    0    0  0.31691192022E+02 -0.25242967582E+02  0.12297415947E+03  0.15813374693E+03  0.90786006385E+02 0.  0.
        -13    1    3    3    0    0  0.56024337530E+02  0.41705230676E+02  0.12870153162E+03  0.14643133852E+03  0.00000000000E+00 0. -1.
         13    1    3    3    0    0 -0.18639815839E+01 -0.31888226275E+02  0.65477825684E+02  0.72853819795E+02  0.00000000000E+00 0.  1.
        -13    1    4    4    0    0 -0.27147165331E+02 -0.29824829468E+02  0.47019069183E+02  0.61945798123E+02  0.00000000000E+00 0.  1.
         13    1    4    4    0    0  0.58838357353E+02  0.45818618855E+01  0.75955090291E+02  0.96187948806E+02  0.00000000000E+00 0. -1.
          1    1    1    2  501    0 -0.85851547968E+02  0.15425963181E+02  0.50590909392E+01  0.87373010877E+02  0.00000000000E+00 0. -1.
<scales pt_clust_5="13000.00000" pt_clust_6="13000.00000" pt_clust_7="13000.00000" pt_clust_8="13000.00000" pt_clust_9="87.22642"></scales>
<clustering>
<clus scale="   85.736">  5  6 -1 -1</clus>
<clus scale="   87.226">  2  9  1 -1</clus>
<clus scale="   89.179">  1  5  2 -1</clus>
<clus scale="   90.786">  7  8 -1 -1</clus>
<clus scale="   87.226">  2  5  1 -1</clus>
</clustering>
</event>
<event>
 9    1  0.1445593E-005  0.1073729E+03  0.7546771E-02  0.1268766E+00
         -1   -1    0    0    0  501 -0.00000000000E+00  0.00000000000E+00  0.11827445751E+03  0.11827445751E+03  0.00000000000E+00 0.  1.
         21   -1    0    0  501  502  0.00000000000E+00 -0.00000000000E+00 -0.17072611234E+03  0.17072611234E+03  0.00000000000E+00 0.  1.
         23    2    1    2    0    0 -0.16993318694E+02 -0.41506271449E+02  0.22995626901E+02  0.99165283731E+02  0.85401470661E+02 0.  0.
         23    2    1    2    0    0 -0.33565632889E+01  0.82675320304E+02 -0.71841992135E+02  0.14377004550E+03  0.93070290882E+02 0.  0.
        -11    1    4    4    0    0 -0.27674846801E+02  0.59415233613E+02 -0.85259999489E+02  0.10754224586E+03  0.00000000000E+00 0.  1.
         11    1    4    4    0    0  0.24318283512E+02  0.23260086691E+02  0.13418007353E+02  0.36227799646E+02  0.00000000000E+00 0. -1.
        -13    1    3    3    0    0 -0.10714574594E-01  0.25999370325E+02  0.12216916718E+02  0.28726650104E+02  0.00000000000E+00 0.  1.
         13    1    3    3    0    0 -0.16982604119E+02 -0.67505641775E+02  0.10778710183E+02  0.70438633627E+02  0.00000000000E+00 0. -1.
         -1    1    1    2    0  502  0.20349881983E+02 -0.41169048855E+02 -0.36052895954E+01  0.46065240620E+02  0.00000000000E+00 0.  1.
<scales pt_clust_5="13000.00000" pt_clust_6="13000.00000" pt_clust_7="13000.00000" pt_clust_8="13000.00000" pt_clust_9="45.92396"></scales>
<clustering>
<clus scale="   45.924">  2  9  1 -1</clus>
<clus scale="   85.401">  7  8 -1 -1</clus>
<clus scale="   93.070">  5  6 -1 -1</clus>
<clus scale="  100.798">  1  7  2 -1</clus>
<clus scale="   45.924">  2  5  1 -1</clus>
</clustering>
</event>
<event>
 9    1  0.1445593E-005  0.9181512E+02  0.7546771E-02  0.1299384E+00
          1   -1    0    0  502    0 -0.00000000000E+00  0.00000000000E+00  0.14400467611E+03  0.14400467611E+03  0.00000000000E+00 0. -1.
         21   -1    0    0  501  502  0.00000000000E+00 -0.00000000000E+00 -0.87892666705E+02  0.87892666705E+02  0.00000000000E+00 0.  1.
         23    2    1    2    0    0  0.45826945147E+01 -0.11910770261E+02  0.47534487406E+02  0.10258179011E+03  0.90003492334E+02 0.  0.
         23    2    1    2    0    0 -0.12510448863E+02 -0.17960522020E+02  0.20375136001E+02  0.96234937723E+02  0.91470899140E+02 0.  0.
        -11    1    4    4    0    0 -0.37741747000E+02 -0.43550583827E+02  0.77650099805E+01  0.58149705057E+02  0.00000000000E+00 0. -1.
         11    1    4    4    0    0  0.25231298137E+02  0.25590061807E+02  0.12610126021E+02  0.38085232666E+02  0.00000000000E+00 0.  1.
        -13    1    3    3    0    0  0.46999321684E+01 -0.47633004506E+02  0.67059361801E+01  0.48331791408E+02  0.00000000000E+00 0. -1.
         13    1    3    3    0    0 -0.11723765376E+00  0.35722234245E+02  0.40828551226E+02  0.54249998704E+02  0.00000000000E+00 0.  1.
          1    1    1    2  501    0  0.79277543485E+01  0.29871292281E+02 -0.11797614000E+02  0.33080614983E+02  0.00000000000E+00 0. -1.
<scales pt_clust_5="13000.00000" pt_clust_6="13000.00000" pt_clust_7="13000.00000" pt_clust_8="13000.00000" pt_clust_9="30.90539"></scales>
<clustering>
<clus scale="   30.905">  2  9  1 -1</clus>
<clus scale="   90.003">  7  8 -1 -1</clus>
<clus scale="   90.353">  1  7  2 -1</clus>
<clus scale="   91.471">  5  6 -1 -1</clus>
<clus scale="   30.905">  2  5  1 -1</clus>
</clustering>
</event>
<event>
 9    1  0.1445593E-005  0.1163578E+03  0.7546771E-02  0.1249384E+00
          2   -1    0    0  502    0 -0.00000000000E+00  0.00000000000E+00  0.71090910010E+02  0.71090910010E+02  0.00000000000E+00 0. -1.
         21   -1    0    0  501  502  0.00000000000E+00 -0.00000000000E+00 -0.23313780652E+03  0.23313780652E+03  0.00000000000E+00 0.  1.
         23    2    1    2    0    0  0.75409872831E+02  0.30146091376E+01 -0.50156745513E+02  0.12875627957E+03  0.91469905534E+02 0.  0.
         23    2    1    2    0    0 -0.65169994936E+02 -0.20329228181E+02 -0.10304190407E+03  0.15349648180E+03  0.91011703483E+02 0.  0.
        -11    1    4    4    0    0 -0.21001940831E+02  0.21900113485E+02  0.36321062736E+01  0.30559592361E+02  0.00000000000E+00 0. -1.
         11    1    4    4    0    0 -0.44168054105E+02 -0.42229341665E+02 -0.10667401035E+03  0.12293688944E+03  0.00000000000E+00 0.  1.
        -11    1    3    3    0    0  0.22492093295E+02  0.12159784367E+02 -0.67614713845E+02  0.72287648634E+02  0.00000000000E+00 0.  1.
         11    1    3    3    0    0  0.52917779536E+02 -0.91451752294E+01  0.17457968332E+02  0.56468630932E+02  0.00000000000E+00 0. -1.
          2    1    1    2  501    0 -0.10239877896E+02  0.17314619043E+02 -0.88482469248E+01  0.21975955169E+02  0.00000000000E+00 0. -1.
<scales pt_clust_5="13000.00000" pt_clust_6="13000.00000" pt_clust_7="13000.00000" pt_clust_8="13000.00000" pt_clust_9="20.11595"></scales>
<clustering>
<clus scale="   20.116">  2  9  1 -1</clus>
<clus scale="   91.012">  5  6 -1 -1</clus>
<clus scale="   91.470">  7  8 -1 -1</clus>
<clus scale="  115.998">  2  5  1 -1</clus>
<clus scale="   20.116">  2  5  1 -1</clus>
</clustering>
</event>
<event>
 9    1  0.1445593E-005  0.1117192E+03  0.7546771E-02  0.1258518E+00
         21   -1    0    0  501  502  0.00000000000E+00  0.00000000000E+00  0.66335085327E+02  0.66335085327E+02  0.00000000000E+00 0. -1.
          4   -1    0    0  502    0 -0.00000000000E+00 -0.00000000000E+00 -0.35728380402E+03  0.35728380402E+03  0.00000000000E+00 0. -1.
         23    2    1    2    0    0  0.45892144174E+02  0.21927430316E+02 -0.13621207243E+03  0.17111245075E+03  0.90215525428E+02 0.  0.
         23    2    1    2    0    0 -0.32210444850E+02 -0.85273607634E+02 -0.12720449775E+03  0.18209375310E+03  0.93102361704E+02 0.  0.
        -11    1    4    4    0    0 -0.17438603554E+02 -0.10196973609E+03 -0.12049933004E+03  0.15881442161E+03  0.00000000000E+00 0. -1.
         11    1    4    4    0    0 -0.14771841296E+02  0.16696128454E+02 -0.67051677085E+01  0.23279331490E+02  0.00000000000E+00 0.  1.
        -11    1    3    3    0    0  0.11462097636E+02 -0.33246365332E+02 -0.69809347812E+02  0.78166780233E+02  0.00000000000E+00 0. -1.
         11    1    3    3    0    0  0.34430046538E+02  0.55173795649E+02 -0.66402724621E+02  0.92945670518E+02  0.00000000000E+00 0.  1.
          4    1    1    2  501    0 -0.13681699323E+02  0.63346177318E+02 -0.27532148516E+02  0.70412685498E+02  0.00000000000E+00 0. -1.
<scales pt_clust_5="13000.00000" pt_clust_6="13000.00000" pt_clust_7="13000.00000" pt_clust_8="13000.00000" pt_clust_9="64.80684"></scales>
<clustering>
<clus scale="   64.807">  1  9  2 -1</clus>
<clus scale="   90.216">  7  8 -1 -1</clus>
<clus scale="   93.102">  5  6 -1 -1</clus>
<clus scale="  109.325">  2  7  1 -1</clus>
<clus scale="   64.807">  1  5  2 -1</clus>
</clustering>
</event>
<event>
 9    1  0.1445593E-005  0.1723533E+03  0.7546771E-02  0.1182022E+00
         21   -1    0    0  501  502  0.00000000000E+00  0.00000000000E+00  0.22075301565E+03  0.22075301565E+03  0.00000000000E+00 0. -1.
          1   -1    0    0  502    0 -0.00000000000E+00 -0.00000000000E+00 -0.38381225696E+03  0.38381225696E+03  0.00000000000E+00 0. -1.
         23    2    1    2    0    0 -0.89283663671E+02  0.56407535548E+02 -0.22019976001E+03  0.26036878821E+03  0.90280611978E+02 0.  0.
         23    2    1    2    0    0  0.13057941856E+03 -0.10943443646E+03 -0.50163163082E+02  0.21758182603E+03  0.12569259187E+03 0.  0.
        -11    1    3    3    0    0 -0.17768779957E+02  0.63657321466E+02 -0.90226919154E+02  0.11184310912E+03  0.00000000000E+00 0.  1.
         11    1    3    3    0    0 -0.71514883714E+02 -0.72497859181E+01 -0.12997284086E+03  0.14852567909E+03  0.00000000000E+00 0. -1.
        -11    1    4    4    0    0  0.15145409285E+02  0.26172733604E+02 -0.21739923665E+02  0.37242713216E+02  0.00000000000E+00 0.  1.
         11    1    4    4    0    0  0.11543400927E+03 -0.13560717007E+03 -0.28423239417E+02  0.18033911281E+03  0.00000000000E+00 0. -1.
          1    1    1    2  501    0 -0.41295754887E+02  0.53026900915E+02  0.10730368178E+03  0.12661465838E+03  0.00000000000E+00 0. -1.
<scales pt_clust_5="13000.00000" pt_clust_6="13000.00000" pt_clust_7="13000.00000" pt_clust_8="13000.00000" pt_clust_9="67.21006"></scales>
<clustering>
<clus scale="   67.210">  1  9  2 -1</clus>
<clus scale="   90.281">  5  6 -1 -1</clus>
<clus scale="  125.693">  7  8 -1 -1</clus>
<clus scale="  148.518">  2  5  1 -1</clus>
<clus scale="   67.210">  1  5  2 -1</clus>
</clustering>
</event>
<event>
 9    1  0.1445593E-005  0.2298078E+03  0.7546771E-02  0.1145476E+00
          2   -1    0    0  502    0 -0.00000000000E+00  0.00000000000E+00  0.59845101784E+03  0.59845101784E+03  0.00000000000E+00 0. -1.
         21   -1    0    0  501  502  0.00000000000E+00 -0.00000000000E+00 -0.49578314894E+03  0.49578314894E+03  0.00000000000E+00 0. -1.
         23    2    1    2    0    0  0.82538887135E+02  0.82725184608E+02  0.41872931080E+03  0.44342253345E+03  0.87368091398E+02 0.  0.
         23    2    1    2    0    0  0.13542137496E+03 -0.90947709966E+01  0.88370240175E+02  0.18552344400E+03  0.90487486816E+02 0.  0.
        -11    1    3    3    0    0 -0.18021024850E+02  0.21197302485E+02  0.71250483073E+02  0.76489962135E+02  0.00000000000E+00 0.  1.
         11    1    3    3    0    0  0.10055991198E+03  0.61527882123E+02  0.34747882773E+03  0.36693257132E+03  0.00000000000E+00 0. -1.
        -13    1    4    4    0    0  0.10262997254E+03 -0.95136403203E+01  0.13709314344E+02  0.10397771837E+03  0.00000000000E+00 0. -1.
         13    1    4    4    0    0  0.32791402418E+02  0.41886932365E+00  0.74660925831E+02  0.81545725639E+02  0.00000000000E+00 0.  1.
          2    1    1    2  501    0 -0.21796026210E+03 -0.73630413611E+02 -0.40443168208E+03  0.46528818933E+03  0.00000000000E+00 0. -1.
<scales pt_clust_5="13000.00000" pt_clust_6="13000.00000" pt_clust_7="13000.00000" pt_clust_8="13000.00000" pt_clust_9="211.24310"></scales>
<clustering>
<clus scale="   87.368">  5  6 -1 -1</clus>
<clus scale="   90.487">  7  8 -1 -1</clus>
<clus scale="  145.909">  1  5  2 -1</clus>
<clus scale="  211.243">  2  9  1 -1</clus>
<clus scale="  211.243">  2  5  1 -1</clus>
</clustering>
</event>
<event>
 9    1  0.1445593E-005  0.1094482E+03  0.7546771E-02  0.1264595E+00
         21   -1    0    0  501  502  0.00000000000E+00  0.00000000000E+00  0.75924328544E+02  0.75924328544E+02  0.00000000000E+00 0. -1.
         -2   -1    0    0    0  501 -0.00000000000E+00 -0.00000000000E+00 -0.22476458554E+03  0.22476458554E+03  0.00000000000E+00 0.  1.
         23    2    1    2    0    0  0.54255959135E+02 -0.10324404891E+02 -0.13150460328E+03  0.17296360757E+03  0.97839901991E+02 0.  0.
         23    2    1    2    0    0 -0.39029763319E+02 -0.73742824140E+01 -0.26573538786E+02  0.10261715859E+03  0.90809833207E+02 0.  0.
        -13    1    3    3    0    0  0.12120929504E+02 -0.42110725279E+02 -0.10526321881E+03  0.11402006556E+03  0.00000000000E+00 0. -1.
         13    1    3    3    0    0  0.42135029631E+02  0.31786320388E+02 -0.26241384468E+02  0.58943542010E+02  0.00000000000E+00 0.  1.
        -13    1    4    4    0    0 -0.38577998739E+02 -0.44446586647E+02 -0.28705122777E+02  0.65480876024E+02  0.00000000000E+00 0.  1.
         13    1    4    4    0    0 -0.45176457997E+00  0.37072304233E+02  0.21315839906E+01  0.37136282564E+02  0.00000000000E+00 0. -1.
         -2    1    1    2    0  502 -0.15226195817E+02  0.17698687305E+02  0.92378850756E+01  0.25108147921E+02  0.00000000000E+00 0.  1.
<scales pt_clust_5="13000.00000" pt_clust_6="13000.00000" pt_clust_7="13000.00000" pt_clust_8="13000.00000" pt_clust_9="23.34696"></scales>
<clustering>
<clus scale="   23.347">  1  9  2 -1</clus>
<clus scale="   90.810">  7  8 -1 -1</clus>
<clus scale="   97.840">  5  6 -1 -1</clus>
<clus scale="  103.212">  1  7  2 -1</clus>
<clus scale="   23.347">  1  5  2 -1</clus>
</clustering>
</event>
<event>
 9    1  0.1445593E-005  0.1167887E+03  0.7546771E-02  0.1249455E+00
         21   -1    0    0  501  502  0.00000000000E+00  0.00000000000E+00  0.44860960030E+03  0.44860960030E+03  0.00000000000E+00 0.  1.
         -4   -1    0    0    0  501 -0.00000000000E+00 -0.00000000000E+00 -0.64279134644E+02  0.64279134644E+02  0.00000000000E+00 0.  1.
         23    2    1    2    0    0 -0.33891245294E+02  0.60978963105E+02  0.14982476270E+02  0.11708668802E+03  0.92831931286E+02 0.  0.
         23    2    1    2    0    0  0.18390019148E+02 -0.75962597462E+02  0.28918322299E+03  0.31278887278E+03  0.90007963314E+02 0.  0.
        -11    1    3    3    0    0  0.27826205945E+02  0.44091431391E+02  0.66362206168E+01  0.52558457773E+02  0.00000000000E+00 0.  1.
         11    1    3    3    0    0 -0.61717451238E+02  0.16887531713E+02  0.83462556530E+01  0.64528230242E+02  0.00000000000E+00 0. -1.
        -11    1    4    4    0    0  0.42226029400E+02 -0.29111533039E+02  0.22000946427E+03  0.22590857284E+03  0.00000000000E+00 0. -1.
         11    1    4    4    0    0 -0.23836010251E+02 -0.46851064423E+02  0.69173758717E+02  0.86880299938E+02  0.00000000000E+00 0.  1.
         -4    1    1    2    0  502  0.15501226145E+02  0.14983634357E+02  0.80164766398E+02  0.83013174148E+02  0.00000000000E+00 0.  1.
<scales pt_clust_5="13000.00000" pt_clust_6="13000.00000" pt_clust_7="13000.00000" pt_clust_8="13000.00000" pt_clust_9="21.55916"></scales>
<clustering>
<clus scale="   21.559">  1  9  2 -1</clus>
<clus scale="   90.008">  7  8 -1 -1</clus>
<clus scale="   92.832">  5  6 -1 -1</clus>
<clus scale="  114.557">  1  7  2 -1</clus>
<clus scale="   21.559">  1  5  2 -1</clus>
</clustering>
</event>
<event>
 9    1  0.1445593E-005  0.9287445E+02  0.7546771E-02  0.1298461E+00
         -3   -1    0    0    0  501 -0.00000000000E+00  0.00000000000E+00  0.56923076579E+02  0.56923076579E+02  0.00000000000E+00 0.  1.
         21   -1    0    0  501  502  0.00000000000E+00 -0.00000000000E+00 -0.23838582311E+03  0.23838582311E+03  0.00000000000E+00 0.  1.
         23    2    1    2    0    0  0.12675126450E+02 -0.12921123942E+02 -0.13587422210E+02  0.93386076034E+02  0.90602024702E+02 0.  0.
         23    2    1    2    0    0 -0.35032869163E+01  0.31045418776E+02 -0.13816321017E+03  0.16593084634E+03  0.86416908513E+02 0.  0.
        -11    1    3    3    0    0 -0.21582526039E+02  0.20578696355E+02 -0.30421684494E+02  0.42600082879E+02  0.00000000000E+00 0. -1.
         11    1    3    3    0    0  0.34257652489E+02 -0.33499820298E+02  0.16834262283E+02  0.50785993154E+02  0.00000000000E+00 0.  1.
        -13    1    4    4    0    0  0.17227871851E+00  0.61355652246E+02 -0.92876550145E+02  0.11131306891E+03  0.00000000000E+00 0.  1.
         13    1    4    4    0    0 -0.36755656348E+01 -0.30310233470E+02 -0.45286660023E+02  0.54617777434E+02  0.00000000000E+00 0. -1.
         -3    1    1    2    0  502 -0.91718395335E+01 -0.18124294833E+02 -0.29712114153E+02  0.35991977316E+02  0.00000000000E+00 0.  1.
<scales pt_clust_5="13000.00000" pt_clust_6="13000.00000" pt_clust_7="13000.00000" pt_clust_8="13000.00000" pt_clust_9="20.31287"></scales>
<clustering>
<clus scale="   20.313">  2  9  1 -1</clus>
<clus scale="   86.417">  7  8 -1 -1</clus>
<clus scale="   88.797">  2  7  1 -1</clus>
<clus scale="   90.602">  5  6 -1 -1</clus>
<clus scale="   20.313">  2  5  1 -1</clus>
</clustering>
</event>
<event>
 9    1  0.1445593E-005  0.1144961E+03  0.7546771E-02  0.1263517E+00
          3   -1    0    0  502    0 -0.00000000000E+00  0.00000000000E+00  0.32624884103E+02  0.32624884103E+02  0.00000000000E+00 0. -1.
         21   -1    0    0  501  502  0.00000000000E+00 -0.00000000000E+00 -0.69633784263E+03  0.69633784263E+03  0.00000000000E+00 0. -1.
         23    2    1    2    0    0  0.29205371248E+02 -0.10451517867E+02 -0.16612037874E+03  0.20399508898E+03  0.11426210291E+03 0.  0.
         23    2    1    2    0    0  0.26815042395E+02 -0.24774311412E+02 -0.25349175818E+03  0.27205588061E+03  0.91779723808E+02 0.  0.
        -11    1    3    3    0    0  0.62036152958E+02 -0.75992317778E+01 -0.41336148925E+02  0.74932701842E+02  0.00000000000E+00 0. -1.
         11    1    3    3    0    0 -0.32830781710E+02 -0.28522860895E+01 -0.12478422982E+03  0.12906238714E+03  0.00000000000E+00 0.  1.
        -13    1    4    4    0    0  0.38488254872E+02  0.17947066087E+02 -0.18971656176E+03  0.19441146250E+03  0.00000000000E+00 0.  1.
         13    1    4    4    0    0 -0.11673212477E+02 -0.42721377499E+02 -0.63775196420E+02  0.77644418108E+02  0.00000000000E+00 0. -1.
          3    1    1    2  501    0 -0.56020413643E+02  0.35225829279E+02 -0.24410082161E+03  0.25291175715E+03  0.00000000000E+00 0. -1.
<scales pt_clust_5="13000.00000" pt_clust_6="13000.00000" pt_clust_7="13000.00000" pt_clust_8="13000.00000" pt_clust_9="66.17511"></scales>
<clustering>
<clus scale="   66.175">  2  9  1 -1</clus>
<clus scale="   91.780">  7  8 -1 -1</clus>
<clus scale="   92.071">  2  7  1 -1</clus>
<clus scale="  114.262">  5  6 -1 -1</clus>
<clus scale="   66.175">  2  5  1 -1</clus>
</clustering>
</event>
<event>
 9    1  0.1445593E-005  0.1163804E+03  0.7546771E-02  0.1251227E+00
         21   -1    0    0  501  502  0.00000000000E+00  0.00000000000E+00  0.71053708586E+02  0.71053708586E+02  0.00000000000E+00 0.  1.
          4   -1    0    0  502    0 -0.00000000000E+00 -0.00000000000E+00 -0.36883332751E+03  0.36883332751E+03  0.00000000000E+00 0. -1.
         23    2    1    2    0    0  0.66341260099E+02  0.88760960613E+01 -0.21032658922E+03  0.23902340452E+03  0.91733123266E+02 0.  0.
         23    2    1    2    0    0 -0.81006304106E+02  0.14056296834E+02 -0.11268271330E+03  0.16374901055E+03  0.85771462584E+02 0.  0.
        -11    1    3    3    0    0  0.18334887719E+02 -0.37052290664E+02 -0.11980628336E+03  0.12673825738E+03  0.00000000000E+00 0.  1.
         11    1    3    3    0    0  0.48006372380E+02  0.45928386725E+02 -0.90520305864E+02  0.11228514715E+03  0.00000000000E+00 0. -1.
        -13    1    4    4    0    0 -0.77433111699E+02 -0.23342752742E+02 -0.70818822588E+02  0.10749919314E+03  0.00000000000E+00 0.  1.
         13    1    4    4    0    0 -0.35731924071E+01  0.37399049576E+02 -0.41863890707E+02  0.56249817407E+02  0.00000000000E+00 0. -1.
          4    1    1    2  501    0  0.14665044007E+02 -0.22932392895E+02  0.25229683592E+02  0.37114621025E+02  0.00000000000E+00 0. -1.
<scales pt_clust_5="13000.00000" pt_clust_6="13000.00000" pt_clust_7="13000.00000" pt_clust_8="13000.00000" pt_clust_9="27.22055"></scales>
<clustering>
<clus scale="   27.221">  1  9  2 -1</clus>
<clus scale="   85.771">  7  8 -1 -1</clus>
<clus scale="   91.733">  5  6 -1 -1</clus>
<clus scale="  111.742">  1  7  2 -1</clus>
<clus scale="   27.221">  1  5  2 -1</clus>
</clustering>
</event>
<event>
 9    1  0.1445593E-005  0.2519876E+03  0.7546771E-02  0.1112304E+00
         21   -1    0    0  501  502  0.00000000000E+00  0.00000000000E+00  0.93212061312E+02  0.93212061312E+02  0.00000000000E+00 0. -1.
          2   -1    0    0  502    0 -0.00000000000E+00 -0.00000000000E+00 -0.89986327638E+03  0.89986327638E+03  0.00000000000E+00 0. -1.
         23    2    1    2    0    0  0.21665583125E+03  0.31801065647E+02 -0.45475104153E+03  0.51340989384E+03  0.94022084292E+02 0.  0.
         23    2    1    2    0    0 -0.25524225187E+03 -0.35595156622E+02 -0.34567451008E+03  0.44039629734E+03  0.89679481926E+02 0.  0.
        -11    1    4    4    0    0 -0.15608221620E+03 -0.26890400785E+02 -0.27825261088E+03  0.32017068468E+03  0.00000000000E+00 0.  1.
         11    1    4    4    0    0 -0.99160035663E+02 -0.87047558365E+01 -0.67421899204E+02  0.12022561266E+03  0.00000000000E+00 0. -1.
        -13    1    3    3    0    0  0.17275912141E+03  0.59476950334E+02 -0.31256005780E+03  0.36204559296E+03  0.00000000000E+00 0. -1.
         13    1    3    3    0    0  0.43896709844E+02 -0.27675884687E+02 -0.14219098373E+03  0.15136430088E+03  0.00000000000E+00 0.  1.
          2    1    1    2  501    0  0.38586420616E+02  0.37940909754E+01 -0.62256634608E+01  0.39269146512E+02  0.00000000000E+00 0. -1.
<scales pt_clust_5="13000.00000" pt_clust_6="13000.00000" pt_clust_7="13000.00000" pt_clust_8="13000.00000" pt_clust_9="38.77250"></scales>
<clustering>
<clus scale="   38.773">  1  9  2 -1</clus>
<clus scale="   89.679">  5  6 -1 -1</clus>
<clus scale="   94.022">  7  8 -1 -1</clus>
<clus scale="  250.400">  1  5  2 -1</clus>
<clus scale="   38.773">  1  5  2 -1</clus>
</clustering>
</event>
<event>
 9    1  0.1445593E-005  0.1357880E+03  0.7546771E-02  0.1219226E+00
         -1   -1    0    0    0  501 -0.00000000000E+00  0.00000000000E+00  0.14449829687E+03  0.14449829687E+03  0.00000000000E+00 0.  1.
         21   -1    0    0  501  502  0.00000000000E+00 -0.00000000000E+00 -0.16695265732E+03  0.16695265732E+03  0.00000000000E+00 0.  1.
         23    2    1    2    0    0  0.24027457068E+02  0.10163604003E+03  0.30155378765E+02  0.14197231364E+03  0.91321342767E+02 0.  0.
         23    2    1    2    0    0  0.26297525080E+01 -0.96420839979E+02 -0.34772426154E+02  0.13698287357E+03  0.90836622847E+02 0.  0.
        -11    1    4    4    0    0  0.30172701560E+02 -0.59126540695E+02 -0.55187210971E+02  0.86324782008E+02  0.00000000000E+00 0.  1.
         11    1    4    4    0    0 -0.27542949052E+02 -0.37294299284E+02  0.20414784817E+02  0.50658091562E+02  0.00000000000E+00 0. -1.
        -13    1    3    3    0    0  0.14889609155E+02 -0.14891101525E+02 -0.74702735634E+00  0.21071388547E+02  0.00000000000E+00 0. -1.
         13    1    3    3    0    0  0.91378479128E+01  0.11652714156E+03  0.30902406121E+02  0.12090092509E+03  0.00000000000E+00 0.  1.
         -1    1    1    2    0  502 -0.26657209576E+02 -0.52152000550E+01 -0.17837313064E+02  0.32495766976E+02  0.00000000000E+00 0.  1.
<scales pt_clust_5="13000.00000" pt_clust_6="13000.00000" pt_clust_7="13000.00000" pt_clust_8="13000.00000" pt_clust_9="27.16257"></scales>
<clustering>
<clus scale="   27.163">  2  9  1 -1</clus>
<clus scale="   90.837">  5  6 -1 -1</clus>
<clus scale="   91.321">  7  8 -1 -1</clus>
<clus scale="  135.462">  2  5  1 -1</clus>
<clus scale="   27.163">  2  5  1 -1</clus>
</clustering>
</event>
<event>
 9    1  0.1445593E-005  0.2009074E+03  0.7546771E-02  0.1149090E+00
         21   -1    0    0  501  502  0.00000000000E+00  0.00000000000E+00  0.64915341302E+02  0.64915341302E+02  0.00000000000E+00 0.  1.
          3   -1    0    0  502    0 -0.00000000000E+00 -0.00000000000E+00 -0.84033600822E+03  0.84033600822E+03  0.00000000000E+00 0. -1.
         23    2    1    2    0    0  0.17542114671E+03  0.18084789157E+02 -0.53956876925E+03  0.57513185582E+03  0.92425951545E+02 0.  0.
         23    2    1    2    0    0 -0.18424912571E+03  0.56226097844E+01 -0.20915545237E+03  0.29334077473E+03  0.91232958924E+02 0.  0.
        -11    1    3    3    0    0  0.88465462427E+02 -0.28618844139E+02 -0.18457614188E+03  0.20667251495E+03  0.00000000000E+00 0.  1.
         11    1    3    3    0    0  0.86955684278E+02  0.46703633296E+02 -0.35499262737E+03  0.36845934088E+03  0.00000000000E+00 0. -1.
        -11    1    4    4    0    0 -0.11993385332E+03  0.32344836520E+02 -0.83499264632E+02  0.14967446280E+03  0.00000000000E+00 0.  1.
         11    1    4    4    0    0 -0.64315272396E+02 -0.26722226735E+02 -0.12565618774E+03  0.14366631192E+03  0.00000000000E+00 0. -1.
          3    1    1    2  501    0  0.88279790070E+01 -0.23707398941E+02 -0.26696445291E+02  0.36778718970E+02  0.00000000000E+00 0. -1.
<scales pt_clust_5="13000.00000" pt_clust_6="13000.00000" pt_clust_7="13000.00000" pt_clust_8="13000.00000" pt_clust_9="25.29771"></scales>
<clustering>
<clus scale="   25.298">  1  9  2 -1</clus>
<clus scale="   91.233">  7  8 -1 -1</clus>
<clus scale="   92.426">  5  6 -1 -1</clus>
<clus scale="  200.361">  1  7  2 -1</clus>
<clus scale="   25.298">  1  5  2 -1</clus>
</clustering>
</event>
<event>
 9    1  0.1445593E-005  0.1813081E+03  0.7546771E-02  0.1170640E+00
         21   -1    0    0  501  502  0.00000000000E+00  0.00000000000E+00  0.61423920507E+02  0.61423920507E+02  0.00000000000E+00 0.  1.
          1   -1    0    0  502    0 -0.00000000000E+00 -0.00000000000E+00 -0.63979588437E+03  0.63979588437E+03  0.00000000000E+00 0. -1.
         23    2    1    2    0    0  0.11382835057E+03  0.51637141308E+02 -0.33747084613E+03  0.37963491473E+03  0.12088345105E+03 0.  0.
         23    2    1    2    0    0 -0.13866395937E+03 -0.55319682355E+02 -0.23771847941E+03  0.29627683294E+03  0.94773020407E+02 0.  0.
        -11    1    3    3    0    0  0.12233464690E+03  0.77240164848E+02 -0.30378034340E+03  0.33647333614E+03  0.00000000000E+00 0. -1.
         11    1    3    3    0    0 -0.85062963382E+01 -0.25603023540E+02 -0.33690502732E+02  0.43161578587E+02  0.00000000000E+00 0.  1.
        -13    1    4    4    0    0 -0.10113088408E+03 -0.68113214015E+02 -0.11612236063E+03  0.16837834860E+03  0.00000000000E+00 0.  1.
         13    1    4    4    0    0 -0.37533075286E+02  0.12793531660E+02 -0.12159611878E+03  0.12789848434E+03  0.00000000000E+00 0. -1.
          1    1    1    2  501    0  0.24835608804E+02  0.36825410470E+01 -0.31826383193E+01  0.25308057213E+02  0.00000000000E+00 0. -1.
<scales pt_clust_5="13000.00000" pt_clust_6="13000.00000" pt_clust_7="13000.00000" pt_clust_8="13000.00000" pt_clust_9="25.10714"></scales>
<clustering>
<clus scale="   25.107">  1  9  2 -1</clus>
<clus scale="   94.773">  7  8 -1 -1</clus>
<clus scale="  120.883">  5  6 -1 -1</clus>
<clus scale="  165.051">  1  7  2 -1</clus>
<clus scale="   25.107">  1  5  2 -1</clus>
</clustering>
</event>
<event>
 9    1  0.1445593E-005  0.1005009E+03  0.7546771E-02  0.1279954E+00
         21   -1    0    0  501  502  0.00000000000E+00  0.00000000000E+00  0.21583047843E+03  0.21583047843E+03  0.00000000000E+00 0. -1.
         -3   -1    0    0    0  501 -0.00000000000E+00 -0.00000000000E+00 -0.93431687396E+02  0.93431687396E+02  0.00000000000E+00 0.  1.
         23    2    1    2    0    0 -0.62908986192E+01 -0.30886767146E+02 -0.11816110100E+02  0.96820393931E+02  0.90779956119E+02 0.  0.
         23    2    1    2    0    0 -0.11218777021E+02  0.70044052221E+02  0.12023838236E+03  0.16732830614E+03  0.92246751889E+02 0.  0.
        -13    1    4    4    0    0 -0.30563979772E+02  0.77989465096E+02  0.58570192912E+02  0.10221047414E+03  0.00000000000E+00 0. -1.
         13    1    4    4    0    0  0.19345202751E+02 -0.79454128750E+01  0.61668189446E+02  0.65117832003E+02  0.00000000000E+00 0.  1.
        -13    1    3    3    0    0 -0.46183705579E+02 -0.25992701468E+02 -0.18387048956E+02  0.56094908502E+02  0.00000000000E+00 0.  1.
         13    1    3    3    0    0  0.39892806960E+02 -0.48940656784E+01  0.65709388551E+01  0.40725485429E+02  0.00000000000E+00 0. -1.
         -3    1    1    2    0  502  0.17509675641E+02 -0.39157285075E+02  0.13976518781E+02  0.45113465758E+02  0.00000000000E+00 0.  1.
<scales pt_clust_5="13000.00000" pt_clust_6="13000.00000" pt_clust_7="13000.00000" pt_clust_8="13000.00000" pt_clust_9="42.89386"></scales>
<clustering>
<clus scale="   42.894">  1  9  2 -1</clus>
<clus scale="   90.780">  7  8 -1 -1</clus>
<clus scale="   92.247">  5  6 -1 -1</clus>
<clus scale="   99.156">  2  7  1 -1</clus>
<clus scale="   42.894">  1  5  2 -1</clus>
</clustering>
</event>
<event>
 9    1  0.1445593E-005  0.1644260E+03  0.7546771E-02  0.1183974E+00
          3   -1    0    0  502    0 -0.00000000000E+00  0.00000000000E+00  0.40158444105E+03  0.40158444105E+03  0.00000000000E+00 0. -1.
         21   -1    0    0  501  502  0.00000000000E+00 -0.00000000000E+00 -0.18275500090E+03  0.18275500090E+03  0.00000000000E+00 0.  1.
         23    2    1    2    0    0 -0.10176487789E+03 -0.91693511850E+02  0.32449457959E+03  0.36360290074E+03  0.90258222625E+02 0.  0.
         23    2    1    2    0    0  0.80717549763E+02  0.11002630751E+03 -0.99760895359E+02  0.19220688093E+03  0.91488456377E+02 0.  0.
        -11    1    3    3    0    0 -0.13284698196E+02 -0.71496027154E+02  0.15949130825E+03  0.17528731418E+03  0.00000000000E+00 0.  1.
         11    1    3    3    0    0 -0.88480179690E+02 -0.20197484696E+02  0.16500327134E+03  0.18831558656E+03  0.00000000000E+00 0. -1.
        -11    1    4    4    0    0  0.34762802909E+02  0.65732242295E+02 -0.69688389891E+00  0.74361722616E+02  0.00000000000E+00 0.  1.
         11    1    4    4    0    0  0.45954746854E+02  0.44294065215E+02 -0.99064011460E+02  0.11784515831E+03  0.00000000000E+00 0. -1.
          3    1    1    2  501    0  0.21047328123E+02 -0.18332795660E+02 -0.59042440886E+01  0.28529660287E+02  0.00000000000E+00 0. -1.
<scales pt_clust_5="13000.00000" pt_clust_6="13000.00000" pt_clust_7="13000.00000" pt_clust_8="13000.00000" pt_clust_9="27.91203"></scales>
<clustering>
<clus scale="   27.912">  2  9  1 -1</clus>
<clus scale="   90.258">  5  6 -1 -1</clus>
<clus scale="   91.488">  7  8 -1 -1</clus>
<clus scale="  163.745">  1  5  2 -1</clus>
<clus scale="   27.912">  2  5  1 -1</clus>
</clustering>
</event>
<event>
 9    1  0.1697544E-005  0.1137239E+03  0.7546771E-02  0.1255472E+00
          4   -1    0    0  502    0 -0.00000000000E+00  0.00000000000E+00  0.19071421372E+03  0.19071421372E+03  0.00000000000E+00 0. -1.
         21   -1    0    0  501  502  0.00000000000E+00 -0.00000000000E+00 -0.17710692781E+03  0.17710692781E+03  0.00000000000E+00 0.  1.
         23    2    1    2    0    0  0.42090314722E+02 -0.43329126350E+02  0.10786947517E+03  0.15210368728E+03  0.88604177252E+02 0.  0.
         23    2    1    2    0    0 -0.52155906395E+02  0.83030031244E+02 -0.10743058673E+03  0.17269554498E+03  0.93103145127E+02 0.  0.
        -11    1    3    3    0    0 -0.23450681742E+02  0.30740722913E+01  0.42161734611E+02  0.48342489179E+02  0.00000000000E+00 0.  1.
         11    1    3    3    0    0  0.65540996464E+02 -0.46403198641E+02  0.65707740564E+02  0.10376119810E+03  0.00000000000E+00 0. -1.
        -13    1    4    4    0    0 -0.32632434240E+02  0.10218459002E+02 -0.88637419152E+02  0.95004656426E+02  0.00000000000E+00 0.  1.
         13    1    4    4    0    0 -0.19523472155E+02  0.72811572242E+02 -0.18793167576E+02  0.77690888558E+02  0.00000000000E+00 0. -1.
          4    1    1    2  501    0  0.10065591673E+02 -0.39700904894E+02  0.13168397458E+02  0.43021909264E+02  0.00000000000E+00 0. -1.
<scales pt_clust_5="13000.00000" pt_clust_6="13000.00000" pt_clust_7="13000.00000" pt_clust_8="13000.00000" pt_clust_9="40.95705"></scales>
<clustering>
<clus scale="   40.957">  2  9  1 -1</clus>
<clus scale="   88.604">  5  6 -1 -1</clus>
<clus scale="   93.103">  7  8 -1 -1</clus>
<clus scale="  110.071">  1  5  2 -1</clus>
<clus scale="   40.957">  2  5  1 -1</clus>
</clustering>
</event>
<event>
 9    1  0.1445593E-005  0.9240652E+02  0.7546771E-02  0.1298445E+00
          1   -1    0    0  502    0 -0.00000000000E+00  0.00000000000E+00  0.27637709296E+03  0.27637709296E+03  0.00000000000E+00 0. -1.
         21   -1    0    0  501  502  0.00000000000E+00 -0.00000000000E+00 -0.57593794867E+02  0.57593794867E+02  0.00000000000E+00 0.  1.
         23    2    1    2    0    0  0.16935448377E+02  0.10445595141E+01  0.15308810249E+03  0.17841753926E+03  0.90049712243E+02 0.  0.
         23    2    1    2    0    0  0.24655601750E+02 -0.80934198949E+01  0.59741036475E+02  0.11295107287E+03  0.92279744696E+02 0.  0.
        -11    1    4    4    0    0  0.14484248230E+02  0.36073910726E+02  0.55041597299E+02  0.67384700897E+02  0.00000000000E+00 0.  1.
         11    1    4    4    0    0  0.10171353520E+02 -0.44167330621E+02  0.46994391759E+01  0.45566371977E+02  0.00000000000E+00 0. -1.
        -13    1    3    3    0    0 -0.34608250225E+02  0.12992159525E+02  0.46358711034E+02  0.59292978349E+02  0.00000000000E+00 0. -1.
         13    1    3    3    0    0  0.51543698602E+02 -0.11947600010E+02  0.10672939146E+03  0.11912456091E+03  0.00000000000E+00 0.  1.
          1    1    1    2  501    0 -0.41591050126E+02  0.70488603808E+01  0.59541591268E+01  0.42602275692E+02  0.00000000000E+00 0. -1.
<scales pt_clust_5="13000.00000" pt_clust_6="13000.00000" pt_clust_7="13000.00000" pt_clust_8="13000.00000" pt_clust_9="42.18414"></scales>
<clustering>
<clus scale="   42.184">  2  9  1 -1</clus>
<clus scale="   90.050">  7  8 -1 -1</clus>
<clus scale="   90.180">  1  7  2 -1</clus>
<clus scale="   92.280">  5  6 -1 -1</clus>
<clus scale="   42.184">  2  5  1 -1</clus>
</clustering>
</event>
<event>
 9    1  0.1445593E-005  0.1087335E+03  0.7546771E-02  0.1263401E+00
          1   -1    0    0  502    0 -0.00000000000E+00  0.00000000000E+00  0.92018607925E+03  0.92018607925E+03  0.00000000000E+00 0. -1.
         21   -1    0    0  501  502  0.00000000000E+00 -0.00000000000E+00 -0.21653189531E+02  0.21653189531E+02  0.00000000000E+00 0. -1.
         23    2    1    2    0    0 -0.49556871237E+02 -0.69757391116E+01  0.37618914347E+03  0.39001307952E+03  0.89929895527E+02 0.  0.
         23    2    1    2    0    0  0.75089172067E+02 -0.34123716817E+02  0.29845007851E+03  0.32276410572E+03  0.91112056095E+02 0.  0.
        -13    1    3    3    0    0 -0.65194388152E+02 -0.25371528184E+02  0.33536344097E+03  0.34258234081E+03  0.00000000000E+00 0. -1.
         13    1    3    3    0    0  0.15637516915E+02  0.18395789073E+02  0.40825702495E+02  0.47430738715E+02  0.00000000000E+00 0.  1.
        -13    1    4    4    0    0  0.21512792941E+02  0.18900126312E+01  0.48274093702E+01  0.22128630529E+02  0.00000000000E+00 0.  1.
         13    1    4    4    0    0  0.53576379126E+02 -0.36013729448E+02  0.29362266914E+03  0.30063547519E+03  0.00000000000E+00 0. -1.
          1    1    1    2  501    0 -0.25532300830E+02  0.41099455929E+02  0.22389366774E+03  0.22906208355E+03  0.00000000000E+00 0. -1.
<scales pt_clust_5="13000.00000" pt_clust_6="13000.00000" pt_clust_7="13000.00000" pt_clust_8="13000.00000" pt_clust_9="48.38456"></scales>
<clustering>
<clus scale="   48.385">  2  9  1 -1</clus>
<clus scale="   89.930">  5  6 -1 -1</clus>
<clus scale="   91.112">  7  8 -1 -1</clus>
<clus scale="  107.745">  1  5  2 -1</clus>
<clus scale="   48.385">  2  5  1 -1</clus>
</clustering>
</event>
<event>
 9    1  0.1445593E-005  0.1826093E+03  0.7546771E-02  0.1165571E+00
         21   -1    0    0  501  502  0.00000000000E+00  0.00000000000E+00  0.54195311255E+02  0.54195311255E+02  0.00000000000E+00 0.  1.
          1   -1    0    0  502    0 -0.00000000000E+00 -0.00000000000E+00 -0.89243058085E+03  0.89243058085E+03  0.00000000000E+00 0. -1.
         23    2    1    2    0    0 -0.72573509968E+02 -0.15024772622E+03 -0.50080178670E+03  0.53567181087E+03  0.91107441038E+02 0.  0.
         23    2    1    2    0    0  0.82980186339E+02  0.12358123644E+03 -0.34058258241E+03  0.38215620948E+03  0.88819140241E+02 0.  0.
        -13    1    3    3    0    0 -0.52126268671E+02 -0.14729898874E+03 -0.48532894883E+03  0.50986108749E+03  0.00000000000E+00 0. -1.
         13    1    3    3    0    0 -0.20447241297E+02 -0.29487374815E+01 -0.15472837877E+02  0.25810723379E+02  0.00000000000E+00 0.  1.
        -13    1    4    4    0    0  0.84085194009E+02  0.47507694692E+02 -0.17354812005E+03  0.19861080253E+03  0.00000000000E+00 0.  1.
         13    1    4    4    0    0 -0.11050076700E+01  0.76073541752E+02 -0.16703446236E+03  0.18354540695E+03  0.00000000000E+00 0. -1.
          1    1    1    2  501    0 -0.10406676372E+02  0.26666489775E+02  0.31490995210E+01  0.28797871758E+02  0.00000000000E+00 0. -1.
<scales pt_clust_5="13000.00000" pt_clust_6="13000.00000" pt_clust_7="13000.00000" pt_clust_8="13000.00000" pt_clust_9="28.62517"></scales>
<clustering>
<clus scale="   28.625">  1  9  2 -1</clus>
<clus scale="   88.819">  7  8 -1 -1</clus>
<clus scale="   91.107">  5  6 -1 -1</clus>
<clus scale="  181.478">  1  7  2 -1</clus>
<clus scale="   28.625">  1  5  2 -1</clus>
</clustering>
</event>
<event>
 9    1  0.1445593E-005  0.2083413E+03  0.7546771E-02  0.1174114E+00
          2   -1    0    0  502    0 -0.00000000000E+00  0.00000000000E+00  0.71205658047E+03  0.71205658047E+03  0.00000000000E+00 0. -1.
         21   -1    0    0  501  502  0.00000000000E+00 -0.00000000000E+00 -0.15439143343E+03  0.15439143343E+03  0.00000000000E+00 0. -1.
         23    2    1    2    0    0  0.31189308402E+02  0.27422506284E+02  0.25296445386E+03  0.27219836174E+03  0.91521398621E+02 0.  0.
         23    2    1    2    0    0  0.13158712180E+03 -0.12812568097E+03  0.34339697509E+03  0.39896857818E+03  0.86735708474E+02 0.  0.
        -11    1    4    4    0    0  0.51502934750E+02 -0.33477515826E+02  0.20091711411E+03  0.21009755614E+03  0.00000000000E+00 0.  1.
         11    1    4    4    0    0  0.80084187054E+02 -0.94648165143E+02  0.14247986098E+03  0.18887102204E+03  0.00000000000E+00 0. -1.
        -11    1    3    3    0    0 -0.21779571983E+02  0.40355552514E+02  0.12223582237E+03  0.13055465004E+03  0.00000000000E+00 0.  1.
         11    1    3    3    0    0  0.52968880385E+02 -0.12933046230E+02  0.13072863149E+03  0.14164371170E+03  0.00000000000E+00 0. -1.
          2    1    1    2  501    0 -0.16277643021E+03  0.10070317468E+03 -0.38696281919E+02  0.19528107398E+03  0.00000000000E+00 0. -1.
<scales pt_clust_5="13000.00000" pt_clust_6="13000.00000" pt_clust_7="13000.00000" pt_clust_8="13000.00000" pt_clust_9="189.42814"></scales>
<clustering>
<clus scale="   86.736">  5  6 -1 -1</clus>
<clus scale="   91.521">  7  8 -1 -1</clus>
<clus scale="  100.503">  1  7  2 -1</clus>
<clus scale="  189.428">  2  9  1 -1</clus>
<clus scale="  189.428">  2  5  1 -1</clus>
</clustering>
</event>
<event>
 9    1  0.1445593E-005  0.1389540E+03  0.7546771E-02  0.1214923E+00
         21   -1    0    0  501  502  0.00000000000E+00  0.00000000000E+00  0.55617377270E+02  0.55617377270E+02  0.00000000000E+00 0. -1.
          4   -1    0    0  502    0 -0.00000000000E+00 -0.00000000000E+00 -0.71392853030E+03  0.71392853030E+03  0.00000000000E+00 0. -1.
         23    2    1    2    0    0 -0.50506602122E+02 -0.84013269568E+02 -0.45112917157E+03  0.47055205304E+03  0.91063488038E+02 0.  0.
         23    2    1    2    0    0  0.46652371433E+02  0.11055712665E+03 -0.22184315756E+03  0.26842619961E+03  0.91863573145E+02 0.  0.
        -11    1    4    4    0    0  0.62961016473E+02  0.52907151082E+02 -0.17139178990E+03  0.19010103071E+03  0.00000000000E+00 0. -1.
         11    1    4    4    0    0 -0.16308645041E+02  0.57649975564E+02 -0.50451367659E+02  0.78325168907E+02  0.00000000000E+00 0.  1.
        -11    1    3    3    0    0  0.24950042612E+02 -0.78187434440E+01 -0.74539982393E+02  0.78992698083E+02  0.00000000000E+00 0.  1.
         11    1    3    3    0    0 -0.75456644734E+02 -0.76194526124E+02 -0.37658918918E+03  0.39155935496E+03  0.00000000000E+00 0. -1.
          4    1    1    2  501    0  0.38542306898E+01 -0.26543857078E+02  0.14661176098E+02  0.30567654921E+02  0.00000000000E+00 0. -1.
<scales pt_clust_5="13000.00000" pt_clust_6="13000.00000" pt_clust_7="13000.00000" pt_clust_8="13000.00000" pt_clust_9="26.82222"></scales>
<clustering>
<clus scale="   26.822">  1  9  2 -1</clus>
<clus scale="   91.063">  7  8 -1 -1</clus>
<clus scale="   91.864">  5  6 -1 -1</clus>
<clus scale="  138.426">  2  7  1 -1</clus>
<clus scale="   26.822">  1  5  2 -1</clus>
</clustering>
</event>
<event>
 9    1  0.1445593E-005  0.1451972E+03  0.7546771E-02  0.1206691E+00
         21   -1    0    0  501  502  0.00000000000E+00  0.00000000000E+00  0.49021154931E+03  0.49021154931E+03  0.00000000000E+00 0. -1.
         -3   -1    0    0    0  501 -0.00000000000E+00 -0.00000000000E+00 -0.24431601959E+03  0.24431601959E+03  0.00000000000E+00 0.  1.
         23    2    1    2    0    0  0.10371444942E+03 -0.34514128811E+02 -0.18988688957E+03  0.23768084318E+03  0.92126219282E+02 0.  0.
         23    2    1    2    0    0 -0.12463325633E+03  0.87197495422E+02  0.36447589078E+03  0.40575471395E+03  0.93044941494E+02 0.  0.
        -11    1    4    4    0    0 -0.66117764979E+02  0.56268824732E+02  0.30380910372E+03  0.31597106036E+03  0.00000000000E+00 0. -1.
         11    1    4    4    0    0 -0.58515491353E+02  0.30928670690E+02  0.60666787062E+02  0.89783653587E+02  0.00000000000E+00 0.  1.
        -13    1    3    3    0    0  0.44196823448E+02 -0.19245463005E+02 -0.16411816301E+03  0.17105121595E+03  0.00000000000E+00 0.  1.
         13    1    3    3    0    0  0.59517625967E+02 -0.15268665806E+02 -0.25768726565E+02  0.66629627232E+02  0.00000000000E+00 0. -1.
         -3    1    1    2    0  502  0.20918806917E+02 -0.52683366611E+02  0.71306528506E+02  0.91092011767E+02  0.00000000000E+00 0.  1.
<scales pt_clust_5="13000.00000" pt_clust_6="13000.00000" pt_clust_7="13000.00000" pt_clust_8="13000.00000" pt_clust_9="56.68451"></scales>
<clustering>
<clus scale="   56.685">  1  9  2 -1</clus>
<clus scale="   92.126">  7  8 -1 -1</clus>
<clus scale="   93.045">  5  6 -1 -1</clus>
<clus scale="  144.610">  2  7  1 -1</clus>
<clus scale="   56.685">  1  5  2 -1</clus>
</clustering>
</event>
<event>
 9    1  0.1445593E-005  0.1834356E+03  0.7546771E-02  0.1194838E+00
         21   -1    0    0  501  502  0.00000000000E+00  0.00000000000E+00  0.19653091223E+03  0.19653091223E+03  0.00000000000E+00 0. -1.
          1   -1    0    0  502    0 -0.00000000000E+00 -0.00000000000E+00 -0.81972683352E+03  0.81972683352E+03  0.00000000000E+00 0. -1.
         23    2    1    2    0    0  0.48918845673E+01 -0.19627175879E+01 -0.23945423255E+03  0.25678724883E+03  0.92593622252E+02 0.  0.
         23    2    1    2    0    0  0.11666780733E+03  0.10343810429E+03 -0.51988013127E+03  0.55064595733E+03  0.92869805416E+02 0.  0.
        -11    1    3    3    0    0 -0.21805428805E+02 -0.34557015066E+02 -0.60960172872E+02  0.73388055515E+02  0.00000000000E+00 0.  1.
         11    1    3    3    0    0  0.26697313372E+02  0.32594297478E+02 -0.17849405967E+03  0.18339919331E+03  0.00000000000E+00 0. -1.
        -13    1    4    4    0    0  0.10302891511E+03  0.51086602766E+02 -0.43538042892E+03  0.45031202095E+03  0.00000000000E+00 0. -1.
         13    1    4    4    0    0  0.13638892210E+02  0.52351501521E+02 -0.84499702348E+02  0.10033393638E+03  0.00000000000E+00 0.  1.
          1    1    1    2  501    0 -0.12155969189E+03 -0.10147538670E+03  0.13613844252E+03  0.20882453958E+03  0.00000000000E+00 0. -1.
<scales pt_clust_5="13000.00000" pt_clust_6="13000.00000" pt_clust_7="13000.00000" pt_clust_8="13000.00000" pt_clust_9="158.18924"></scales>
<clustering>
<clus scale="   92.594">  5  6 -1 -1</clus>
<clus scale="   92.744">  2  5  1 -1</clus>
<clus scale="   92.870">  7  8 -1 -1</clus>
<clus scale="  158.189">  1  9  2 -1</clus>
<clus scale="  158.189">  1  5  2 -1</clus>
</clustering>
</event>
<event>
 9    1  0.1445593E-005  0.9395179E+02  0.7546771E-02  0.1294831E+00
         21   -1    0    0  501  502  0.00000000000E+00  0.00000000000E+00  0.14497199860E+03  0.14497199860E+03  0.00000000000E+00 0. -1.
         -1   -1    0    0    0  501 -0.00000000000E+00 -0.00000000000E+00 -0.82384846447E+02  0.82384846447E+02  0.00000000000E+00 0.  1.
         23    2    1    2    0    0  0.79584811851E+01  0.30152473588E+01  0.23967356392E+02  0.96616489863E+02  0.93208812896E+02 0.  0.
         23    2    1    2    0    0 -0.11470195843E+02  0.19775616577E+02  0.48551899532E+02  0.10563254158E+03  0.90985199285E+02 0.  0.
        -11    1    4    4    0    0 -0.38891998255E+02 -0.18738534158E+02  0.92483964815E+01  0.44150345731E+02  0.00000000000E+00 0.  1.
         11    1    4    4    0    0  0.27421802412E+02  0.38514150736E+02  0.39303503050E+02  0.61482195850E+02  0.00000000000E+00 0. -1.
        -13    1    3    3    0    0  0.41131513573E+02 -0.26690897998E+02  0.11259188535E+02  0.50308794173E+02  0.00000000000E+00 0.  1.
         13    1    3    3    0    0 -0.33173032388E+02  0.29706145357E+02  0.12708167857E+02  0.46307695689E+02  0.00000000000E+00 0. -1.
         -1    1    1    2    0  502  0.35117146580E+01 -0.22790863936E+02 -0.99321037682E+01  0.25107813606E+02  0.00000000000E+00 0.  1.
<scales pt_clust_5="13000.00000" pt_clust_6="13000.00000" pt_clust_7="13000.00000" pt_clust_8="13000.00000" pt_clust_9="23.05984"></scales>
<clustering>
<clus scale="   23.060">  1  9  2 -1</clus>
<clus scale="   90.985">  5  6 -1 -1</clus>
<clus scale="   91.746">  1  5  2 -1</clus>
<clus scale="   93.209">  7  8 -1 -1</clus>
<clus scale="   23.060">  1  5  2 -1</clus>
</clustering>
</event>
<event>
 9    1  0.1445593E-005  0.1147153E+03  0.7546771E-02  0.1252706E+00
          1   -1    0    0  502    0 -0.00000000000E+00  0.00000000000E+00  0.23668086741E+03  0.23668086741E+03  0.00000000000E+00 0. -1.
         21   -1    0    0  501  502  0.00000000000E+00 -0.00000000000E+00 -0.24244038219E+03  0.24244038219E+03  0.00000000000E+00 0. -1.
         23    2    1    2    0    0 -0.57261354540E+02  0.46322984450E+02  0.16907082309E+03  0.20592306152E+03  0.91622499608E+02 0.  0.
         23    2    1    2    0    0 -0.17348162900E+01 -0.72831104384E+02 -0.37817685898E+02  0.12168681757E+03  0.89833873622E+02 0.  0.
        -11    1    3    3    0    0 -0.44364041010E+02 -0.19603078783E+02  0.89419009116E+02  0.10172614228E+03  0.00000000000E+00 0.  1.
         11    1    3    3    0    0 -0.12897313530E+02  0.65926063233E+02  0.79651813973E+02  0.10419691924E+03  0.00000000000E+00 0. -1.
        -13    1    4    4    0    0 -0.43730463649E+02 -0.48524332764E+02 -0.10985304312E+02  0.66239272580E+02  0.00000000000E+00 0. -1.
         13    1    4    4    0    0  0.41995647359E+02 -0.24306771620E+02 -0.26832381585E+02  0.55447544988E+02  0.00000000000E+00 0.  1.
          1    1    1    2  501    0  0.58996170830E+02  0.26508119934E+02 -0.13701265197E+03  0.15151137051E+03  0.00000000000E+00 0. -1.
<scales pt_clust_5="13000.00000" pt_clust_6="13000.00000" pt_clust_7="13000.00000" pt_clust_8="13000.00000" pt_clust_9="64.67788"></scales>
<clustering>
<clus scale="   64.678">  2  9  1 -1</clus>
<clus scale="   89.834">  7  8 -1 -1</clus>
<clus scale="   91.622">  5  6 -1 -1</clus>
<clus scale="  113.292">  2  7  1 -1</clus>
<clus scale="   64.678">  2  5  1 -1</clus>
</clustering>
</event>
<event>
 9    1  0.1445593E-005  0.9094543E+02  0.7546771E-02  0.1304180E+00
          1   -1    0    0  502    0 -0.00000000000E+00  0.00000000000E+00  0.24286680612E+03  0.24286680612E+03  0.00000000000E+00 0. -1.
         21   -1    0    0  501  502  0.00000000000E+00 -0.00000000000E+00 -0.20771384158E+03  0.20771384158E+03  0.00000000000E+00 0. -1.
         23    2    1    2    0    0  0.11458871852E+02 -0.77732598773E+00  0.19572520403E+03  0.21561796668E+03  0.89726484838E+02 0.  0.
         23    2    1    2    0    0 -0.33643682345E+02  0.35285015705E+01 -0.19937612108E+02  0.92562423992E+02  0.83820917877E+02 0.  0.
        -11    1    3    3    0    0  0.13537670722E+02 -0.39645425150E+02  0.52326684440E+02  0.67030665880E+02  0.00000000000E+00 0.  1.
         11    1    3    3    0    0 -0.20787988705E+01  0.38868099162E+02  0.14339851959E+03  0.14858730080E+03  0.00000000000E+00 0. -1.
        -13    1    4    4    0    0  0.82011815318E+01 -0.32205395247E+02 -0.17315391954E+02  0.37473586165E+02  0.00000000000E+00 0.  1.
         13    1    4    4    0    0 -0.41844863877E+02  0.35733896817E+02 -0.26222201535E+01  0.55088837827E+02  0.00000000000E+00 0. -1.
          1    1    1    2  501    0  0.22184810494E+02 -0.27511755828E+01 -0.14063462738E+03  0.14240025703E+03  0.00000000000E+00 0. -1.
<scales pt_clust_5="13000.00000" pt_clust_6="13000.00000" pt_clust_7="13000.00000" pt_clust_8="13000.00000" pt_clust_9="22.35475"></scales>
<clustering>
<clus scale="   22.355">  2  9  1 -1</clus>
<clus scale="   83.821">  7  8 -1 -1</clus>
<clus scale="   85.124">  2  7  1 -1</clus>
<clus scale="   89.726">  5  6 -1 -1</clus>
<clus scale="   22.355">  2  5  1 -1</clus>
</clustering>
</event>
<event>
 9    1  0.1954973E-005  0.9199633E+02  0.7546771E-02  0.1298246E+00
         21   -1    0    0  501  502  0.00000000000E+00  0.00000000000E+00  0.21665826790E+03  0.21665826790E+03  0.00000000000E+00 0. -1.
          2   -1    0    0  502    0 -0.00000000000E+00 -0.00000000000E+00 -0.34191952787E+03  0.34191952787E+03  0.00000000000E+00 0. -1.
         23    2    1    2    0    0 -0.99436864847E+01 -0.59486762877E+01 -0.25784860754E+03  0.27385459511E+03  0.91521424805E+02 0.  0.
         23    2    1    2    0    0 -0.83281963441E+01 -0.15269760823E+02 -0.45873866904E+02  0.10407855268E+03  0.91790026765E+02 0.  0.
        -13    1    4    4    0    0 -0.46600246375E+02  0.49684535671E+00 -0.66891661274E+01  0.47080513601E+02  0.00000000000E+00 0.  1.
         13    1    4    4    0    0  0.38272050031E+02 -0.15766606179E+02 -0.39184700776E+02  0.56998039079E+02  0.00000000000E+00 0. -1.
        -13    1    3    3    0    0  0.40634914111E+02  0.22773225914E+01 -0.10309219082E+03  0.11083493245E+03  0.00000000000E+00 0. -1.
         13    1    3    3    0    0 -0.50578600596E+02 -0.82259988791E+01 -0.15475641672E+03  0.16301966266E+03  0.00000000000E+00 0.  1.
          2    1    1    2  501    0  0.18271882829E+02  0.21218437110E+02  0.17846121447E+03  0.18064464799E+03  0.00000000000E+00 0. -1.
<scales pt_clust_5="13000.00000" pt_clust_6="13000.00000" pt_clust_7="13000.00000" pt_clust_8="13000.00000" pt_clust_9="28.00150"></scales>
<clustering>
<clus scale="   28.001">  1  9  2 -1</clus>
<clus scale="   91.521">  7  8 -1 -1</clus>
<clus scale="   91.728">  2  7  1 -1</clus>
<clus scale="   91.790">  5  6 -1 -1</clus>
<clus scale="   28.001">  1  5  2 -1</clus>
</clustering>
</event>
<event>
 9    1  0.1445593E-005  0.1044193E+03  0.7546771E-02  0.1274778E+00
         21   -1    0    0  501  502  0.00000000000E+00  0.00000000000E+00  0.11716646192E+03  0.11716646192E+03  0.00000000000E+00 0. -1.
          2   -1    0    0  502    0 -0.00000000000E+00 -0.00000000000E+00 -0.24141450531E+03  0.24141450531E+03  0.00000000000E+00 0. -1.
         23    2    1    2    0    0 -0.31837749105E+02  0.12776493922E+02 -0.11839434834E+03  0.15230179814E+03  0.89452417137E+02 0.  0.
         23    2    1    2    0    0  0.49556354144E+02  0.34322694966E+01 -0.75593873157E+02  0.13252033627E+03  0.96848299707E+02 0.  0.
        -11    1    4    4    0    0 -0.54725092378E+01  0.20297406499E+02  0.14552118615E+02  0.25567503283E+02  0.00000000000E+00 0.  1.
         11    1    4    4    0    0  0.55028863382E+02 -0.16865137003E+02 -0.90145991773E+02  0.10695283299E+03  0.00000000000E+00 0. -1.
        -13    1    3    3    0    0 -0.15153246026E+02  0.47714101497E+02 -0.37271226585E+02  0.62413145074E+02  0.00000000000E+00 0.  1.
         13    1    3    3    0    0 -0.16684503078E+02 -0.34937607576E+02 -0.81123121756E+02  0.89888653063E+02  0.00000000000E+00 0. -1.
          2    1    1    2  501    0 -0.17718605039E+02 -0.16208763418E+02  0.69740178116E+02  0.73758832825E+02  0.00000000000E+00 0. -1.
<scales pt_clust_5="13000.00000" pt_clust_6="13000.00000" pt_clust_7="13000.00000" pt_clust_8="13000.00000" pt_clust_9="24.01402"></scales>
<clustering>
<clus scale="   24.014">  1  9  2 -1</clus>
<clus scale="   89.452">  7  8 -1 -1</clus>
<clus scale="   96.848">  5  6 -1 -1</clus>
<clus scale="   97.599">  2  7  1 -1</clus>
<clus scale="   24.014">  1  5  2 -1</clus>
</clustering>
</event>
<event>
 9    1  0.3899630E-005  0.1127496E+03  0.7546771E-02  0.1267055E+00
          1   -1    0    0  502    0 -0.00000000000E+00  0.00000000000E+00  0.49902195629E+03  0.49902195629E+03  0.00000000000E+00 0. -1.
         21   -1    0    0  501  502  0.00000000000E+00 -0.00000000000E+00 -0.62804825892E+03  0.62804825892E+03  0.00000000000E+00 0. -1.
         23    2    1    2    0    0  0.70254562683E+01  0.29675733024E+02  0.33787117447E+03  0.35746981787E+03  0.11268422245E+03 0.  0.
         23    2    1    2    0    0  0.25953098683E+01  0.50806287237E+02  0.13066264570E+03  0.16656804739E+03  0.89912029084E+02 0.  0.
        -11    1    4    4    0    0 -0.24623247731E+02 -0.54853942636E+01  0.86275584223E+02  0.89888098834E+02  0.00000000000E+00 0.  1.
         11    1    4    4    0    0  0.27218557599E+02  0.56291681500E+02  0.44387061473E+02  0.76679948553E+02  0.00000000000E+00 0. -1.
        -13    1    3    3    0    0  0.35023380594E+02 -0.14616367933E+02  0.40441754295E+02  0.55459993601E+02  0.00000000000E+00 0.  1.
         13    1    3    3    0    0 -0.27997924325E+02  0.44292100956E+02  0.29742942017E+03  0.30200982427E+03  0.00000000000E+00 0. -1.
          1    1    1    2  501    0 -0.96207661366E+01 -0.80482020260E+02 -0.59756012280E+03  0.60303234995E+03  0.00000000000E+00 0. -1.
<scales pt_clust_5="13000.00000" pt_clust_6="13000.00000" pt_clust_7="13000.00000" pt_clust_8="13000.00000" pt_clust_9="81.05501"></scales>
<clustering>
<clus scale="   81.055">  2  9  1 -1</clus>
<clus scale="   89.912">  5  6 -1 -1</clus>
<clus scale="   89.994">  2  5  1 -1</clus>
<clus scale="  112.684">  7  8 -1 -1</clus>
<clus scale="   81.055">  2  5  1 -1</clus>
</clustering>
</event>
<event>
 9    1  0.1445593E-005  0.1447500E+03  0.7546771E-02  0.1227448E+00
         21   -1    0    0  501  502  0.00000000000E+00  0.00000000000E+00  0.45726247251E+02  0.45726247251E+02  0.00000000000E+00 0. -1.
          1   -1    0    0  502    0 -0.00000000000E+00 -0.00000000000E+00 -0.10306210316E+04  0.10306210316E+04  0.00000000000E+00 0. -1.
         23    2    1    2    0    0 -0.21297415525E+02  0.94728996728E+01 -0.30712093890E+03  0.32123848994E+03  0.91255578302E+02 0.  0.
         23    2    1    2    0    0 -0.36644185348E+02 -0.10562240106E+03 -0.60327011036E+03  0.62037660169E+03  0.91833621029E+02 0.  0.
        -11    1    3    3    0    0  0.35652400739E+02 -0.74295546952E+00 -0.99087258862E+02  0.10530873910E+03  0.00000000000E+00 0. -1.
         11    1    3    3    0    0 -0.56949816264E+02  0.10215855142E+02 -0.20803368004E+03  0.21592975084E+03  0.00000000000E+00 0.  1.
        -13    1    4    4    0    0  0.29714329206E+02 -0.37723010418E+02 -0.15988346846E+03  0.16693918163E+03  0.00000000000E+00 0.  1.
         13    1    4    4    0    0 -0.66358514554E+02 -0.67899390644E+02 -0.44338664190E+03  0.45343742007E+03  0.00000000000E+00 0. -1.
          1    1    1    2  501    0  0.57941600873E+02  0.96149501389E+02 -0.74503735082E+02  0.13473218721E+03  0.00000000000E+00 0. -1.
<scales pt_clust_5="13000.00000" pt_clust_6="13000.00000" pt_clust_7="13000.00000" pt_clust_8="13000.00000" pt_clust_9="111.88902"></scales>
<clustering>
<clus scale="   91.256">  5  6 -1 -1</clus>
<clus scale="   91.834">  7  8 -1 -1</clus>
<clus scale="   94.185">  2  5  1 -1</clus>
<clus scale="  111.889">  1  9  2 -1</clus>
<clus scale="  111.889">  1  5  2 -1</clus>
</clustering>
</event>
<event>
 9    1  0.1445593E-005  0.2391363E+03  0.7546771E-02  0.1120837E+00
          4   -1    0    0  502    0 -0.00000000000E+00  0.00000000000E+00  0.20310288972E+03  0.20310288972E+03  0.00000000000E+00 0. -1.
         21   -1    0    0  501  502  0.00000000000E+00 -0.00000000000E+00 -0.86107244721E+03  0.86107244721E+03  0.00000000000E+00 0. -1.
         23    2    1    2    0    0 -0.79189084268E+02  0.19548895851E+03  0.61321085651E+02  0.23822441825E+03  0.92215800915E+02 0.  0.
         23    2    1    2    0    0  0.12262189929E+03 -0.23196020463E+03 -0.31893454990E+03  0.42159765407E+03  0.84756522327E+02 0.  0.
        -11    1    4    4    0    0  0.60588112245E+01 -0.33719856469E+02 -0.93428834410E+02  0.99512235494E+02  0.00000000000E+00 0.  1.
         11    1    4    4    0    0  0.11656308807E+03 -0.19824034816E+03 -0.22550571549E+03  0.32208541857E+03  0.00000000000E+00 0. -1.
        -11    1    3    3    0    0 -0.90219381164E+02  0.12376854538E+03  0.63073653637E+02  0.16563959474E+03  0.00000000000E+00 0.  1.
         11    1    3    3    0    0  0.11030296895E+02  0.71720413129E+02 -0.17525679863E+01  0.72584823507E+02  0.00000000000E+00 0. -1.
          4    1    1    2  501    0 -0.43432815022E+02  0.36471246124E+02 -0.40035609324E+03  0.40435326462E+03  0.00000000000E+00 0. -1.
<scales pt_clust_5="13000.00000" pt_clust_6="13000.00000" pt_clust_7="13000.00000" pt_clust_8="13000.00000" pt_clust_9="56.71474"></scales>
<clustering>
<clus scale="   56.715">  2  9  1 -1</clus>
<clus scale="   84.757">  5  6 -1 -1</clus>
<clus scale="   92.216">  7  8 -1 -1</clus>
<clus scale="  236.360">  2  5  1 -1</clus>
<clus scale="   56.715">  2  5  1 -1</clus>
</clustering>
</event>
<event>
 9    1  0.1445593E-005  0.1045319E+03  0.7546771E-02  0.1271636E+00
          1   -1    0    0  502    0 -0.00000000000E+00  0.00000000000E+00  0.29749022045E+03  0.29749022045E+03  0.00000000000E+00 0. -1.
         21   -1    0    0  501  502  0.00000000000E+00 -0.00000000000E+00 -0.60292291672E+02  0.60292291672E+02  0.00000000000E+00 0.  1.
         23    2    1    2    0    0  0.46089601148E+02  0.75773410371E+01  0.11873864139E+03  0.15759985090E+03  0.92505030207E+02 0.  0.
         23    2    1    2    0    0 -0.48729461723E+02  0.31365960551E+02  0.11956237791E+03  0.16113440376E+03  0.91163314673E+02 0.  0.
        -11    1    3    3    0    0 -0.23537936214E+02  0.16111907217E+02  0.14613862228E+02  0.32049851242E+02  0.00000000000E+00 0. -1.
         11    1    3    3    0    0  0.69627537361E+02 -0.85345661803E+01  0.10412477916E+03  0.12554999966E+03  0.00000000000E+00 0.  1.
        -11    1    4    4    0    0 -0.18466336193E+02  0.46942827348E+02  0.17255218404E+02  0.53313949150E+02  0.00000000000E+00 0. -1.
         11    1    4    4    0    0 -0.30263125530E+02 -0.15576866797E+02  0.10230715950E+03  0.10782045461E+03  0.00000000000E+00 0.  1.
          1    1    1    2  501    0  0.26398605754E+01 -0.38943301588E+02 -0.11030905181E+01  0.39048257466E+02  0.00000000000E+00 0. -1.
<scales pt_clust_5="13000.00000" pt_clust_6="13000.00000" pt_clust_7="13000.00000" pt_clust_8="13000.00000" pt_clust_9="39.03267"></scales>
<clustering>
<clus scale="   39.033">  2  9  1 -1</clus>
<clus scale="   91.163">  7  8 -1 -1</clus>
<clus scale="   92.505">  5  6 -1 -1</clus>
<clus scale="  103.346">  2  7  1 -1</clus>
<clus scale="   39.033">  2  5  1 -1</clus>
</clustering>
</event>
<event>
 9    1  0.1445593E-005  0.1018413E+03  0.7546771E-02  0.1278131E+00
          3   -1    0    0  502    0 -0.00000000000E+00  0.00000000000E+00  0.58413312043E+02  0.58413312043E+02  0.00000000000E+00 0. -1.
         21   -1    0    0  501  502  0.00000000000E+00 -0.00000000000E+00 -0.31563056383E+03  0.31563056383E+03  0.00000000000E+00 0.  1.
         23    2    1    2    0    0 -0.11633133840E+01  0.37115540770E+02 -0.57468748446E+02  0.11750901773E+03  0.95534263671E+02 0.  0.
         23    2    1    2    0    0 -0.92878135674E+01 -0.10795046219E+02 -0.65670117965E+02  0.11949833778E+03  0.98815443304E+02 0.  0.
        -11    1    3    3    0    0  0.41132026069E+02  0.11817673168E+01 -0.44312958636E+02  0.60472129495E+02  0.00000000000E+00 0. -1.
         11    1    3    3    0    0 -0.42295339453E+02  0.35933773453E+02 -0.13155789810E+02  0.57036888235E+02  0.00000000000E+00 0.  1.
        -13    1    4    4    0    0 -0.86529511558E+01 -0.54285191776E+02 -0.46360079593E+02  0.71909753092E+02  0.00000000000E+00 0.  1.
         13    1    4    4    0    0 -0.63486241165E+00  0.43490145557E+02 -0.19310038372E+02  0.47588584689E+02  0.00000000000E+00 0. -1.
          3    1    1    2  501    0  0.10451126951E+02 -0.26320494550E+02 -0.13407838537E+03  0.13703652036E+03  0.00000000000E+00 0. -1.
<scales pt_clust_5="13000.00000" pt_clust_6="13000.00000" pt_clust_7="13000.00000" pt_clust_8="13000.00000" pt_clust_9="28.31951"></scales>
<clustering>
<clus scale="   28.320">  2  9  1 -1</clus>
<clus scale="   95.534">  5  6 -1 -1</clus>
<clus scale="   98.661">  1  5  2 -1</clus>
<clus scale="   98.815">  7  8 -1 -1</clus>
<clus scale="   28.320">  2  5  1 -1</clus>
</clustering>
</event>
<event>
 9    1  0.1445593E-005  0.1177940E+03  0.7546771E-02  0.1247304E+00
         21   -1    0    0  501  502  0.00000000000E+00  0.00000000000E+00  0.17986834821E+03  0.17986834821E+03  0.00000000000E+00 0. -1.
          2   -1    0    0  502    0 -0.00000000000E+00 -0.00000000000E+00 -0.22486945664E+03  0.22486945664E+03  0.00000000000E+00 0. -1.
         23    2    1    2    0    0  0.25854008188E+02  0.16022720917E+02 -0.30077908873E+02  0.10184662674E+03  0.92427795875E+02 0.  0.
         23    2    1    2    0    0 -0.11005119322E+03 -0.59120966944E+02 -0.92945525065E+02  0.18027752449E+03  0.90854616534E+02 0.  0.
        -11    1    3    3    0    0  0.54935997580E+02  0.29495976801E+02 -0.31306770011E+02  0.69771701470E+02  0.00000000000E+00 0. -1.
         11    1    3    3    0    0 -0.29081989392E+02 -0.13473255884E+02  0.12288611384E+01  0.32074925266E+02  0.00000000000E+00 0.  1.
        -13    1    4    4    0    0 -0.34840214191E+01 -0.43456520055E+02 -0.11069734573E+02  0.44979401553E+02  0.00000000000E+00 0.  1.
         13    1    4    4    0    0 -0.10656717180E+03 -0.15664446889E+02 -0.81875790493E+02  0.13529812294E+03  0.00000000000E+00 0. -1.
          2    1    1    2  501    0  0.84197185031E+02  0.43098246028E+02  0.78022325509E+02  0.12261365363E+03  0.00000000000E+00 0. -1.
<scales pt_clust_5="13000.00000" pt_clust_6="13000.00000" pt_clust_7="13000.00000" pt_clust_8="13000.00000" pt_clust_9="94.58660"></scales>
<clustering>
<clus scale="   90.855">  7  8 -1 -1</clus>
<clus scale="   92.428">  5  6 -1 -1</clus>
<clus scale="   94.587">  1  9  2 -1</clus>
<clus scale="  116.564">  1  7  2 -1</clus>
<clus scale="   94.587">  1  5  2 -1</clus>
</clustering>
</event>
<event>
 9    1  0.1445593E-005  0.1936758E+03  0.7546771E-02  0.1155267E+00
          1   -1    0    0  502    0 -0.00000000000E+00  0.00000000000E+00  0.67021268553E+03  0.67021268553E+03  0.00000000000E+00 0. -1.
         21   -1    0    0  501  502  0.00000000000E+00 -0.00000000000E+00 -0.14216227369E+03  0.14216227369E+03  0.00000000000E+00 0. -1.
         23    2    1    2    0    0 -0.14639649439E+03 -0.10775752914E+03  0.38329204885E+03  0.43417687565E+03  0.92483220020E+02 0.  0.
         23    2    1    2    0    0  0.26842459569E+02  0.16691499092E+03  0.16327891899E+02  0.19303016400E+03  0.91721929389E+02 0.  0.
        -13    1    3    3    0    0 -0.84800328317E+02 -0.74304036885E+02  0.13352273774E+03  0.17475842490E+03  0.00000000000E+00 0.  1.
         13    1    3    3    0    0 -0.61596166076E+02 -0.33453492250E+02  0.24976931111E+03  0.25941845075E+03  0.00000000000E+00 0. -1.
        -13    1    4    4    0    0  0.15404342592E+02  0.31892217005E+02  0.42182107230E+02  0.55079374057E+02  0.00000000000E+00 0.  1.
         13    1    4    4    0    0  0.11438116977E+02  0.13502277392E+03 -0.25854215331E+02  0.13795078995E+03  0.00000000000E+00 0. -1.
          1    1    1    2  501    0  0.11955403482E+03 -0.59157461788E+02  0.12843047110E+03  0.18516791956E+03  0.00000000000E+00 0. -1.
<scales pt_clust_5="13000.00000" pt_clust_6="13000.00000" pt_clust_7="13000.00000" pt_clust_8="13000.00000" pt_clust_9="133.38962"></scales>
<clustering>
<clus scale="   91.722">  7  8 -1 -1</clus>
<clus scale="   92.483">  5  6 -1 -1</clus>
<clus scale="  133.390">  2  9  1 -1</clus>
<clus scale="  193.313">  2  7  1 -1</clus>
<clus scale="  133.390">  2  5  1 -1</clus>
</clustering>
</event>
<event>
 9    1  0.1445593E-005  0.1403724E+03  0.7546771E-02  0.1213272E+00
         -1   -1    0    0    0  501 -0.00000000000E+00  0.00000000000E+00  0.68010912047E+02  0.68010912047E+02  0.00000000000E+00 0.  1.
         21   -1    0    0  501  502  0.00000000000E+00 -0.00000000000E+00 -0.83290505433E+03  0.83290505433E+03  0.00000000000E+00 0.  1.
         23    2    1    2    0    0  0.84301036507E+02 -0.42529613745E+02 -0.12337479838E+03  0.18024504919E+03  0.91386564018E+02 0.  0.
         23    2    1    2    0    0 -0.36089507343E+02  0.15942350905E+03 -0.26842661000E+03  0.32673345718E+03  0.89350989390E+02 0.  0.
        -11    1    3    3    0    0  0.91669155804E+02 -0.36051953266E+01 -0.83911207654E+02  0.12432748019E+03  0.00000000000E+00 0.  1.
         11    1    3    3    0    0 -0.73681192970E+01 -0.38924418418E+02 -0.39463590721E+02  0.55917569008E+02  0.00000000000E+00 0. -1.
        -13    1    4    4    0    0 -0.24123637859E+02  0.83962512624E+02 -0.21888336578E+03  0.23567261454E+03  0.00000000000E+00 0. -1.
         13    1    4    4    0    0 -0.11965869484E+02  0.75460996422E+02 -0.49543244222E+02  0.91060842636E+02  0.00000000000E+00 0.  1.
         -1    1    1    2    0  502 -0.48211529165E+02 -0.11689389530E+03 -0.37309273391E+03  0.39393746001E+03  0.00000000000E+00 0.  1.
<scales pt_clust_5="13000.00000" pt_clust_6="13000.00000" pt_clust_7="13000.00000" pt_clust_8="13000.00000" pt_clust_9="126.44578"></scales>
<clustering>
<clus scale="   89.351">  7  8 -1 -1</clus>
<clus scale="   91.387">  5  6 -1 -1</clus>
<clus scale="  126.446">  2  9  1 -1</clus>
<clus scale="  139.056">  2  7  1 -1</clus>
<clus scale="  126.446">  2  5  1 -1</clus>
</clustering>
</event>
<event>
 9    1  0.1445593E-005  0.1158524E+03  0.7546771E-02  0.1251576E+00
          1   -1    0    0  502    0 -0.00000000000E+00  0.00000000000E+00  0.25310082079E+03  0.25310082079E+03  0.00000000000E+00 0. -1.
         21   -1    0    0  501  502  0.00000000000E+00 -0.00000000000E+00 -0.39215279531E+03  0.39215279531E+03  0.00000000000E+00 0. -1.
         23    2    1    2    0    0  0.63800168978E+02 -0.49336634620E+02  0.19560367422E+03  0.23102263046E+03  0.92769032216E+02 0.  0.
         23    2    1    2    0    0 -0.23766071017E+02  0.21854311552E+02 -0.20628122656E+02  0.96471179771E+02  0.88536613991E+02 0.  0.
        -11    1    4    4    0    0  0.17627728234E+02 -0.10340931801E+02 -0.36370384468E+02  0.41719018919E+02  0.00000000000E+00 0. -1.
         11    1    4    4    0    0 -0.41393799251E+02  0.32195243352E+02  0.15742261812E+02  0.54752160852E+02  0.00000000000E+00 0.  1.
        -13    1    3    3    0    0  0.39885449151E+01 -0.39104135615E+02  0.17799895238E+02  0.43149486477E+02  0.00000000000E+00 0.  1.
         13    1    3    3    0    0  0.59811624063E+02 -0.10232499004E+02  0.17780377899E+03  0.18787314398E+03  0.00000000000E+00 0. -1.
          1    1    1    2  501    0 -0.40034097961E+02  0.27482323068E+02 -0.31402752609E+03  0.31775980586E+03  0.00000000000E+00 0. -1.
<scales pt_clust_5="13000.00000" pt_clust_6="13000.00000" pt_clust_7="13000.00000" pt_clust_8="13000.00000" pt_clust_9="48.55932"></scales>
<clustering>
<clus scale="   48.559">  2  9  1 -1</clus>
<clus scale="   88.537">  5  6 -1 -1</clus>
<clus scale="   92.769">  7  8 -1 -1</clus>
<clus scale="  112.492">  2  5  1 -1</clus>
<clus scale="   48.559">  2  5  1 -1</clus>
</clustering>
</event>
<event>
 9    1  0.1445593E-005  0.1236920E+03  0.7546771E-02  0.1237141E+00
         21   -1    0    0  501  502  0.00000000000E+00  0.00000000000E+00  0.11594375645E+03  0.11594375645E+03  0.00000000000E+00 0.  1.
          2   -1    0    0  502    0 -0.00000000000E+00 -0.00000000000E+00 -0.45930510984E+03  0.45930510984E+03  0.00000000000E+00 0. -1.
         23    2    1    2    0    0  0.31966591472E+02 -0.80374925794E+02 -0.30750225716E+03  0.33259362449E+03  0.92622293362E+02 0.  0.
         23    2    1    2    0    0 -0.69334718392E+02  0.44481097270E+02 -0.10064698997E+03  0.15969612529E+03  0.92666955576E+02 0.  0.
        -11    1    3    3    0    0 -0.26145229507E+02 -0.39418268280E+02 -0.68521492058E+02  0.83262042817E+02  0.00000000000E+00 0.  1.
         11    1    3    3    0    0  0.58111820979E+02 -0.40956657514E+02 -0.23898076510E+03  0.24933158167E+03  0.00000000000E+00 0. -1.
        -11    1    4    4    0    0 -0.83601711744E+02  0.21874079690E+02 -0.43810828684E+02  0.96887100683E+02  0.00000000000E+00 0.  1.
         11    1    4    4    0    0  0.14266993352E+02  0.22607017580E+02 -0.56836161284E+02  0.62809024611E+02  0.00000000000E+00 0. -1.
          2    1    1    2  501    0  0.37368126920E+02  0.35893828524E+02  0.64787893737E+02  0.82959116500E+02  0.00000000000E+00 0. -1.
<scales pt_clust_5="13000.00000" pt_clust_6="13000.00000" pt_clust_7="13000.00000" pt_clust_8="13000.00000" pt_clust_9="51.81451"></scales>
<clustering>
<clus scale="   51.815">  1  9  2 -1</clus>
<clus scale="   92.622">  5  6 -1 -1</clus>
<clus scale="   92.667">  7  8 -1 -1</clus>
<clus scale="  123.659">  2  5  1 -1</clus>
<clus scale="   51.815">  1  5  2 -1</clus>
</clustering>
</event>
<event>
 9    1  0.1445593E-005  0.1227466E+03  0.7546771E-02  0.1240569E+00
         -3   -1    0    0    0  501 -0.00000000000E+00  0.00000000000E+00  0.77500553104E+03  0.77500553104E+03  0.00000000000E+00 0.  1.
         21   -1    0    0  501  502  0.00000000000E+00 -0.00000000000E+00 -0.27589292541E+02  0.27589292541E+02  0.00000000000E+00 0.  1.
         23    2    1    2    0    0 -0.78638504386E+02  0.13381020337E+02  0.40890110549E+03  0.42773064537E+03  0.96903688500E+02 0.  0.
         23    2    1    2    0    0  0.70672061382E+02  0.27650962635E+02  0.26640784420E+03  0.29151821885E+03  0.90832904162E+02 0.  0.
        -11    1    4    4    0    0 -0.13383115461E+02 -0.17120708610E+02  0.33960467623E+02  0.40317983628E+02  0.00000000000E+00 0. -1.
         11    1    4    4    0    0  0.84055176843E+02  0.44771671245E+02  0.23244737658E+03  0.25120023522E+03  0.00000000000E+00 0.  1.
        -13    1    3    3    0    0 -0.59422748412E+02 -0.34872153091E+02  0.28834199543E+03  0.29645950216E+03  0.00000000000E+00 0. -1.
         13    1    3    3    0    0 -0.19215755974E+02  0.48253173429E+02  0.12055911005E+03  0.13127114321E+03  0.00000000000E+00 0.  1.
         -3    1    1    2    0  502  0.79664430031E+01 -0.41031982972E+02  0.72107288815E+02  0.83345959356E+02  0.00000000000E+00 0.  1.
<scales pt_clust_5="13000.00000" pt_clust_6="13000.00000" pt_clust_7="13000.00000" pt_clust_8="13000.00000" pt_clust_9="41.79818"></scales>
<clustering>
<clus scale="   41.798">  2  9  1 -1</clus>
<clus scale="   90.833">  5  6 -1 -1</clus>
<clus scale="   96.904">  7  8 -1 -1</clus>
<clus scale="  118.013">  2  5  1 -1</clus>
<clus scale="   41.798">  2  5  1 -1</clus>
</clustering>
</event>
<event>
 9    1  0.1445593E-005  0.1700462E+03  0.7546771E-02  0.1178483E+00
         21   -1    0    0  501  502  0.00000000000E+00  0.00000000000E+00  0.20332506258E+03  0.20332506258E+03  0.00000000000E+00 0. -1.
         -1   -1    0    0    0  501 -0.00000000000E+00 -0.00000000000E+00 -0.22765067679E+03  0.22765067679E+03  0.00000000000E+00 0.  1.
         23    2    1    2    0    0  0.12981447068E+03 -0.37207602307E+02 -0.51458027794E+02  0.16911776400E+03  0.87844675479E+02 0.  0.
         23    2    1    2    0    0 -0.16428451289E+03 -0.21317856911E+02  0.36434550441E+02  0.19330184555E+03  0.92705311750E+02 0.  0.
        -11    1    3    3    0    0  0.39672546662E+02 -0.26003148642E+01  0.24117583970E+02  0.46500865073E+02  0.00000000000E+00 0. -1.
         11    1    3    3    0    0  0.90141924014E+02 -0.34607287443E+02 -0.75575611764E+02  0.12261689893E+03  0.00000000000E+00 0.  1.
        -11    1    4    4    0    0 -0.12020697665E+03 -0.55178123123E+02  0.12733775810E+02  0.13287773159E+03  0.00000000000E+00 0. -1.
         11    1    4    4    0    0 -0.44077536239E+02  0.33860266212E+02  0.23700774631E+02  0.60424113953E+02  0.00000000000E+00 0.  1.
         -1    1    1    2    0  502  0.34470042214E+02  0.58525459218E+02 -0.93021368526E+01  0.68556129827E+02  0.00000000000E+00 0.  1.
<scales pt_clust_5="13000.00000" pt_clust_6="13000.00000" pt_clust_7="13000.00000" pt_clust_8="13000.00000" pt_clust_9="67.92215"></scales>
<clustering>
<clus scale="   67.922">  1  9  2 -1</clus>
<clus scale="   87.845">  5  6 -1 -1</clus>
<clus scale="   92.705">  7  8 -1 -1</clus>
<clus scale="  167.446">  2  5  1 -1</clus>
<clus scale="   67.922">  1  5  2 -1</clus>
</clustering>
</event>
<event>
 9    1  0.1445593E-005  0.2694147E+03  0.7546771E-02  0.1101715E+00
          3   -1    0    0  502    0 -0.00000000000E+00  0.00000000000E+00  0.16021883389E+04  0.16021883389E+04  0.00000000000E+00 0. -1.
         21   -1    0    0  501  502  0.00000000000E+00 -0.00000000000E+00 -0.79842954041E+02  0.79842954041E+02  0.00000000000E+00 0. -1.
         23    2    1    2    0    0  0.58839133117E+02  0.21893394779E+03  0.79204134863E+03  0.82907492342E+03  0.92960279842E+02 0.  0.
         23    2    1    2    0    0 -0.14447001001E+03 -0.28200717262E+03  0.60161812270E+03  0.68601044081E+03  0.90919360642E+02 0.  0.
        -11    1    3    3    0    0  0.10532811504E+02  0.17961933092E+03  0.63891025399E+03  0.66376227432E+03  0.00000000000E+00 0. -1.
         11    1    3    3    0    0  0.48306321613E+02  0.39314616868E+02  0.15313109464E+03  0.16531264910E+03  0.00000000000E+00 0.  1.
        -13    1    4    4    0    0 -0.18710379251E+02 -0.13227052680E+02  0.10514564142E+03  0.10761337800E+03  0.00000000000E+00 0.  1.
         13    1    4    4    0    0 -0.12575963076E+03 -0.26878011994E+03  0.49647248128E+03  0.57839706281E+03  0.00000000000E+00 0. -1.
          3    1    1    2  501    0  0.85630876890E+02  0.63073224835E+02  0.12868591349E+03  0.16694592867E+03  0.00000000000E+00 0. -1.
<scales pt_clust_5="13000.00000" pt_clust_6="13000.00000" pt_clust_7="13000.00000" pt_clust_8="13000.00000" pt_clust_9="106.35262"></scales>
<clustering>
<clus scale="   90.919">  7  8 -1 -1</clus>
<clus scale="   92.960">  5  6 -1 -1</clus>
<clus scale="  106.353">  2  9  1 -1</clus>
<clus scale="  268.717">  2  7  1 -1</clus>
<clus scale="  106.353">  2  5  1 -1</clus>
</clustering>
</event>
<event>
 9    1  0.1445593E-005  0.1075378E+03  0.7546771E-02  0.1272269E+00
          2   -1    0    0  502    0 -0.00000000000E+00  0.00000000000E+00  0.27858668922E+03  0.27858668922E+03  0.00000000000E+00 0. -1.
         21   -1    0    0  501  502  0.00000000000E+00 -0.00000000000E+00 -0.80905693403E+02  0.80905693403E+02  0.00000000000E+00 0.  1.
         23    2    1    2    0    0 -0.96901602377E+01  0.12739374411E+02  0.17272097346E+03  0.20247564299E+03  0.10443974563E+03 0.  0.
         23    2    1    2    0    0  0.44039244516E+01 -0.50381036661E+02  0.46438427634E+02  0.11335713680E+03  0.90197946195E+02 0.  0.
        -11    1    4    4    0    0  0.18606136149E+01 -0.75728335154E+02  0.24147488243E+02  0.79506879053E+02  0.00000000000E+00 0.  1.
         11    1    4    4    0    0  0.25433108367E+01  0.25347298493E+02  0.22290939391E+02  0.33850257752E+02  0.00000000000E+00 0. -1.
        -13    1    3    3    0    0  0.39159217361E+02  0.21145918732E+02  0.12871822274E+03  0.13619462195E+03  0.00000000000E+00 0. -1.
         13    1    3    3    0    0 -0.48849377599E+02 -0.84065443207E+01  0.44002750721E+02  0.66281021041E+02  0.00000000000E+00 0.  1.
          2    1    1    2  501    0  0.52862357860E+01  0.37641662250E+02 -0.21478405278E+02  0.43659602827E+02  0.00000000000E+00 0. -1.
<scales pt_clust_5="13000.00000" pt_clust_6="13000.00000" pt_clust_7="13000.00000" pt_clust_8="13000.00000" pt_clust_9="38.01104"></scales>
<clustering>
<clus scale="   38.011">  2  9  1 -1</clus>
<clus scale="   90.198">  5  6 -1 -1</clus>
<clus scale="   93.768">  2  5  1 -1</clus>
<clus scale="  104.440">  7  8 -1 -1</clus>
<clus scale="   38.011">  2  5  1 -1</clus>
</clustering>
</event>
<event>
 9    1  0.1445593E-005  0.1075702E+03  0.7546771E-02  0.1265700E+00
          1   -1    0    0  502    0 -0.00000000000E+00  0.00000000000E+00  0.13230495415E+03  0.13230495415E+03  0.00000000000E+00 0. -1.
         21   -1    0    0  501  502  0.00000000000E+00 -0.00000000000E+00 -0.13488692345E+03  0.13488692345E+03  0.00000000000E+00 0.  1.
         23    2    1    2    0    0  0.24823248503E+02 -0.67080473508E+02  0.41576544458E+02  0.12367814744E+03  0.91933081709E+02 0.  0.
         23    2    1    2    0    0 -0.14720195444E+02  0.29202075802E+02 -0.23098601559E+02  0.99012442586E+02  0.90556463093E+02 0.  0.
        -11    1    3    3    0    0 -0.38276283411E+01 -0.67194786423E+02 -0.65992217243E+01  0.67626472542E+02  0.00000000000E+00 0.  1.
         11    1    3    3    0    0  0.28650876844E+02  0.11431291550E+00  0.48175766183E+02  0.56051674896E+02  0.00000000000E+00 0. -1.
        -11    1    4    4    0    0 -0.35732200650E+02 -0.13983174421E+02 -0.32248697789E+02  0.50122827527E+02  0.00000000000E+00 0.  1.
         11    1    4    4    0    0  0.21012005207E+02  0.43185250223E+02  0.91500962299E+01  0.48889615060E+02  0.00000000000E+00 0. -1.
          1    1    1    2  501    0 -0.10103053060E+02  0.37878397705E+02 -0.21059912205E+02  0.44501287576E+02  0.00000000000E+00 0. -1.
<scales pt_clust_5="13000.00000" pt_clust_6="13000.00000" pt_clust_7="13000.00000" pt_clust_8="13000.00000" pt_clust_9="39.20261"></scales>
<clustering>
<clus scale="   39.203">  2  9  1 -1</clus>
<clus scale="   90.556">  7  8 -1 -1</clus>
<clus scale="   91.933">  5  6 -1 -1</clus>
<clus scale="  106.396">  2  7  1 -1</clus>
<clus scale="   39.203">  2  5  1 -1</clus>
</clustering>
</event>
<event>
 9    1  0.1445593E-005  0.2653510E+03  0.7546771E-02  0.1104010E+00
         21   -1    0    0  501  502  0.00000000000E+00  0.00000000000E+00  0.28870860244E+03  0.28870860244E+03  0.00000000000E+00 0.  1.
         -4   -1    0    0    0  501 -0.00000000000E+00 -0.00000000000E+00 -0.45187218592E+03  0.45187218592E+03  0.00000000000E+00 0.  1.
         23    2    1    2    0    0 -0.23940192532E+03 -0.73652224517E+00 -0.20783282931E+03  0.32997126256E+03  0.91502594853E+02 0.  0.
         23    2    1    2    0    0  0.26508696911E+03  0.81566965818E+02 -0.35424815698E+02  0.29395473260E+03  0.90720428499E+02 0.  0.
        -11    1    3    3    0    0 -0.12878295250E+03 -0.39218786526E+02 -0.80008136435E+02  0.15660288620E+03  0.00000000000E+00 0.  1.
         11    1    3    3    0    0 -0.11061897281E+03  0.38482264281E+02 -0.12782469288E+03  0.17336837636E+03  0.00000000000E+00 0. -1.
        -11    1    4    4    0    0  0.13235349907E+03  0.27765343543E+02  0.26688939372E+02  0.13784289065E+03  0.00000000000E+00 0. -1.
         11    1    4    4    0    0  0.13273347004E+03  0.53801622275E+02 -0.62113755070E+02  0.15611184195E+03  0.00000000000E+00 0.  1.
         -4    1    1    2    0  502 -0.25685043792E+02 -0.80830443573E+02  0.80094061534E+02  0.11665479320E+03  0.00000000000E+00 0.  1.
<scales pt_clust_5="13000.00000" pt_clust_6="13000.00000" pt_clust_7="13000.00000" pt_clust_8="13000.00000" pt_clust_9="84.81322"></scales>
<clustering>
<clus scale="   84.813">  1  9  2 -1</clus>
<clus scale="   90.720">  7  8 -1 -1</clus>
<clus scale="   91.503">  5  6 -1 -1</clus>
<clus scale="  265.082">  1  7  2 -1</clus>
<clus scale="   84.813">  1  5  2 -1</clus>
</clustering>
</event>
<event>
 9    1  0.1445593E-005  0.1607538E+03  0.7546771E-02  0.1188241E+00
         21   -1    0    0  501  502  0.00000000000E+00  0.00000000000E+00  0.22324898853E+03  0.22324898853E+03  0.00000000000E+00 0.  1.
          2   -1    0    0  502    0 -0.00000000000E+00 -0.00000000000E+00 -0.21802149723E+03  0.21802149723E+03  0.00000000000E+00 0. -1.
         23    2    1    2    0    0  0.32606217008E+02  0.12564747813E+03 -0.12210362072E+03  0.20016782038E+03  0.91144983267E+02 0.  0.
         23    2    1    2    0    0 -0.70423105500E+01 -0.14383458378E+03  0.87530832627E+02  0.19042381019E+03  0.88665659630E+02 0.  0.
        -11    1    4    4    0    0 -0.25197237889E+02 -0.12875379716E+02 -0.54161371321E+01  0.28809907003E+02  0.00000000000E+00 0. -1.
         11    1    4    4    0    0  0.18154927339E+02 -0.13095920406E+03  0.92946969759E+02  0.16161390318E+03  0.00000000000E+00 0.  1.
        -11    1    3    3    0    0  0.28567123403E+02  0.60464338003E+02 -0.11687040956E+03  0.13465032246E+03  0.00000000000E+00 0. -1.
         11    1    3    3    0    0  0.40390936050E+01  0.65183140125E+02 -0.52332111598E+01  0.65517497913E+02  0.00000000000E+00 0.  1.
          2    1    1    2  501    0 -0.25563906458E+02  0.18187105649E+02  0.39800279384E+02  0.50678855199E+02  0.00000000000E+00 0. -1.
<scales pt_clust_5="13000.00000" pt_clust_6="13000.00000" pt_clust_7="13000.00000" pt_clust_8="13000.00000" pt_clust_9="31.37330"></scales>
<clustering>
<clus scale="   31.373">  1  9  2 -1</clus>
<clus scale="   88.666">  5  6 -1 -1</clus>
<clus scale="   91.145">  7  8 -1 -1</clus>
<clus scale="  159.361">  1  5  2 -1</clus>
<clus scale="   31.373">  1  5  2 -1</clus>
</clustering>
</event>
<event>
 9    1  0.1445593E-005  0.1010542E+03  0.7546771E-02  0.1288345E+00
         -2   -1    0    0    0  501 -0.00000000000E+00  0.00000000000E+00  0.49752913447E+02  0.49752913447E+02  0.00000000000E+00 0.  1.
         21   -1    0    0  501  502  0.00000000000E+00 -0.00000000000E+00 -0.36709507109E+03  0.36709507109E+03  0.00000000000E+00 0.  1.
         23    2    1    2    0    0  0.50928871540E+02  0.30265810423E+02 -0.48034089035E+02  0.11757491286E+03  0.89480820221E+02 0.  0.
         23    2    1    2    0    0 -0.33844143735E+02 -0.23357787601E+00 -0.97319144611E+02  0.12384783719E+03  0.68715283934E+02 0.  0.
        -13    1    4    4    0    0 -0.76523755855E+01  0.29357035889E+02 -0.18120185815E+02  0.35337452402E+02  0.00000000000E+00 0.  1.
         13    1    4    4    0    0 -0.26191768150E+02 -0.29590613765E+02 -0.79198958796E+02  0.88510384793E+02  0.00000000000E+00 0. -1.
        -13    1    3    3    0    0  0.68217051615E+02  0.41910632102E+02 -0.19790791926E+02  0.82472678260E+02  0.00000000000E+00 0.  1.
         13    1    3    3    0    0 -0.17288180076E+02 -0.11644821679E+02 -0.28243297109E+02  0.35102234599E+02  0.00000000000E+00 0. -1.
         -2    1    1    2    0  502 -0.17084727804E+02 -0.30032232547E+02 -0.17198892400E+03  0.17542523449E+03  0.00000000000E+00 0.  1.
<scales pt_clust_5="13000.00000" pt_clust_6="13000.00000" pt_clust_7="13000.00000" pt_clust_8="13000.00000" pt_clust_9="34.55174"></scales>
<clustering>
<clus scale="   34.552">  2  9  1 -1</clus>
<clus scale="   68.715">  5  6 -1 -1</clus>
<clus scale="   83.228">  2  5  1 -1</clus>
<clus scale="   89.481">  7  8 -1 -1</clus>
<clus scale="   34.552">  2  5  1 -1</clus>
</clustering>
</event>
<event>
 9    1  0.1722863E-005  0.4558284E+03  0.7546771E-02  0.1026059E+00
          2   -1    0    0  502    0 -0.00000000000E+00  0.00000000000E+00  0.92695067674E+03  0.92695067674E+03  0.00000000000E+00 0. -1.
         21   -1    0    0  501  502  0.00000000000E+00 -0.00000000000E+00 -0.30168680601E+03  0.30168680601E+03  0.00000000000E+00 0.  1.
         23    2    1    2    0    0 -0.40537410142E+03  0.15847234358E+03  0.54784540290E+03  0.70703577329E+03  0.10160390474E+03 0.  0.
         23    2    1    2    0    0  0.42910934081E+03 -0.18557219676E+03  0.84016851769E+02  0.48497791526E+03  0.97841097350E+02 0.  0.
        -11    1    3    3    0    0 -0.34607914055E+03  0.14241867120E+03  0.40441431144E+03  0.55100343441E+03  0.00000000000E+00 0. -1.
         11    1    3    3    0    0 -0.59294960864E+02  0.16053672380E+02  0.14343109146E+03  0.15603233888E+03  0.00000000000E+00 0.  1.
        -11    1    4    4    0    0  0.57638915564E+02  0.12022599360E+01  0.32048019343E+02  0.65960333233E+02  0.00000000000E+00 0. -1.
         11    1    4    4    0    0  0.37147042524E+03 -0.18677445670E+03  0.51968832426E+02  0.41901758203E+03  0.00000000000E+00 0.  1.
          2    1    1    2  501    0 -0.23735239391E+02  0.27099853179E+02 -0.65983839386E+01  0.36623794203E+02  0.00000000000E+00 0. -1.
<scales pt_clust_5="13000.00000" pt_clust_6="13000.00000" pt_clust_7="13000.00000" pt_clust_8="13000.00000" pt_clust_9="36.02449"></scales>
<clustering>
<clus scale="   36.024">  2  9  1 -1</clus>
<clus scale="   97.841">  7  8 -1 -1</clus>
<clus scale="  101.604">  5  6 -1 -1</clus>
<clus scale="  455.004">  2  7  1 -1</clus>
<clus scale="   36.024">  2  5  1 -1</clus>
</clustering>
</event>
<event>
 9    1  0.1445593E-005  0.9445006E+02  0.7546771E-02  0.1298984E+00
          1   -1    0    0  502    0 -0.00000000000E+00  0.00000000000E+00  0.70888798284E+03  0.70888798284E+03  0.00000000000E+00 0. -1.
         21   -1    0    0  501  502  0.00000000000E+00 -0.00000000000E+00 -0.25462915228E+02  0.25462915228E+02  0.00000000000E+00 0. -1.
         23    2    1    2    0    0 -0.13472011355E+01  0.75938151172E+01  0.33642465177E+03  0.34889175354E+03  0.92110956941E+02 0.  0.
         23    2    1    2    0    0  0.39721545236E+02  0.22921844743E+02  0.31102998414E+03  0.32465069332E+03  0.80964248379E+02 0.  0.
        -11    1    4    4    0    0 -0.24957531827E+02  0.83190317293E+01  0.74804543091E+02  0.79295676747E+02  0.00000000000E+00 0.  1.
         11    1    4    4    0    0  0.64679077063E+02  0.14602813014E+02  0.23622544105E+03  0.24535501657E+03  0.00000000000E+00 0. -1.
        -13    1    3    3    0    0 -0.26969683562E+02 -0.30811528094E+02  0.21748094430E+03  0.22130222599E+03  0.00000000000E+00 0.  1.
         13    1    3    3    0    0  0.25622482426E+02  0.38405343211E+02  0.11894370748E+03  0.12758952755E+03  0.00000000000E+00 0. -1.
          1    1    1    2  501    0 -0.38374344101E+02 -0.30515659860E+02  0.35970431698E+02  0.60808451209E+02  0.00000000000E+00 0. -1.
<scales pt_clust_5="13000.00000" pt_clust_6="13000.00000" pt_clust_7="13000.00000" pt_clust_8="13000.00000" pt_clust_9="49.02852"></scales>
<clustering>
<clus scale="   49.029">  2  9  1 -1</clus>
<clus scale="   80.964">  5  6 -1 -1</clus>
<clus scale="   83.616">  2  5  1 -1</clus>
<clus scale="   92.111">  7  8 -1 -1</clus>
<clus scale="   49.029">  2  5  1 -1</clus>
</clustering>
</event>
<event>
 9    1  0.1445593E-005  0.1996722E+03  0.7546771E-02  0.1150747E+00
         21   -1    0    0  501  502  0.00000000000E+00  0.00000000000E+00  0.81090103431E+03  0.81090103431E+03  0.00000000000E+00 0. -1.
          2   -1    0    0  502    0 -0.00000000000E+00 -0.00000000000E+00 -0.12546511960E+03  0.12546511960E+03  0.00000000000E+00 0. -1.
         23    2    1    2    0    0  0.17237690338E+02  0.17790692166E+03  0.13677452228E+02  0.20470639603E+03  0.98841414057E+02 0.  0.
         23    2    1    2    0    0  0.75105860715E+02 -0.15437943461E+03  0.45261604306E+03  0.49269475195E+03  0.91722058534E+02 0.  0.
        -13    1    4    4    0    0  0.90281124471E+02 -0.88074855090E+02  0.27685218900E+03  0.30422852609E+03  0.00000000000E+00 0. -1.
         13    1    4    4    0    0 -0.15175263756E+02 -0.66304579518E+02  0.17576385406E+03  0.18846622586E+03  0.00000000000E+00 0.  1.
        -13    1    3    3    0    0 -0.11917236136E+02  0.39682722778E+02 -0.36073088940E+02  0.54936388214E+02  0.00000000000E+00 0.  1.
         13    1    3    3    0    0  0.29154926475E+02  0.13822419889E+03  0.49750541168E+02  0.14977000782E+03  0.00000000000E+00 0. -1.
          2    1    1    2  501    0 -0.92343551053E+02 -0.23527487057E+02  0.21914241942E+03  0.23896500593E+03  0.00000000000E+00 0. -1.
<scales pt_clust_5="13000.00000" pt_clust_6="13000.00000" pt_clust_7="13000.00000" pt_clust_8="13000.00000" pt_clust_9="95.29362"></scales>
<clustering>
<clus scale="   91.722">  5  6 -1 -1</clus>
<clus scale="   95.294">  1  9  2 -1</clus>
<clus scale="   98.841">  7  8 -1 -1</clus>
<clus scale="  196.246">  1  5  2 -1</clus>
<clus scale="   95.294">  1  5  2 -1</clus>
</clustering>
</event>
<event>
 9    1  0.1445593E-005  0.9240187E+02  0.7546771E-02  0.1298072E+00
         21   -1    0    0  501  502  0.00000000000E+00  0.00000000000E+00  0.27842329943E+02  0.27842329943E+02  0.00000000000E+00 0. -1.
          2   -1    0    0  502    0 -0.00000000000E+00 -0.00000000000E+00 -0.52205940982E+03  0.52205940982E+03  0.00000000000E+00 0.  1.
         23    2    1    2    0    0  0.11657805049E+02 -0.11872774886E+02 -0.30861017209E+03  0.32183216793E+03  0.89771035389E+02 0.  0.
         23    2    1    2    0    0  0.24061517495E+02  0.18069701630E+02 -0.13116306561E+03  0.16266006293E+03  0.91373275914E+02 0.  0.
        -13    1    3    3    0    0  0.37042670959E+02 -0.28062903080E+02 -0.26369812003E+03  0.26776180554E+03  0.00000000000E+00 0.  1.
         13    1    3    3    0    0 -0.25384865910E+02  0.16190128194E+02 -0.44912052059E+02  0.54070362385E+02  0.00000000000E+00 0. -1.
        -13    1    4    4    0    0  0.39740556364E+02 -0.19143277725E+02 -0.10667147430E+03  0.11543214600E+03  0.00000000000E+00 0.  1.
         13    1    4    4    0    0 -0.15679038869E+02  0.37212979356E+02 -0.24491591316E+02  0.47227916930E+02  0.00000000000E+00 0. -1.
          2    1    1    2  501    0 -0.35719322544E+02 -0.61969267448E+01 -0.54443842179E+02  0.65409508906E+02  0.00000000000E+00 0.  1.
<scales pt_clust_5="13000.00000" pt_clust_6="13000.00000" pt_clust_7="13000.00000" pt_clust_8="13000.00000" pt_clust_9="36.25289"></scales>
<clustering>
<clus scale="   36.253">  1  9  2 -1</clus>
<clus scale="   89.771">  5  6 -1 -1</clus>
<clus scale="   90.818">  2  5  1 -1</clus>
<clus scale="   91.373">  7  8 -1 -1</clus>
<clus scale="   36.253">  1  5  2 -1</clus>
</clustering>
</event>
<event>
 9    1  0.1445593E-005  0.1144378E+03  0.7546771E-02  0.1254092E+00
         21   -1    0    0  501  502  0.00000000000E+00  0.00000000000E+00  0.10451513577E+03  0.10451513577E+03  0.00000000000E+00 0. -1.
         -2   -1    0    0    0  501 -0.00000000000E+00 -0.00000000000E+00 -0.26646865740E+03  0.26646865740E+03  0.00000000000E+00 0.  1.
         23    2    1    2    0    0 -0.34850361885E+02 -0.45117158142E+02 -0.11496208825E+03  0.15935339342E+03  0.94483419602E+02 0.  0.
         23    2    1    2    0    0  0.49234675160E+02  0.77100196801E+02  0.25543512717E+02  0.13106277823E+03  0.90313272609E+02 0.  0.
        -11    1    4    4    0    0  0.15858309631E+02  0.50563829945E+02  0.57186321140E+02  0.77964493256E+02  0.00000000000E+00 0. -1.
         11    1    4    4    0    0  0.33376365529E+02  0.26536366856E+02 -0.31642808423E+02  0.53098284970E+02  0.00000000000E+00 0.  1.
        -13    1    3    3    0    0 -0.26713456970E+02  0.24998874274E+02 -0.22221073119E+02  0.42805707432E+02  0.00000000000E+00 0. -1.
         13    1    3    3    0    0 -0.81369049154E+01 -0.70116032416E+02 -0.92741015127E+02  0.11654768599E+03  0.00000000000E+00 0.  1.
         -2    1    1    2    0  502 -0.14384313275E+02 -0.31983038659E+02 -0.72534946106E+02  0.80567621517E+02  0.00000000000E+00 0.  1.
<scales pt_clust_5="13000.00000" pt_clust_6="13000.00000" pt_clust_7="13000.00000" pt_clust_8="13000.00000" pt_clust_9="35.06885"></scales>
<clustering>
<clus scale="   35.069">  1  9  2 -1</clus>
<clus scale="   90.313">  5  6 -1 -1</clus>
<clus scale="   94.483">  7  8 -1 -1</clus>
<clus scale="  111.020">  1  5  2 -1</clus>
<clus scale="   35.069">  1  5  2 -1</clus>
</clustering>
</event>
<event>
 9    1  0.1445593E-005  0.1133819E+03  0.7546771E-02  0.1255186E+00
         -2   -1    0    0    0  501 -0.00000000000E+00  0.00000000000E+00  0.33636067448E+03  0.33636067448E+03  0.00000000000E+00 0.  1.
         21   -1    0    0  501  502  0.00000000000E+00 -0.00000000000E+00 -0.10115209873E+03  0.10115209873E+03  0.00000000000E+00 0. -1.
         23    2    1    2    0    0  0.56703521768E+02  0.99456335198E+01  0.21619013524E+03  0.24267467186E+03  0.94013918011E+02 0.  0.
         23    2    1    2    0    0 -0.79044302105E+02 -0.47416021014E+01  0.69165104595E+02  0.13969392370E+03  0.91978780925E+02 0.  0.
        -11    1    3    3    0    0 -0.20200960277E+01 -0.30972536921E+02  0.29855115569E+02  0.43066306516E+02  0.00000000000E+00 0.  1.
         11    1    3    3    0    0  0.58723617795E+02  0.40918170441E+02  0.18633501967E+03  0.19960836534E+03  0.00000000000E+00 0. -1.
        -13    1    4    4    0    0 -0.67266058677E+02 -0.36996105565E+02  0.71986912140E+02  0.10524043898E+03  0.00000000000E+00 0.  1.
         13    1    4    4    0    0 -0.11778243428E+02  0.32254503463E+02 -0.28218075452E+01  0.34453484726E+02  0.00000000000E+00 0. -1.
         -2    1    1    2    0  502  0.22340780337E+02 -0.52040314184E+01 -0.50146664083E+02  0.55144177641E+02  0.00000000000E+00 0.  1.
<scales pt_clust_5="13000.00000" pt_clust_6="13000.00000" pt_clust_7="13000.00000" pt_clust_8="13000.00000" pt_clust_9="22.93888"></scales>
<clustering>
<clus scale="   22.939">  2  9  1 -1</clus>
<clus scale="   91.979">  7  8 -1 -1</clus>
<clus scale="   94.014">  5  6 -1 -1</clus>
<clus scale="  111.700">  2  7  1 -1</clus>
<clus scale="   22.939">  2  5  1 -1</clus>
</clustering>
</event>
<event>
 9    1  0.1445593E-005  0.2013304E+03  0.7546771E-02  0.1174036E+00
         -1   -1    0    0    0  501 -0.00000000000E+00  0.00000000000E+00  0.55141934527E+03  0.55141934527E+03  0.00000000000E+00 0.  1.
         21   -1    0    0  501  502  0.00000000000E+00 -0.00000000000E+00 -0.12043959070E+03  0.12043959070E+03  0.00000000000E+00 0.  1.
         23    2    1    2    0    0 -0.69664229898E+02  0.38519908061E+02  0.16553875363E+03  0.19962679722E+03  0.78172187949E+02 0.  0.
         23    2    1    2    0    0  0.21597304105E+03 -0.20709007691E+02  0.11313952551E+03  0.26029055291E+03  0.88754730819E+02 0.  0.
        -11    1    4    4    0    0  0.18626915266E+03  0.14912062080E+02  0.10069691030E+03  0.21226972129E+03  0.00000000000E+00 0.  1.
         11    1    4    4    0    0  0.29703888387E+02 -0.35621069772E+02  0.12442615201E+02  0.48020831626E+02  0.00000000000E+00 0. -1.
        -13    1    3    3    0    0 -0.78184507111E+00  0.41749476514E+02  0.50784838450E+02  0.65747470577E+02  0.00000000000E+00 0. -1.
         13    1    3    3    0    0 -0.68882384827E+02 -0.32295684536E+01  0.11475391518E+03  0.13387932664E+03  0.00000000000E+00 0.  1.
         -1    1    1    2    0  502 -0.14630881115E+03 -0.17810900369E+02  0.15230147542E+03  0.21194158584E+03  0.00000000000E+00 0.  1.
<scales pt_clust_5="13000.00000" pt_clust_6="13000.00000" pt_clust_7="13000.00000" pt_clust_8="13000.00000" pt_clust_9="180.71126"></scales>
<clustering>
<clus scale="   78.172">  7  8 -1 -1</clus>
<clus scale="   88.755">  5  6 -1 -1</clus>
<clus scale="  111.570">  1  7  2 -1</clus>
<clus scale="  180.711">  2  9  1 -1</clus>
<clus scale="  180.711">  2  5  1 -1</clus>
</clustering>
</event>
<event>
 9    1  0.1445593E-005  0.1115750E+03  0.7546771E-02  0.1262920E+00
          4   -1    0    0  502    0 -0.00000000000E+00  0.00000000000E+00  0.16946863086E+03  0.16946863086E+03  0.00000000000E+00 0. -1.
         21   -1    0    0  501  502  0.00000000000E+00 -0.00000000000E+00 -0.14734189849E+03  0.14734189849E+03  0.00000000000E+00 0.  1.
         23    2    1    2    0    0  0.11940895268E+02 -0.41754336829E+02  0.40522563284E+02  0.11100704612E+03  0.93778870378E+02 0.  0.
         23    2    1    2    0    0 -0.55072101425E+02  0.89662307657E+02 -0.39046180511E+02  0.13811366456E+03  0.80489218876E+02 0.  0.
        -11    1    4    4    0    0 -0.35186729024E+02  0.92750133150E+02 -0.54089819465E+02  0.11298850237E+03  0.00000000000E+00 0.  1.
         11    1    4    4    0    0 -0.19885372401E+02 -0.30878254933E+01  0.15043638954E+02  0.25125162184E+02  0.00000000000E+00 0. -1.
        -13    1    3    3    0    0  0.39385261024E+02  0.10585428640E+02  0.30816758620E+02  0.51116755543E+02  0.00000000000E+00 0.  1.
         13    1    3    3    0    0 -0.27444365756E+02 -0.52339765470E+02  0.97058046646E+01  0.59890290577E+02  0.00000000000E+00 0. -1.
          4    1    1    2  501    0  0.43131206157E+02 -0.47907970828E+02  0.20650349598E+02  0.67689818672E+02  0.00000000000E+00 0. -1.
<scales pt_clust_5="13000.00000" pt_clust_6="13000.00000" pt_clust_7="13000.00000" pt_clust_8="13000.00000" pt_clust_9="64.46300"></scales>
<clustering>
<clus scale="   64.463">  2  9  1 -1</clus>
<clus scale="   80.489">  5  6 -1 -1</clus>
<clus scale="   93.779">  7  8 -1 -1</clus>
<clus scale="  100.663">  2  5  1 -1</clus>
<clus scale="   64.463">  2  5  1 -1</clus>
</clustering>
</event>
<event>
 9    1  0.1445593E-005  0.1899915E+03  0.7546771E-02  0.1158582E+00
         21   -1    0    0  501  502  0.00000000000E+00  0.00000000000E+00  0.62780568906E+02  0.62780568906E+02  0.00000000000E+00 0.  1.
          1   -1    0    0  502    0 -0.00000000000E+00 -0.00000000000E+00 -0.69146105736E+03  0.69146105736E+03  0.00000000000E+00 0. -1.
         23    2    1    2    0    0  0.15291265437E+03 -0.33793291230E+02 -0.29618585171E+03  0.34749620066E+03  0.92213254570E+02 0.  0.
         23    2    1    2    0    0 -0.17655303308E+03  0.17585624498E+02 -0.31593607719E+03  0.37364343381E+03  0.91178852168E+02 0.  0.
        -11    1    3    3    0    0  0.12364327707E+03 -0.45860096882E+02 -0.15835217521E+03  0.20607333609E+03  0.00000000000E+00 0.  1.
         11    1    3    3    0    0  0.29269377295E+02  0.12066805652E+02 -0.13783367650E+03  0.14142286457E+03  0.00000000000E+00 0. -1.
        -11    1    4    4    0    0 -0.25611644509E+02 -0.31427482253E+02 -0.71931375258E+02  0.82569762757E+02  0.00000000000E+00 0.  1.
         11    1    4    4    0    0 -0.15094138857E+03  0.49013106752E+02 -0.24400470193E+03  0.29107367106E+03  0.00000000000E+00 0. -1.
          1    1    1    2  501    0  0.23640378711E+02  0.16207666731E+02 -0.16558559553E+02  0.33101991797E+02  0.00000000000E+00 0. -1.
<scales pt_clust_5="13000.00000" pt_clust_6="13000.00000" pt_clust_7="13000.00000" pt_clust_8="13000.00000" pt_clust_9="28.66280"></scales>
<clustering>
<clus scale="   28.663">  1  9  2 -1</clus>
<clus scale="   91.179">  7  8 -1 -1</clus>
<clus scale="   92.213">  5  6 -1 -1</clus>
<clus scale="  189.492">  1  7  2 -1</clus>
<clus scale="   28.663">  1  5  2 -1</clus>
</clustering>
</event>
<event>
 9    1  0.1445593E-005  0.9714978E+02  0.7546771E-02  0.1286726E+00
         21   -1    0    0  501  502  0.00000000000E+00  0.00000000000E+00  0.56089286855E+03  0.56089286855E+03  0.00000000000E+00 0.  1.
          3   -1    0    0  502    0 -0.00000000000E+00 -0.00000000000E+00 -0.31780001738E+02  0.31780001738E+02  0.00000000000E+00 0. -1.
         23    2    1    2    0    0  0.93812930209E+01 -0.36086980618E+02  0.76863465042E+02  0.12503402444E+03  0.91297514644E+02 0.  0.
         23    2    1    2    0    0 -0.59825397602E+01  0.10200476065E+02  0.34117100503E+03  0.35353331196E+03  0.91914675101E+02 0.  0.
        -13    1    4    4    0    0  0.58410758351E+01  0.50257648467E+02  0.17239059140E+03  0.17966208670E+03  0.00000000000E+00 0. -1.
         13    1    4    4    0    0 -0.11823615595E+02 -0.40057172401E+02  0.16878041363E+03  0.17387122526E+03  0.00000000000E+00 0.  1.
        -13    1    3    3    0    0  0.40229850342E+02 -0.50347343267E+02  0.53937879394E+02  0.84039220999E+02  0.00000000000E+00 0.  1.
         13    1    3    3    0    0 -0.30848557321E+02  0.14260362650E+02  0.22925585647E+02  0.40994803439E+02  0.00000000000E+00 0. -1.
          3    1    1    2  501    0 -0.33987532607E+01  0.25886504552E+02  0.11107839674E+03  0.11410553389E+03  0.00000000000E+00 0. -1.
<scales pt_clust_5="13000.00000" pt_clust_6="13000.00000" pt_clust_7="13000.00000" pt_clust_8="13000.00000" pt_clust_9="26.10867"></scales>
<clustering>
<clus scale="   26.109">  1  9  2 -1</clus>
<clus scale="   91.298">  7  8 -1 -1</clus>
<clus scale="   91.915">  5  6 -1 -1</clus>
<clus scale="   96.566">  2  7  1 -1</clus>
<clus scale="   26.109">  1  5  2 -1</clus>
</clustering>
</event>
<event>
 9    1  0.1445593E-005  0.1580117E+03  0.7546771E-02  0.1194258E+00
         21   -1    0    0  501  502  0.00000000000E+00  0.00000000000E+00  0.30080216885E+03  0.30080216885E+03  0.00000000000E+00 0. -1.
          2   -1    0    0  502    0 -0.00000000000E+00 -0.00000000000E+00 -0.11926737310E+03  0.11926737310E+03  0.00000000000E+00 0. -1.
         23    2    1    2    0    0 -0.10314883514E+03  0.50127442802E+02 -0.24796477101E+01  0.15157304171E+03  0.99074697120E+02 0.  0.
         23    2    1    2    0    0  0.13053729982E+03 -0.58470008500E+02  0.13824152629E+03  0.21450681283E+03  0.80272813706E+02 0.  0.
        -11    1    4    4    0    0  0.10678527923E+03 -0.16586458001E+02  0.62738193941E+02  0.12495714236E+03  0.00000000000E+00 0. -1.
         11    1    4    4    0    0  0.23752020595E+02 -0.41883550498E+02  0.75503332351E+02  0.89549670467E+02  0.00000000000E+00 0.  1.
        -13    1    3    3    0    0 -0.83158577122E+02 -0.13375612078E+02  0.60967035269E+01  0.84447769310E+02  0.00000000000E+00 0.  1.
         13    1    3    3    0    0 -0.19990258013E+02  0.63503054880E+02 -0.85763512370E+01  0.67125272403E+02  0.00000000000E+00 0. -1.
          2    1    1    2  501    0 -0.27388464685E+02  0.83425656975E+01  0.45772917171E+02  0.53989687410E+02  0.00000000000E+00 0. -1.
<scales pt_clust_5="13000.00000" pt_clust_6="13000.00000" pt_clust_7="13000.00000" pt_clust_8="13000.00000" pt_clust_9="28.63086"></scales>
<clustering>
<clus scale="   28.631">  1  9  2 -1</clus>
<clus scale="   80.273">  5  6 -1 -1</clus>
<clus scale="   99.075">  7  8 -1 -1</clus>
<clus scale="  146.955">  1  5  2 -1</clus>
<clus scale="   28.631">  1  5  2 -1</clus>
</clustering>
</event>
<event>
 9    1  0.1445593E-005  0.1258063E+03  0.7546771E-02  0.1234533E+00
         -1   -1    0    0    0  501 -0.00000000000E+00  0.00000000000E+00  0.10869179043E+03  0.10869179043E+03  0.00000000000E+00 0.  1.
         21   -1    0    0  501  502  0.00000000000E+00 -0.00000000000E+00 -0.45324864171E+03  0.45324864171E+03  0.00000000000E+00 0.  1.
         23    2    1    2    0    0  0.50627792012E+01 -0.91435258335E+02  0.15303740871E+02  0.12844629653E+03  0.88759272233E+02 0.  0.
         23    2    1    2    0    0  0.42928286609E+02  0.74622341391E+02 -0.79494578691E+02  0.14855393474E+03  0.91310195808E+02 0.  0.
        -13    1    3    3    0    0 -0.38699475569E+02 -0.46668309097E+02 -0.89993287653E+01  0.61290850879E+02  0.00000000000E+00 0. -1.
         13    1    3    3    0    0  0.43762254770E+02 -0.44766949238E+02  0.24303069636E+02  0.67155445649E+02  0.00000000000E+00 0.  1.
        -13    1    4    4    0    0  0.49786370565E+02  0.10629380539E+01 -0.19866248083E+02  0.53614180439E+02  0.00000000000E+00 0.  1.
         13    1    4    4    0    0 -0.68580839557E+01  0.73559403337E+02 -0.59628330608E+02  0.94939754297E+02  0.00000000000E+00 0. -1.
         -1    1    1    2    0  502 -0.47991065810E+02  0.16812916943E+02 -0.28036601346E+03  0.28494020088E+03  0.00000000000E+00 0.  1.
<scales pt_clust_5="13000.00000" pt_clust_6="13000.00000" pt_clust_7="13000.00000" pt_clust_8="13000.00000" pt_clust_9="50.85093"></scales>
<clustering>
<clus scale="   50.851">  2  9  1 -1</clus>
<clus scale="   88.759">  5  6 -1 -1</clus>
<clus scale="   91.310">  7  8 -1 -1</clus>
<clus scale="  123.967">  1  5  2 -1</clus>
<clus scale="   50.851">  2  5  1 -1</clus>
</clustering>
</event>
<event>
 9    1  0.1445593E-005  0.1075170E+03  0.7546771E-02  0.1266151E+00
         21   -1    0    0  501  502  0.00000000000E+00  0.00000000000E+00  0.17969071119E+03  0.17969071119E+03  0.00000000000E+00 0. -1.
         -1   -1    0    0    0  501 -0.00000000000E+00 -0.00000000000E+00 -0.22835824089E+03  0.22835824089E+03  0.00000000000E+00 0.  1.
         23    2    1    2    0    0 -0.42693542555E+02  0.37094978749E+02 -0.18417647343E+03  0.21391038802E+03  0.92940328772E+02 0.  0.
         23    2    1    2    0    0  0.52079759561E+01 -0.42682523658E+02  0.10679826841E+03  0.14659183717E+03  0.90743461193E+02 0.  0.
        -11    1    3    3    0    0 -0.57063645374E+02  0.54184406270E+02 -0.17035273733E+03  0.18764931287E+03  0.00000000000E+00 0.  1.
         11    1    3    3    0    0  0.14370102818E+02 -0.17089427521E+02 -0.13823736103E+02  0.26261075146E+02  0.00000000000E+00 0. -1.
        -13    1    4    4    0    0  0.41692578475E+02 -0.34611628506E+02  0.91235522981E+02  0.10611388496E+03  0.00000000000E+00 0. -1.
         13    1    4    4    0    0 -0.36484602518E+02 -0.80708951511E+01  0.15562745426E+02  0.40477952205E+02  0.00000000000E+00 0.  1.
         -1    1    1    2    0  502  0.37485566599E+02  0.55875449081E+01  0.28710675325E+02  0.47546726901E+02  0.00000000000E+00 0.  1.
<scales pt_clust_5="13000.00000" pt_clust_6="13000.00000" pt_clust_7="13000.00000" pt_clust_8="13000.00000" pt_clust_9="37.89971"></scales>
<clustering>
<clus scale="   37.900">  1  9  2 -1</clus>
<clus scale="   90.743">  7  8 -1 -1</clus>
<clus scale="   92.940">  5  6 -1 -1</clus>
<clus scale="  105.624">  1  7  2 -1</clus>
<clus scale="   37.900">  1  5  2 -1</clus>
</clustering>
</event>
<event>
 9    1  0.1445593E-005  0.1030549E+03  0.7546771E-02  0.1274674E+00
         21   -1    0    0  501  502  0.00000000000E+00  0.00000000000E+00  0.34342443157E+02  0.34342443157E+02  0.00000000000E+00 0. -1.
          1   -1    0    0  502    0 -0.00000000000E+00 -0.00000000000E+00 -0.61600560328E+03  0.61600560328E+03  0.00000000000E+00 0. -1.
         23    2    1    2    0    0  0.35351170588E+02 -0.25615541340E+02 -0.40853880652E+03  0.42076118078E+03  0.90720193998E+02 0.  0.
         23    2    1    2    0    0 -0.70083720603E+02  0.14894761191E+02 -0.12977503190E+03  0.17301435599E+03  0.89212256276E+02 0.  0.
        -13    1    4    4    0    0 -0.59471373231E+02 -0.13551233100E+02 -0.12894268626E+03  0.14264184692E+03  0.00000000000E+00 0. -1.
         13    1    4    4    0    0 -0.10612347373E+02  0.28445994291E+02 -0.83234563798E+00  0.30372509070E+02  0.00000000000E+00 0.  1.
        -13    1    3    3    0    0  0.51522673701E+02  0.16609879650E+02 -0.25604475219E+03  0.26170477475E+03  0.00000000000E+00 0. -1.
         13    1    3    3    0    0 -0.16171503113E+02 -0.42225420990E+02 -0.15249405434E+03  0.15905640603E+03  0.00000000000E+00 0.  1.
          1    1    1    2  501    0  0.34732550016E+02  0.10720780149E+02 -0.43349321697E+02  0.56572509660E+02  0.00000000000E+00 0. -1.
<scales pt_clust_5="13000.00000" pt_clust_6="13000.00000" pt_clust_7="13000.00000" pt_clust_8="13000.00000" pt_clust_9="36.34949"></scales>
<clustering>
<clus scale="   36.349">  1  9  2 -1</clus>
<clus scale="   89.212">  5  6 -1 -1</clus>
<clus scale="   90.720">  7  8 -1 -1</clus>
<clus scale="  101.730">  1  5  2 -1</clus>
<clus scale="   36.349">  1  5  2 -1</clus>
</clustering>
</event>
<event>
 9    1  0.1445593E-005  0.1003521E+03  0.7546771E-02  0.1279787E+00
          1   -1    0    0  502    0 -0.00000000000E+00  0.00000000000E+00  0.39569168939E+03  0.39569168939E+03  0.00000000000E+00 0. -1.
         21   -1    0    0  501  502  0.00000000000E+00 -0.00000000000E+00 -0.43141457763E+02  0.43141457763E+02  0.00000000000E+00 0. -1.
         23    2    1    2    0    0  0.93069840072E-01 -0.51562849994E+02  0.26324347586E+03  0.28327109326E+03  0.91031030598E+02 0.  0.
         23    2    1    2    0    0  0.27300993282E+01  0.23024758927E+02  0.85422339230E+02  0.12662277924E+03  0.90547000037E+02 0.  0.
        -13    1    3    3    0    0  0.38828630709E+02 -0.33857309533E+01  0.14097301354E+03  0.14626180733E+03  0.00000000000E+00 0. -1.
         13    1    3    3    0    0 -0.38735560869E+02 -0.48177119041E+02  0.12227046232E+03  0.13700928593E+03  0.00000000000E+00 0.  1.
        -13    1    4    4    0    0  0.38454822053E+02 -0.79743465182E+00  0.98510165893E+01  0.39704556023E+02  0.00000000000E+00 0. -1.
         13    1    4    4    0    0 -0.35724722725E+02  0.23822193579E+02  0.75571322641E+02  0.86918223212E+02  0.00000000000E+00 0.  1.
          1    1    1    2  501    0 -0.28231691682E+01  0.28538091068E+02  0.38844165353E+01  0.28939274658E+02  0.00000000000E+00 0. -1.
<scales pt_clust_5="13000.00000" pt_clust_6="13000.00000" pt_clust_7="13000.00000" pt_clust_8="13000.00000" pt_clust_9="28.67739"></scales>
<clustering>
<clus scale="   28.677">  2  9  1 -1</clus>
<clus scale="   90.547">  7  8 -1 -1</clus>
<clus scale="   91.031">  5  6 -1 -1</clus>
<clus scale="   99.913">  2  7  1 -1</clus>
<clus scale="   28.677">  2  5  1 -1</clus>
</clustering>
</event>
<event>
 9    1  0.1445593E-005  0.9477538E+02  0.7546771E-02  0.1291818E+00
         21   -1    0    0  501  502  0.00000000000E+00  0.00000000000E+00  0.40614316132E+02  0.40614316132E+02  0.00000000000E+00 0. -1.
          1   -1    0    0  502    0 -0.00000000000E+00 -0.00000000000E+00 -0.47851697698E+03  0.47851697698E+03  0.00000000000E+00 0. -1.
         23    2    1    2    0    0  0.22252984147E+02 -0.20415766477E+02 -0.33516214713E+03  0.34878461783E+03  0.91679037633E+02 0.  0.
         23    2    1    2    0    0 -0.14485675866E+01  0.11428696856E+02 -0.11270982212E+03  0.14558827714E+03  0.91431553512E+02 0.  0.
        -11    1    3    3    0    0  0.21504900005E+02 -0.50941772709E+02 -0.28292225402E+03  0.28827508867E+03  0.00000000000E+00 0. -1.
         11    1    3    3    0    0  0.74808414259E+00  0.30526006232E+02 -0.52239893113E+02  0.60509529158E+02  0.00000000000E+00 0.  1.
        -13    1    4    4    0    0  0.33706068772E+02  0.17531852291E+02 -0.10120090051E+03  0.10809758175E+03  0.00000000000E+00 0. -1.
         13    1    4    4    0    0 -0.35154636359E+02 -0.61031554350E+01 -0.11508921610E+02  0.37490695385E+02  0.00000000000E+00 0.  1.
          1    1    1    2  501    0 -0.20804416560E+02  0.89870696205E+01  0.99693084008E+01  0.24758398146E+02  0.00000000000E+00 0. -1.
<scales pt_clust_5="13000.00000" pt_clust_6="13000.00000" pt_clust_7="13000.00000" pt_clust_8="13000.00000" pt_clust_9="22.66255"></scales>
<clustering>
<clus scale="   22.663">  1  9  2 -1</clus>
<clus scale="   91.432">  7  8 -1 -1</clus>
<clus scale="   91.679">  5  6 -1 -1</clus>
<clus scale="   94.536">  1  7  2 -1</clus>
<clus scale="   22.663">  1  5  2 -1</clus>
</clustering>
</event>
<event>
 9    1  0.1445593E-005  0.1488199E+03  0.7546771E-02  0.1202930E+00
         21   -1    0    0  501  502  0.00000000000E+00  0.00000000000E+00  0.52557623521E+02  0.52557623521E+02  0.00000000000E+00 0.  1.
         -3   -1    0    0    0  501 -0.00000000000E+00 -0.00000000000E+00 -0.67090227506E+03  0.67090227506E+03  0.00000000000E+00 0.  1.
         23    2    1    2    0    0  0.11254339372E+03 -0.81594786308E+01 -0.44453848793E+03  0.46840817455E+03  0.95179610076E+02 0.  0.
         23    2    1    2    0    0 -0.11454836818E+03  0.42843696232E+02 -0.14200426179E+03  0.20795208675E+03  0.90121856693E+02 0.  0.
        -11    1    4    4    0    0 -0.99714308883E+02 -0.52096899150E+01 -0.78908819725E+02  0.12726620170E+03  0.00000000000E+00 0.  1.
         11    1    4    4    0    0 -0.14834059300E+02  0.48053386147E+02 -0.63095442069E+02  0.80685885044E+02  0.00000000000E+00 0. -1.
        -13    1    3    3    0    0  0.83530936433E+02  0.26539751670E+02 -0.37748218629E+03  0.38752364667E+03  0.00000000000E+00 0.  1.
         13    1    3    3    0    0  0.29012457291E+02 -0.34699230301E+02 -0.67056301638E+02  0.80884527883E+02  0.00000000000E+00 0. -1.
         -3    1    1    2    0  502  0.20049744595E+01 -0.34684217601E+02 -0.31801901815E+02  0.47099637283E+02  0.00000000000E+00 0.  1.
<scales pt_clust_5="13000.00000" pt_clust_6="13000.00000" pt_clust_7="13000.00000" pt_clust_8="13000.00000" pt_clust_9="34.74212"></scales>
<clustering>
<clus scale="   34.742">  1  9  2 -1</clus>
<clus scale="   90.122">  5  6 -1 -1</clus>
<clus scale="   95.180">  7  8 -1 -1</clus>
<clus scale="  145.637">  1  5  2 -1</clus>
<clus scale="   34.742">  1  5  2 -1</clus>
</clustering>
</event>
<event>
 9    1  0.1445593E-005  0.1565063E+03  0.7546771E-02  0.1192817E+00
         21   -1    0    0  501  502  0.00000000000E+00  0.00000000000E+00  0.51726267458E+03  0.51726267458E+03  0.00000000000E+00 0.  1.
          1   -1    0    0  502    0 -0.00000000000E+00 -0.00000000000E+00 -0.57614842504E+02  0.57614842504E+02  0.00000000000E+00 0. -1.
         23    2    1    2    0    0 -0.11098131142E+03  0.48733185799E+02  0.17853141475E+03  0.23401510743E+03  0.90541866399E+02 0.  0.
         23    2    1    2    0    0  0.11398145054E+03 -0.74577805335E+02  0.21571334115E+03  0.27047414666E+03  0.89835395839E+02 0.  0.
        -13    1    3    3    0    0  0.15673494661E+01  0.24802363343E+02  0.43055302016E+01  0.25222041989E+02  0.00000000000E+00 0.  1.
         13    1    3    3    0    0 -0.11254866088E+03  0.23930822456E+02  0.17422588454E+03  0.20879306544E+03  0.00000000000E+00 0. -1.
        -13    1    4    4    0    0  0.33267800424E+01 -0.36775964285E+02  0.97229518670E+02  0.10400537638E+03  0.00000000000E+00 0. -1.
         13    1    4    4    0    0  0.11065467050E+03 -0.37801841050E+02  0.11848382248E+03  0.16646877029E+03  0.00000000000E+00 0.  1.
          1    1    1    2  501    0 -0.30001391289E+01  0.25844619535E+02  0.65403076180E+02  0.70388262995E+02  0.00000000000E+00 0. -1.
<scales pt_clust_5="13000.00000" pt_clust_6="13000.00000" pt_clust_7="13000.00000" pt_clust_8="13000.00000" pt_clust_9="26.01817"></scales>
<clustering>
<clus scale="   26.018">  1  9  2 -1</clus>
<clus scale="   89.835">  7  8 -1 -1</clus>
<clus scale="   90.542">  5  6 -1 -1</clus>
<clus scale="  156.099">  1  7  2 -1</clus>
<clus scale="   26.018">  1  5  2 -1</clus>
</clustering>
</event>
<event>
 9    1  0.1445593E-005  0.1026470E+03  0.7546771E-02  0.1279045E+00
         21   -1    0    0  501  502  0.00000000000E+00  0.00000000000E+00  0.46217381715E+03  0.46217381715E+03  0.00000000000E+00 0. -1.
          1   -1    0    0  502    0 -0.00000000000E+00 -0.00000000000E+00 -0.94928843068E+02  0.94928843068E+02  0.00000000000E+00 0. -1.
         23    2    1    2    0    0 -0.12485764243E+02  0.13405989019E+02  0.33265125452E+02  0.98735113227E+02  0.91139668434E+02 0.  0.
         23    2    1    2    0    0  0.87751584254E+02  0.15026733244E+02  0.35154600764E+03  0.37601505280E+03  0.99380990109E+02 0.  0.
        -11    1    4    4    0    0 -0.10013284030E+02  0.18437246361E+02  0.15679741912E+02  0.26192598513E+02  0.00000000000E+00 0.  1.
         11    1    4    4    0    0  0.97764868284E+02 -0.34105131175E+01  0.33586626573E+03  0.34982245429E+03  0.00000000000E+00 0. -1.
        -13    1    3    3    0    0 -0.36075801783E+02 -0.26260707571E+02  0.27015909180E+02  0.52162703009E+02  0.00000000000E+00 0.  1.
         13    1    3    3    0    0  0.23590037540E+02  0.39666696590E+02  0.62492162726E+01  0.46572410218E+02  0.00000000000E+00 0. -1.
          1    1    1    2  501    0 -0.75265820011E+02 -0.28432722263E+02 -0.17566159008E+02  0.82352494191E+02  0.00000000000E+00 0. -1.
<scales pt_clust_5="13000.00000" pt_clust_6="13000.00000" pt_clust_7="13000.00000" pt_clust_8="13000.00000" pt_clust_9="80.45725"></scales>
<clustering>
<clus scale="   80.457">  1  9  2 -1</clus>
<clus scale="   91.140">  7  8 -1 -1</clus>
<clus scale="   94.690">  2  7  1 -1</clus>
<clus scale="   99.381">  5  6 -1 -1</clus>
<clus scale="   80.457">  1  5  2 -1</clus>
</clustering>
</event>
<event>
 9    1  0.1445593E-005  0.1057624E+03  0.7546771E-02  0.1268888E+00
          1   -1    0    0  502    0 -0.00000000000E+00  0.00000000000E+00  0.49280405052E+03  0.49280405052E+03  0.00000000000E+00 0. -1.
         21   -1    0    0  501  502  0.00000000000E+00 -0.00000000000E+00 -0.40224232480E+02  0.40224232480E+02  0.00000000000E+00 0.  1.
         23    2    1    2    0    0 -0.53364087841E+02  0.46390799063E+01  0.34413958059E+03  0.36014846022E+03  0.91682144037E+02 0.  0.
         23    2    1    2    0    0  0.50664692375E+02  0.22112849805E+02  0.95385403984E+02  0.14299034042E+03  0.91060271143E+02 0.  0.
        -13    1    3    3    0    0  0.25350224696E+02  0.90101364673E+01  0.73921670542E+02  0.78665302561E+02  0.00000000000E+00 0.  1.
         13    1    3    3    0    0 -0.78714312537E+02 -0.43710565610E+01  0.27021791005E+03  0.28148315766E+03  0.00000000000E+00 0. -1.
        -13    1    4    4    0    0  0.46198582838E+02 -0.99180226159E+01  0.56290983405E+01  0.47585323126E+02  0.00000000000E+00 0.  1.
         13    1    4    4    0    0  0.44661095367E+01  0.32030872421E+02  0.89756305643E+02  0.95405017295E+02  0.00000000000E+00 0. -1.
          1    1    1    2  501    0  0.26993954666E+01 -0.26751929711E+02  0.13054833471E+02  0.29889482366E+02  0.00000000000E+00 0. -1.
<scales pt_clust_5="13000.00000" pt_clust_6="13000.00000" pt_clust_7="13000.00000" pt_clust_8="13000.00000" pt_clust_9="26.88778"></scales>
<clustering>
<clus scale="   26.888">  2  9  1 -1</clus>
<clus scale="   91.060">  7  8 -1 -1</clus>
<clus scale="   91.682">  5  6 -1 -1</clus>
<clus scale="  105.224">  2  7  1 -1</clus>
<clus scale="   26.888">  2  5  1 -1</clus>
</clustering>
</event>
<event>
 9    1  0.1445593E-005  0.2063663E+03  0.7546771E-02  0.1147575E+00
         21   -1    0    0  501  502  0.00000000000E+00  0.00000000000E+00  0.83222877111E+02  0.83222877111E+02  0.00000000000E+00 0.  1.
          3   -1    0    0  502    0 -0.00000000000E+00 -0.00000000000E+00 -0.89443277052E+03  0.89443277052E+03  0.00000000000E+00 0. -1.
         23    2    1    2    0    0  0.21971458992E+03 -0.11951067735E+02 -0.41586443016E+03  0.47910511870E+03  0.90449773092E+02 0.  0.
         23    2    1    2    0    0 -0.11025649526E+03 -0.50037272653E+02 -0.16716051663E+03  0.23798959807E+03  0.11847441523E+03 0.  0.
        -13    1    3    3    0    0  0.12036924921E+03  0.38097161054E+02 -0.23506457525E+03  0.26682485711E+03  0.00000000000E+00 0.  1.
         13    1    3    3    0    0  0.99345340708E+02 -0.50048228790E+02 -0.18079985491E+03  0.21228026159E+03  0.00000000000E+00 0. -1.
        -13    1    4    4    0    0 -0.47827734128E+02 -0.17639511762E+02 -0.15925168401E+03  0.16721167240E+03  0.00000000000E+00 0. -1.
         13    1    4    4    0    0 -0.62428761136E+02 -0.32397760891E+02 -0.79088326202E+01  0.70777925663E+02  0.00000000000E+00 0.  1.
          3    1    1    2  501    0 -0.10945809465E+03  0.61988340388E+02 -0.22818494662E+03  0.26056093086E+03  0.00000000000E+00 0. -1.
<scales pt_clust_5="13000.00000" pt_clust_6="13000.00000" pt_clust_7="13000.00000" pt_clust_8="13000.00000" pt_clust_9="125.79207"></scales>
<clustering>
<clus scale="   90.450">  5  6 -1 -1</clus>
<clus scale="  118.474">  7  8 -1 -1</clus>
<clus scale="  125.792">  1  9  2 -1</clus>
<clus scale="  191.656">  2  5  1 -1</clus>
<clus scale="  125.792">  1  5  2 -1</clus>
</clustering>
</event>
<event>
 9    1  0.1445593E-005  0.1543754E+03  0.7546771E-02  0.1195630E+00
         21   -1    0    0  501  502  0.00000000000E+00  0.00000000000E+00  0.39612478425E+02  0.39612478425E+02  0.00000000000E+00 0.  1.
          1   -1    0    0  502    0 -0.00000000000E+00 -0.00000000000E+00 -0.80617567296E+03  0.80617567296E+03  0.00000000000E+00 0. -1.
         23    2    1    2    0    0  0.73361261216E+02  0.11854484698E+03 -0.44389993626E+03  0.47432214288E+03  0.92193201592E+02 0.  0.
         23    2    1    2    0    0 -0.66610293715E+02 -0.85104973458E+02 -0.29775247048E+03  0.32922446436E+03  0.89735313675E+02 0.  0.
        -13    1    4    4    0    0 -0.63986385077E+02 -0.13235409717E+02 -0.17703337839E+03  0.18870678474E+03  0.00000000000E+00 0. -1.
         13    1    4    4    0    0 -0.26239086387E+01 -0.71869563741E+02 -0.12071909209E+03  0.14051767962E+03  0.00000000000E+00 0.  1.
        -13    1    3    3    0    0  0.78909830495E+02  0.59488244394E+02 -0.34617701361E+03  0.36000574624E+03  0.00000000000E+00 0. -1.
         13    1    3    3    0    0 -0.55485692792E+01  0.59056602588E+02 -0.97722922646E+02  0.11431639664E+03  0.00000000000E+00 0.  1.
          1    1    1    2  501    0 -0.67509675006E+01 -0.33439873524E+02 -0.24910787802E+02  0.42241544153E+02  0.00000000000E+00 0. -1.
<scales pt_clust_5="13000.00000" pt_clust_6="13000.00000" pt_clust_7="13000.00000" pt_clust_8="13000.00000" pt_clust_9="34.11452"></scales>
<clustering>
<clus scale="   34.115">  1  9  2 -1</clus>
<clus scale="   89.735">  5  6 -1 -1</clus>
<clus scale="   92.193">  7  8 -1 -1</clus>
<clus scale="  152.920">  1  5  2 -1</clus>
<clus scale="   34.115">  1  5  2 -1</clus>
</clustering>
</event>
<event>
 9    1  0.1445593E-005  0.1237600E+03  0.7546771E-02  0.1237835E+00
         -1   -1    0    0    0  501 -0.00000000000E+00  0.00000000000E+00  0.53442712714E+03  0.53442712714E+03  0.00000000000E+00 0.  1.
         21   -1    0    0  501  502  0.00000000000E+00 -0.00000000000E+00 -0.27650920772E+03  0.27650920772E+03  0.00000000000E+00 0.  1.
         23    2    1    2    0    0 -0.10015336627E+02 -0.86519978164E+02  0.30443893995E+03  0.32876339245E+03  0.88409764529E+02 0.  0.
         23    2    1    2    0    0  0.10187546724E+03  0.46590480019E+02  0.18218014594E+03  0.23249941166E+03  0.91198065725E+02 0.  0.
        -13    1    3    3    0    0  0.33402599852E+02 -0.98048149133E+01  0.67290802636E+02  0.75762261000E+02  0.00000000000E+00 0.  1.
         13    1    3    3    0    0 -0.43417936479E+02 -0.76715163251E+02  0.23714813732E+03  0.25300113145E+03  0.00000000000E+00 0. -1.
        -13    1    4    4    0    0  0.40548364209E+02 -0.45445538658E+01  0.89789472804E+01  0.41778514863E+02  0.00000000000E+00 0. -1.
         13    1    4    4    0    0  0.61327103031E+02  0.51135033885E+02  0.17320119866E+03  0.19072089679E+03  0.00000000000E+00 0.  1.
         -1    1    1    2    0  502 -0.91860130614E+02  0.39929498145E+02 -0.22870116647E+03  0.24967353076E+03  0.00000000000E+00 0.  1.
<scales pt_clust_5="13000.00000" pt_clust_6="13000.00000" pt_clust_7="13000.00000" pt_clust_8="13000.00000" pt_clust_9="100.16311"></scales>
<clustering>
<clus scale="   88.410">  5  6 -1 -1</clus>
<clus scale="   91.198">  7  8 -1 -1</clus>
<clus scale="  100.163">  2  9  1 -1</clus>
<clus scale="  121.720">  1  5  2 -1</clus>
<clus scale="  100.163">  2  5  1 -1</clus>
</clustering>
</event>
<event>
 9    1  0.1445593E-005  0.1281200E+03  0.7546771E-02  0.1232152E+00
         21   -1    0    0  501  502  0.00000000000E+00  0.00000000000E+00  0.11647165249E+03  0.11647165249E+03  0.00000000000E+00 0. -1.
          2   -1    0    0  502    0 -0.00000000000E+00 -0.00000000000E+00 -0.23319808342E+03  0.23319808342E+03  0.00000000000E+00 0. -1.
         23    2    1    2    0    0 -0.91486477828E+02  0.37034762257E+02 -0.15629237078E+03  0.20553714700E+03  0.89871376923E+02 0.  0.
         23    2    1    2    0    0  0.67960264913E+02 -0.20836740663E+02  0.24470754962E+02  0.11182588366E+03  0.82785524330E+02 0.  0.
        -13    1    4    4    0    0  0.49354756758E+02 -0.51808110563E+02  0.24693354798E+02  0.75695007140E+02  0.00000000000E+00 0.  1.
         13    1    4    4    0    0  0.18605508155E+02  0.30971369899E+02 -0.22259983632E+00  0.36130876516E+02  0.00000000000E+00 0. -1.
        -13    1    3    3    0    0 -0.72838298578E+02  0.54977832839E+02 -0.68768618680E+02  0.11426768029E+03  0.00000000000E+00 0.  1.
         13    1    3    3    0    0 -0.18648179249E+02 -0.17943070581E+02 -0.87523752100E+02  0.91269466706E+02  0.00000000000E+00 0. -1.
          2    1    1    2  501    0  0.23526212915E+02 -0.16198021594E+02  0.15095184888E+02  0.32306705255E+02  0.00000000000E+00 0. -1.
<scales pt_clust_5="13000.00000" pt_clust_6="13000.00000" pt_clust_7="13000.00000" pt_clust_8="13000.00000" pt_clust_9="28.56324"></scales>
<clustering>
<clus scale="   28.563">  1  9  2 -1</clus>
<clus scale="   82.786">  5  6 -1 -1</clus>
<clus scale="   89.871">  7  8 -1 -1</clus>
<clus scale="  123.253">  1  5  2 -1</clus>
<clus scale="   28.563">  1  5  2 -1</clus>
</clustering>
</event>
<event>
 9    1  0.1445593E-005  0.1358918E+03  0.7546771E-02  0.1219021E+00
          1   -1    0    0  502    0 -0.00000000000E+00  0.00000000000E+00  0.41415143514E+03  0.41415143514E+03  0.00000000000E+00 0. -1.
         21   -1    0    0  501  502  0.00000000000E+00 -0.00000000000E+00 -0.10754396838E+03  0.10754396838E+03  0.00000000000E+00 0.  1.
         23    2    1    2    0    0  0.38846480056E+02 -0.92924725552E+02  0.31147993379E+03  0.34001131529E+03  0.91890650998E+02 0.  0.
         23    2    1    2    0    0 -0.75447802485E+02  0.72020545644E+02 -0.10038151911E+02  0.13921850403E+03  0.91660773921E+02 0.  0.
        -11    1    4    4    0    0 -0.73947366016E+02  0.92164240604E+02 -0.43907496042E+01  0.11824440312E+03  0.00000000000E+00 0.  1.
         11    1    4    4    0    0 -0.15004364690E+01 -0.20143694960E+02 -0.56474023069E+01  0.20974100911E+02  0.00000000000E+00 0. -1.
        -11    1    3    3    0    0  0.68734386830E+02 -0.68114131347E+02  0.20569145405E+03  0.22731679456E+03  0.00000000000E+00 0.  1.
         11    1    3    3    0    0 -0.29887906774E+02 -0.24810594205E+02  0.10578847974E+03  0.11269452073E+03  0.00000000000E+00 0. -1.
          1    1    1    2  501    0  0.36601322429E+02  0.20904179907E+02  0.51656848913E+01  0.42465584201E+02  0.00000000000E+00 0. -1.
<scales pt_clust_5="13000.00000" pt_clust_6="13000.00000" pt_clust_7="13000.00000" pt_clust_8="13000.00000" pt_clust_9="42.15023"></scales>
<clustering>
<clus scale="   42.150">  2  9  1 -1</clus>
<clus scale="   91.661">  5  6 -1 -1</clus>
<clus scale="   91.891">  7  8 -1 -1</clus>
<clus scale="  135.736">  2  5  1 -1</clus>
<clus scale="   42.150">  2  5  1 -1</clus>
</clustering>
</event>
<event>
 9    1  0.1445593E-005  0.1234250E+03  0.7546771E-02  0.1242427E+00
         21   -1    0    0  501  502  0.00000000000E+00  0.00000000000E+00  0.52304820084E+03  0.52304820084E+03  0.00000000000E+00 0. -1.
          2   -1    0    0  502    0 -0.00000000000E+00 -0.00000000000E+00 -0.25751977214E+03  0.25751977214E+03  0.00000000000E+00 0. -1.
         23    2    1    2    0    0 -0.43419569121E+01  0.66572854089E+02 -0.22839674224E+03  0.25472132980E+03  0.90923520053E+02 0.  0.
         23    2    1    2    0    0 -0.25314339455E+02 -0.37648062668E+02  0.21154599050E+03  0.24044492452E+03  0.10489930041E+03 0.  0.
        -11    1    3    3    0    0 -0.26240323501E+02  0.45747521771E+02 -0.46437480303E+02  0.70269694054E+02  0.00000000000E+00 0.  1.
         11    1    3    3    0    0  0.21898366588E+02  0.20825332318E+02 -0.18195926194E+03  0.18445163575E+03  0.00000000000E+00 0. -1.
        -13    1    4    4    0    0 -0.27746044318E+02  0.30874317663E+02  0.11308204504E+03  0.12046001568E+03  0.00000000000E+00 0. -1.
         13    1    4    4    0    0  0.24317048635E+01 -0.68522380331E+02  0.98463945464E+02  0.11998490885E+03  0.00000000000E+00 0.  1.
          2    1    1    2  501    0  0.29656296367E+02 -0.28924791421E+02  0.28237918044E+03  0.28540171866E+03  0.00000000000E+00 0. -1.
<scales pt_clust_5="13000.00000" pt_clust_6="13000.00000" pt_clust_7="13000.00000" pt_clust_8="13000.00000" pt_clust_9="41.42631"></scales>
<clustering>
<clus scale="   41.426">  1  9  2 -1</clus>
<clus scale="   90.924">  5  6 -1 -1</clus>
<clus scale="  104.899">  7  8 -1 -1</clus>
<clus scale="  111.790">  2  5  1 -1</clus>
<clus scale="   41.426">  1  5  2 -1</clus>
</clustering>
</event>
<event>
 9    1  0.1445593E-005  0.9287433E+02  0.7546771E-02  0.1317795E+00
         21   -1    0    0  501  502  0.00000000000E+00  0.00000000000E+00  0.12988298386E+03  0.12988298386E+03  0.00000000000E+00 0. -1.
          4   -1    0    0  502    0 -0.00000000000E+00 -0.00000000000E+00 -0.11502668200E+03  0.11502668200E+03  0.00000000000E+00 0. -1.
         23    2    1    2    0    0 -0.24253585628E+02  0.21862989849E+02 -0.46902393235E+02  0.10749819240E+03  0.91048339567E+02 0.  0.
         23    2    1    2    0    0 -0.77583323732E+01 -0.11963019287E+02 -0.61452086983E+01  0.61690192018E+02  0.59704360391E+02 0.  0.
        -11    1    4    4    0    0  0.25362979229E+02  0.93623920034E+00 -0.62790352981E+01  0.26145430642E+02  0.00000000000E+00 0.  1.
         11    1    4    4    0    0 -0.33121311602E+02 -0.12899258487E+02  0.13382659985E+00  0.35544761376E+02  0.00000000000E+00 0. -1.
        -11    1    3    3    0    0 -0.23078348331E+02  0.53928347313E+02 -0.11604388107E+02  0.59795807788E+02  0.00000000000E+00 0.  1.
         11    1    3    3    0    0 -0.11752372974E+01 -0.32065357465E+02 -0.35298005128E+02  0.47702384616E+02  0.00000000000E+00 0. -1.
          4    1    1    2  501    0  0.32011918001E+02 -0.98999705621E+01  0.67903903802E+02  0.75721281439E+02  0.00000000000E+00 0. -1.
<scales pt_clust_5="13000.00000" pt_clust_6="13000.00000" pt_clust_7="13000.00000" pt_clust_8="13000.00000" pt_clust_9="33.50779"></scales>
<clustering>
<clus scale="   33.508">  1  9  2 -1</clus>
<clus scale="   59.704">  5  6 -1 -1</clus>
<clus scale="   62.454">  1  5  2 -1</clus>
<clus scale="   91.048">  7  8 -1 -1</clus>
<clus scale="   33.508">  1  5  2 -1</clus>
</clustering>
</event>
<event>
 9    1  0.1445593E-005  0.1175566E+03  0.7546771E-02  0.1248162E+00
         21   -1    0    0  501  502  0.00000000000E+00  0.00000000000E+00  0.14090397233E+03  0.14090397233E+03  0.00000000000E+00 0.  1.
         -3   -1    0    0    0  501 -0.00000000000E+00 -0.00000000000E+00 -0.30979706199E+03  0.30979706199E+03  0.00000000000E+00 0.  1.
         23    2    1    2    0    0 -0.64727659320E+02 -0.29858952742E+02 -0.23078990553E+03  0.25827294899E+03  0.91431442889E+02 0.  0.
         23    2    1    2    0    0  0.65332675821E+02  0.61961010880E+02  0.40873549911E+01  0.12630061790E+03  0.88473805234E+02 0.  0.
        -11    1    3    3    0    0 -0.14415439776E+02 -0.25211711724E+02 -0.84241421719E+01  0.30239072131E+02  0.00000000000E+00 0. -1.
         11    1    3    3    0    0 -0.50312219544E+02 -0.46472410176E+01 -0.22236576335E+03  0.22803387686E+03  0.00000000000E+00 0.  1.
        -11    1    4    4    0    0 -0.21189918996E+02  0.16975551142E+02  0.91483764139E+01  0.28650912632E+02  0.00000000000E+00 0.  1.
         11    1    4    4    0    0  0.86522594817E+02  0.44985459738E+02 -0.50610214228E+01  0.97649705271E+02  0.00000000000E+00 0. -1.
         -3    1    1    2    0  502 -0.60501650149E+00 -0.32102058138E+02  0.57809460877E+02  0.66127467429E+02  0.00000000000E+00 0.  1.
<scales pt_clust_5="13000.00000" pt_clust_6="13000.00000" pt_clust_7="13000.00000" pt_clust_8="13000.00000" pt_clust_9="32.10776"></scales>
<clustering>
<clus scale="   32.108">  1  9  2 -1</clus>
<clus scale="   88.474">  7  8 -1 -1</clus>
<clus scale="   91.431">  5  6 -1 -1</clus>
<clus scale="  115.271">  1  7  2 -1</clus>
<clus scale="   32.108">  1  5  2 -1</clus>
</clustering>
</event>
<event>
 9    1  0.1445593E-005  0.2165701E+03  0.7546771E-02  0.1136899E+00
         21   -1    0    0  501  502  0.00000000000E+00  0.00000000000E+00  0.84948002582E+03  0.84948002582E+03  0.00000000000E+00 0.  1.
          1   -1    0    0  502    0 -0.00000000000E+00 -0.00000000000E+00 -0.10047318195E+03  0.10047318195E+03  0.00000000000E+00 0. -1.
         23    2    1    2    0    0 -0.16608884832E+03  0.28186674089E+02  0.21683494826E+03  0.29119628138E+03  0.96942691172E+02 0.  0.
         23    2    1    2    0    0  0.20135877347E+03 -0.14596047732E+03  0.37419331332E+03  0.45857733499E+03  0.91775377084E+02 0.  0.
        -11    1    4    4    0    0  0.21014778896E+02  0.12354557835E+02  0.45303966923E+02  0.51446141257E+02  0.00000000000E+00 0. -1.
         11    1    4    4    0    0  0.18034399458E+03 -0.15831503516E+03  0.32888934640E+03  0.40713119373E+03  0.00000000000E+00 0.  1.
        -13    1    3    3    0    0 -0.58186576954E+01 -0.24850040343E+02  0.26906439924E+02  0.37085546940E+02  0.00000000000E+00 0.  1.
         13    1    3    3    0    0 -0.16027019062E+03  0.53036714432E+02  0.18992850833E+03  0.25411073444E+03  0.00000000000E+00 0. -1.
          1    1    1    2  501    0 -0.35269925154E+02  0.11777380323E+03  0.15797858230E+03  0.20017959140E+03  0.00000000000E+00 0. -1.
<scales pt_clust_5="13000.00000" pt_clust_6="13000.00000" pt_clust_7="13000.00000" pt_clust_8="13000.00000" pt_clust_9="122.94160"></scales>
<clustering>
<clus scale="   91.775">  5  6 -1 -1</clus>
<clus scale="   96.943">  7  8 -1 -1</clus>
<clus scale="  122.942">  1  9  2 -1</clus>
<clus scale="  214.307">  1  5  2 -1</clus>
<clus scale="  122.942">  1  5  2 -1</clus>
</clustering>
</event>
<event>
 9    1  0.1445593E-005  0.9546841E+02  0.7546771E-02  0.1291641E+00
         21   -1    0    0  501  502  0.00000000000E+00  0.00000000000E+00  0.10639056063E+03  0.10639056063E+03  0.00000000000E+00 0. -1.
          4   -1    0    0  502    0 -0.00000000000E+00 -0.00000000000E+00 -0.33319036532E+03  0.33319036532E+03  0.00000000000E+00 0. -1.
         23    2    1    2    0    0  0.12016904709E+02 -0.51067157884E+00 -0.20196274714E+03  0.22237353729E+03  0.92284191863E+02 0.  0.
         23    2    1    2    0    0 -0.37312277403E+02  0.89795987882E+02 -0.37813896935E+02  0.12350508374E+03  0.66091523078E+02 0.  0.
        -11    1    4    4    0    0 -0.51984472127E+02  0.53416623333E+02 -0.95269558227E+01  0.75143089356E+02  0.00000000000E+00 0.  1.
         11    1    4    4    0    0  0.14672194725E+02  0.36379364549E+02 -0.28286941112E+02  0.48361994381E+02  0.00000000000E+00 0. -1.
        -13    1    3    3    0    0  0.28892741394E+02 -0.35923112613E+02 -0.15208085298E+03  0.15891458828E+03  0.00000000000E+00 0.  1.
         13    1    3    3    0    0 -0.16875836685E+02  0.35412441034E+02 -0.49881894163E+02  0.63458949007E+02  0.00000000000E+00 0. -1.
          4    1    1    2  501    0  0.25295372693E+02 -0.89285316304E+02  0.12976839391E+02  0.93702304922E+02  0.00000000000E+00 0. -1.
<scales pt_clust_5="13000.00000" pt_clust_6="13000.00000" pt_clust_7="13000.00000" pt_clust_8="13000.00000" pt_clust_9="92.79937"></scales>
<clustering>
<clus scale="   66.092">  5  6 -1 -1</clus>
<clus scale="   92.284">  7  8 -1 -1</clus>
<clus scale="   92.799">  1  9  2 -1</clus>
<clus scale="   92.799">  1  5  2 -1</clus>
<clus scale="   92.799">  1  5  2 -1</clus>
</clustering>
</event>
<event>
 9    1  0.1472695E-005  0.2790551E+03  0.7546771E-02  0.1096214E+00
          2   -1    0    0  502    0 -0.00000000000E+00  0.00000000000E+00  0.81662376004E+03  0.81662376004E+03  0.00000000000E+00 0. -1.
         21   -1    0    0  501  502  0.00000000000E+00 -0.00000000000E+00 -0.25236803965E+03  0.25236803965E+03  0.00000000000E+00 0. -1.
         23    2    1    2    0    0 -0.19908653424E+02  0.26737624662E+03  0.63260269788E+03  0.69322408000E+03  0.92125132235E+02 0.  0.
         23    2    1    2    0    0  0.39026465466E+02 -0.22746917725E+03 -0.14470937390E+03  0.28751081907E+03  0.91958559057E+02 0.  0.
        -11    1    4    4    0    0 -0.19860834278E+02 -0.85640754058E+01 -0.15211672692E+02  0.26442222143E+02  0.00000000000E+00 0.  1.
         11    1    4    4    0    0  0.58887299745E+02 -0.21890510184E+03 -0.12949770121E+03  0.26106859693E+03  0.00000000000E+00 0. -1.
        -13    1    3    3    0    0 -0.29259852074E+01  0.17510601919E+03  0.50737718414E+03  0.53675160580E+03  0.00000000000E+00 0. -1.
         13    1    3    3    0    0 -0.16982668217E+02  0.92270227435E+02  0.12522551374E+03  0.15647247420E+03  0.00000000000E+00 0.  1.
          2    1    1    2  501    0 -0.19117812042E+02 -0.39907069374E+02  0.76362396402E+02  0.88256900622E+02  0.00000000000E+00 0. -1.
<scales pt_clust_5="13000.00000" pt_clust_6="13000.00000" pt_clust_7="13000.00000" pt_clust_8="13000.00000" pt_clust_9="44.25005"></scales>
<clustering>
<clus scale="   44.250">  2  9  1 -1</clus>
<clus scale="   91.959">  5  6 -1 -1</clus>
<clus scale="   92.125">  7  8 -1 -1</clus>
<clus scale="  279.000">  2  5  1 -1</clus>
<clus scale="   44.250">  2  5  1 -1</clus>
</clustering>
</event>
<event>
 9    1  0.1445593E-005  0.9409306E+02  0.7546771E-02  0.1294021E+00
          1   -1    0    0  502    0 -0.00000000000E+00  0.00000000000E+00  0.30901349010E+03  0.30901349010E+03  0.00000000000E+00 0. -1.
         21   -1    0    0  501  502  0.00000000000E+00 -0.00000000000E+00 -0.54002387481E+02  0.54002387481E+02  0.00000000000E+00 0. -1.
         23    2    1    2    0    0 -0.62646735322E+01  0.15748223256E+02  0.19460736940E+03  0.21586323490E+03  0.91856710634E+02 0.  0.
         23    2    1    2    0    0  0.38344703541E+02 -0.85942304285E+01  0.57502299114E+02  0.11415679054E+03  0.90449330215E+02 0.  0.
        -11    1    4    4    0    0 -0.10511069060E+02  0.32345714123E+02  0.12968473263E+02  0.36399300731E+02  0.00000000000E+00 0.  1.
         11    1    4    4    0    0  0.48855772601E+02 -0.40939944551E+02  0.44533825850E+02  0.77757489808E+02  0.00000000000E+00 0. -1.
        -11    1    3    3    0    0 -0.26464648083E+02 -0.31807336626E+02  0.77190240964E+02  0.87580920076E+02  0.00000000000E+00 0.  1.
         11    1    3    3    0    0  0.20199974550E+02  0.47555559882E+02  0.11741712843E+03  0.12828231483E+03  0.00000000000E+00 0. -1.
          1    1    1    2  501    0 -0.32080030009E+02 -0.71539928279E+01  0.29014341120E+01  0.32995852144E+02  0.00000000000E+00 0. -1.
<scales pt_clust_5="13000.00000" pt_clust_6="13000.00000" pt_clust_7="13000.00000" pt_clust_8="13000.00000" pt_clust_9="32.86804"></scales>
<clustering>
<clus scale="   32.868">  2  9  1 -1</clus>
<clus scale="   90.449">  5  6 -1 -1</clus>
<clus scale="   91.857">  7  8 -1 -1</clus>
<clus scale="   92.720">  2  5  1 -1</clus>
<clus scale="   32.868">  2  5  1 -1</clus>
</clustering>
</event>
<event>
 9    1  0.1445593E-005  0.1019983E+03  0.7546771E-02  0.1279155E+00
         -3   -1    0    0    0  501 -0.00000000000E+00  0.00000000000E+00  0.16431388282E+03  0.16431388282E+03  0.00000000000E+00 0.  1.
         21   -1    0    0  501  502  0.00000000000E+00 -0.00000000000E+00 -0.13601541992E+03  0.13601541992E+03  0.00000000000E+00 0. -1.
         23    2    1    2    0    0  0.23516335228E+01  0.62364355163E+02  0.65533029335E+02  0.12870556481E+03  0.91518858731E+02 0.  0.
         23    2    1    2    0    0 -0.42490059086E+02 -0.24159989889E+01 -0.25491412579E+02  0.98529276596E+02  0.85129102303E+02 0.  0.
        -11    1    3    3    0    0 -0.33202128173E+02  0.18729119393E+01  0.83735310816E+00  0.33265451666E+02  0.00000000000E+00 0.  1.
         11    1    3    3    0    0  0.35553761695E+02  0.60491443223E+02  0.64695676227E+02  0.95440113141E+02  0.00000000000E+00 0. -1.
        -13    1    4    4    0    0 -0.42818829645E+02 -0.39135166662E+02 -0.10944191908E+02  0.59032099558E+02  0.00000000000E+00 0.  1.
         13    1    4    4    0    0  0.32877055839E+00  0.36719167673E+02 -0.14547220671E+02  0.39497177037E+02  0.00000000000E+00 0. -1.
         -3    1    1    2    0  502  0.40138425563E+02 -0.59948356174E+02 -0.11743153855E+02  0.73094461330E+02  0.00000000000E+00 0.  1.
<scales pt_clust_5="13000.00000" pt_clust_6="13000.00000" pt_clust_7="13000.00000" pt_clust_8="13000.00000" pt_clust_9="72.14498"></scales>
<clustering>
<clus scale="   72.145">  2  9  1 -1</clus>
<clus scale="   85.129">  7  8 -1 -1</clus>
<clus scale="   91.519">  5  6 -1 -1</clus>
<clus scale="   96.306">  2  7  1 -1</clus>
<clus scale="   72.145">  2  5  1 -1</clus>
</clustering>
</event>
<event>
 9    1  0.1445593E-005  0.9764322E+02  0.7546771E-02  0.1287637E+00
         21   -1    0    0  501  502  0.00000000000E+00  0.00000000000E+00  0.28056283425E+03  0.28056283425E+03  0.00000000000E+00 0.  1.
         -2   -1    0    0    0  501 -0.00000000000E+00 -0.00000000000E+00 -0.77494976677E+02  0.77494976677E+02  0.00000000000E+00 0.  1.
         23    2    1    2    0    0 -0.31692388742E+01 -0.40820396208E+02  0.11865406523E+02  0.10240392151E+03  0.93109754846E+02 0.  0.
         23    2    1    2    0    0 -0.14287263039E+02  0.15012084361E+02  0.37043257504E+02  0.98377523186E+02  0.88749341291E+02 0.  0.
        -13    1    4    4    0    0 -0.41066448438E+01  0.47152187640E+02  0.43228736630E+02  0.64100834641E+02  0.00000000000E+00 0. -1.
         13    1    4    4    0    0 -0.10180618195E+02 -0.32140103278E+02 -0.61854791258E+01  0.34276688545E+02  0.00000000000E+00 0.  1.
        -13    1    3    3    0    0 -0.22657346740E+02  0.13200090363E+02 -0.23288313030E+02  0.35070547054E+02  0.00000000000E+00 0. -1.
         13    1    3    3    0    0  0.19488107866E+02 -0.54020486570E+02  0.35153719553E+02  0.67333374458E+02  0.00000000000E+00 0.  1.
         -2    1    1    2    0  502  0.17456501913E+02  0.25808311846E+02  0.15415919355E+03  0.15727636623E+03  0.00000000000E+00 0.  1.
<scales pt_clust_5="13000.00000" pt_clust_6="13000.00000" pt_clust_7="13000.00000" pt_clust_8="13000.00000" pt_clust_9="31.15764"></scales>
<clustering>
<clus scale="   31.158">  1  9  2 -1</clus>
<clus scale="   88.749">  5  6 -1 -1</clus>
<clus scale="   93.110">  7  8 -1 -1</clus>
<clus scale="   93.494">  1  5  2 -1</clus>
<clus scale="   31.158">  1  5  2 -1</clus>
</clustering>
</event>
<event>
 9    1  0.1445593E-005  0.1036389E+03  0.7546771E-02  0.1273303E+00
          3   -1    0    0  502    0 -0.00000000000E+00  0.00000000000E+00  0.64810829151E+03  0.64810829151E+03  0.00000000000E+00 0. -1.
         21   -1    0    0  501  502  0.00000000000E+00 -0.00000000000E+00 -0.32837879799E+02  0.32837879799E+02  0.00000000000E+00 0. -1.
         23    2    1    2    0    0  0.13118443928E+02  0.30419469443E+02  0.32456981767E+03  0.33886943919E+03  0.91594173296E+02 0.  0.
         23    2    1    2    0    0 -0.82417280710E+01 -0.78420917228E+02  0.25567469296E+03  0.28245513290E+03  0.90518435361E+02 0.  0.
        -11    1    4    4    0    0  0.90410866711E+00 -0.97364590254E+02  0.19004154101E+03  0.21353329519E+03  0.00000000000E+00 0. -1.
         11    1    4    4    0    0 -0.91458367381E+01  0.18943673026E+02  0.65633151957E+02  0.68921837709E+02  0.00000000000E+00 0.  1.
        -11    1    3    3    0    0  0.46837582147E+02  0.39340423290E+02  0.23258810031E+03  0.24049667859E+03  0.00000000000E+00 0. -1.
         11    1    3    3    0    0 -0.33719138219E+02 -0.89209538478E+01  0.91981717361E+02  0.98372760602E+02  0.00000000000E+00 0.  1.
          3    1    1    2  501    0 -0.48767158568E+01  0.48001447785E+02  0.35025901078E+02  0.59621599218E+02  0.00000000000E+00 0. -1.
<scales pt_clust_5="13000.00000" pt_clust_6="13000.00000" pt_clust_7="13000.00000" pt_clust_8="13000.00000" pt_clust_9="48.24854"></scales>
<clustering>
<clus scale="   48.249">  2  9  1 -1</clus>
<clus scale="   90.518">  5  6 -1 -1</clus>
<clus scale="   91.594">  7  8 -1 -1</clus>
<clus scale="  102.689">  2  5  1 -1</clus>
<clus scale="   48.249">  2  5  1 -1</clus>
</clustering>
</event>
<event>
 9    1  0.1445593E-005  0.1175591E+03  0.7546771E-02  0.1247740E+00
          1   -1    0    0  502    0 -0.00000000000E+00  0.00000000000E+00  0.22166468936E+03  0.22166468936E+03  0.00000000000E+00 0. -1.
         21   -1    0    0  501  502  0.00000000000E+00 -0.00000000000E+00 -0.12280243266E+03  0.12280243266E+03  0.00000000000E+00 0. -1.
         23    2    1    2    0    0  0.25168181459E+02  0.60948414631E+02  0.13300309578E+03  0.17500658200E+03  0.92678658022E+02 0.  0.
         23    2    1    2    0    0 -0.45246408776E+02 -0.86513867611E+02 -0.28198339557E+02  0.13641449792E+03  0.91004846528E+02 0.  0.
        -11    1    4    4    0    0 -0.23397146685E+02 -0.87091885124E+02  0.11685936668E+02  0.90933954293E+02  0.00000000000E+00 0. -1.
         11    1    4    4    0    0 -0.21849262091E+02  0.57801751378E+00 -0.39884276225E+02  0.45480543622E+02  0.00000000000E+00 0.  1.
        -13    1    3    3    0    0 -0.63364714368E+01  0.30001190036E+02  0.12674752463E+03  0.13040382385E+03  0.00000000000E+00 0. -1.
         13    1    3    3    0    0  0.31504652895E+02  0.30947224595E+02  0.62555711434E+01  0.44602758149E+02  0.00000000000E+00 0.  1.
          1    1    1    2  501    0  0.20078227317E+02  0.25565452980E+02 -0.59424995268E+01  0.33046042106E+02  0.00000000000E+00 0. -1.
<scales pt_clust_5="13000.00000" pt_clust_6="13000.00000" pt_clust_7="13000.00000" pt_clust_8="13000.00000" pt_clust_9="32.50735"></scales>
<clustering>
<clus scale="   32.507">  2  9  1 -1</clus>
<clus scale="   91.005">  5  6 -1 -1</clus>
<clus scale="   92.679">  7  8 -1 -1</clus>
<clus scale="  116.244">  2  5  1 -1</clus>
<clus scale="   32.507">  2  5  1 -1</clus>
</clustering>
</event>
<event>
 9    1  0.1445593E-005  0.9264588E+02  0.7546771E-02  0.1297088E+00
         21   -1    0    0  501  502  0.00000000000E+00  0.00000000000E+00  0.57699490038E+03  0.57699490038E+03  0.00000000000E+00 0. -1.
         -4   -1    0    0    0  501 -0.00000000000E+00 -0.00000000000E+00 -0.42718045463E+02  0.42718045463E+02  0.00000000000E+00 0.  1.
         23    2    1    2    0    0  0.79479276888E+01 -0.68826148985E+01  0.34198779697E+02  0.98345074664E+02  0.91605989081E+02 0.  0.
         23    2    1    2    0    0  0.35946491230E+02 -0.20215231347E+01  0.28836906461E+03  0.30497307258E+03  0.92496598793E+02 0.  0.
        -13    1    4    4    0    0 -0.23648209194E+02 -0.22755101128E+02  0.64324034554E+02  0.72212283213E+02  0.00000000000E+00 0.  1.
         13    1    4    4    0    0  0.59594700424E+02  0.20733577994E+02  0.22404503005E+03  0.23276078937E+03  0.00000000000E+00 0. -1.
        -13    1    3    3    0    0  0.34166919182E+02  0.25988083310E+02  0.36340376935E+02  0.56243949330E+02  0.00000000000E+00 0.  1.
         13    1    3    3    0    0 -0.26218991493E+02 -0.32870698208E+02 -0.21415972379E+01  0.42101125334E+02  0.00000000000E+00 0. -1.
         -4    1    1    2    0  502 -0.43894418919E+02  0.89041380332E+01  0.21170901061E+03  0.21639479860E+03  0.00000000000E+00 0.  1.
<scales pt_clust_5="13000.00000" pt_clust_6="13000.00000" pt_clust_7="13000.00000" pt_clust_8="13000.00000" pt_clust_9="44.78843"></scales>
<clustering>
<clus scale="   44.788">  1  9  2 -1</clus>
<clus scale="   91.606">  7  8 -1 -1</clus>
<clus scale="   91.757">  2  7  1 -1</clus>
<clus scale="   92.497">  5  6 -1 -1</clus>
<clus scale="   44.788">  1  5  2 -1</clus>
</clustering>
</event>
<event>
 9    1  0.1445593E-005  0.1603582E+03  0.7546771E-02  0.1188313E+00
         21   -1    0    0  501  502  0.00000000000E+00  0.00000000000E+00  0.38082089482E+03  0.38082089482E+03  0.00000000000E+00 0. -1.
          1   -1    0    0  502    0 -0.00000000000E+00 -0.00000000000E+00 -0.11587652229E+03  0.11587652229E+03  0.00000000000E+00 0. -1.
         23    2    1    2    0    0 -0.13329634024E+03  0.37647887376E+02 -0.70867018122E+00  0.16507061478E+03  0.89791580370E+02 0.  0.
         23    2    1    2    0    0  0.10015644464E+03 -0.64612741108E+02  0.23753894984E+03  0.28048231842E+03  0.89663027706E+02 0.  0.
        -11    1    3    3    0    0 -0.12147335211E+03  0.23888075470E+01  0.19014294031E+02  0.12297570920E+03  0.00000000000E+00 0. -1.
         11    1    3    3    0    0 -0.11822988124E+02  0.35259079829E+02 -0.19722964213E+02  0.42094905581E+02  0.00000000000E+00 0.  1.
        -13    1    4    4    0    0 -0.44215277264E+01 -0.40696190426E+02  0.80320769337E+02  0.90150739373E+02  0.00000000000E+00 0.  1.
         13    1    4    4    0    0  0.10457797237E+03 -0.23916550682E+02  0.15721818051E+03  0.19033157905E+03  0.00000000000E+00 0. -1.
          1    1    1    2  501    0  0.33139895594E+02  0.26964853733E+02  0.28114092865E+02  0.51144483910E+02  0.00000000000E+00 0. -1.
<scales pt_clust_5="13000.00000" pt_clust_6="13000.00000" pt_clust_7="13000.00000" pt_clust_8="13000.00000" pt_clust_9="42.72419"></scales>
<clustering>
<clus scale="   42.724">  1  9  2 -1</clus>
<clus scale="   89.663">  7  8 -1 -1</clus>
<clus scale="   89.792">  5  6 -1 -1</clus>
<clus scale="  160.286">  1  7  2 -1</clus>
<clus scale="   42.724">  1  5  2 -1</clus>
</clustering>
</event>
<event>
 9    1  0.1445593E-005  0.1038701E+03  0.7546771E-02  0.1272513E+00
          3   -1    0    0  502    0 -0.00000000000E+00  0.00000000000E+00  0.20651870714E+02  0.20651870714E+02  0.00000000000E+00 0. -1.
         21   -1    0    0  501  502  0.00000000000E+00 -0.00000000000E+00 -0.69979678216E+03  0.69979678216E+03  0.00000000000E+00 0.  1.
         23    2    1    2    0    0 -0.87777827610E+01 -0.53408619032E+02 -0.23213492362E+03  0.25563764585E+03  0.92382104096E+02 0.  0.
         23    2    1    2    0    0  0.22794232949E+02  0.34080389766E+02 -0.31705261552E+03  0.33267864937E+03  0.92041690078E+02 0.  0.
        -11    1    3    3    0    0  0.10226471130E+02 -0.75235968770E+02 -0.18912341010E+03  0.20379572114E+03  0.00000000000E+00 0.  1.
         11    1    3    3    0    0 -0.19004253891E+02  0.21827349738E+02 -0.43011513519E+02  0.51841924711E+02  0.00000000000E+00 0. -1.
        -13    1    4    4    0    0  0.37500479898E+02 -0.21526784469E+02 -0.13506119376E+03  0.14181401377E+03  0.00000000000E+00 0.  1.
         13    1    4    4    0    0 -0.14706246949E+02  0.55607174234E+02 -0.18199142176E+03  0.19086463560E+03  0.00000000000E+00 0. -1.
          3    1    1    2  501    0 -0.14016450188E+02  0.19328229266E+02 -0.12995737231E+03  0.13213235766E+03  0.00000000000E+00 0. -1.
<scales pt_clust_5="13000.00000" pt_clust_6="13000.00000" pt_clust_7="13000.00000" pt_clust_8="13000.00000" pt_clust_9="23.87554"></scales>
<clustering>
<clus scale="   23.876">  2  9  1 -1</clus>
<clus scale="   92.042">  7  8 -1 -1</clus>
<clus scale="   92.382">  5  6 -1 -1</clus>
<clus scale="  103.567">  2  7  1 -1</clus>
<clus scale="   23.876">  2  5  1 -1</clus>
</clustering>
</event>
<event>
 9    1  0.1445593E-005  0.2324156E+03  0.7546771E-02  0.1125169E+00
          2   -1    0    0  502    0 -0.00000000000E+00  0.00000000000E+00  0.66552041195E+03  0.66552041195E+03  0.00000000000E+00 0. -1.
         21   -1    0    0  501  502  0.00000000000E+00 -0.00000000000E+00 -0.19388135507E+03  0.19388135507E+03  0.00000000000E+00 0. -1.
         23    2    1    2    0    0 -0.16901108257E+03  0.12413194546E+03  0.44263388668E+03  0.49773077259E+03  0.88530663826E+02 0.  0.
         23    2    1    2    0    0  0.19016707045E+03 -0.12863794745E+03  0.11675579561E+03  0.27129371776E+03  0.85188786121E+02 0.  0.
        -11    1    4    4    0    0  0.81014408058E+02 -0.91831250326E+02  0.92770874272E+02  0.15363185855E+03  0.00000000000E+00 0.  1.
         11    1    4    4    0    0  0.10915266239E+03 -0.36806697123E+02  0.23984921336E+02  0.11766185921E+03  0.00000000000E+00 0. -1.
        -13    1    3    3    0    0 -0.11153453790E+03  0.93189823373E+02  0.38169600826E+03  0.40843131497E+03  0.00000000000E+00 0. -1.
         13    1    3    3    0    0 -0.57476544667E+02  0.30942122086E+02  0.60937878413E+02  0.89299457621E+02  0.00000000000E+00 0.  1.
          2    1    1    2  501    0 -0.21155987885E+02  0.45060019899E+01 -0.87750625409E+02  0.90377276663E+02  0.00000000000E+00 0. -1.
<scales pt_clust_5="13000.00000" pt_clust_6="13000.00000" pt_clust_7="13000.00000" pt_clust_8="13000.00000" pt_clust_9="21.63053"></scales>
<clustering>
<clus scale="   21.631">  2  9  1 -1</clus>
<clus scale="   85.189">  5  6 -1 -1</clus>
<clus scale="   88.531">  7  8 -1 -1</clus>
<clus scale="  231.163">  2  5  1 -1</clus>
<clus scale="   21.631">  2  5  1 -1</clus>
</clustering>
</event>
<event>
 9    1  0.1445593E-005  0.1865030E+03  0.7546771E-02  0.1162717E+00
         21   -1    0    0  501  502  0.00000000000E+00  0.00000000000E+00  0.60319403389E+02  0.60319403389E+02  0.00000000000E+00 0. -1.
          2   -1    0    0  502    0 -0.00000000000E+00 -0.00000000000E+00 -0.69977001709E+03  0.69977001709E+03  0.00000000000E+00 0. -1.
         23    2    1    2    0    0  0.14574564482E+03 -0.41554711216E+02 -0.38467194014E+03  0.42547857879E+03  0.10045363340E+03 0.  0.
         23    2    1    2    0    0 -0.16363396626E+03  0.30225177120E+02 -0.24789593081E+03  0.31234601440E+03  0.91749680966E+02 0.  0.
        -13    1    3    3    0    0  0.11218193600E+03 -0.73047337809E+02 -0.31133571565E+03  0.33889619084E+03  0.00000000000E+00 0. -1.
         13    1    3    3    0    0  0.33563708822E+02  0.31492626593E+02 -0.73336224491E+02  0.86582387945E+02  0.00000000000E+00 0.  1.
        -13    1    4    4    0    0 -0.50688333084E+02 -0.31752172095E+02 -0.96724942969E+02  0.11372432517E+03  0.00000000000E+00 0.  1.
         13    1    4    4    0    0 -0.11294563317E+03  0.61977349215E+02 -0.15117098784E+03  0.19862168923E+03  0.00000000000E+00 0. -1.
          2    1    1    2  501    0  0.17888321432E+02  0.11329534096E+02 -0.68827427487E+01  0.22264827290E+02  0.00000000000E+00 0. -1.
<scales pt_clust_5="13000.00000" pt_clust_6="13000.00000" pt_clust_7="13000.00000" pt_clust_8="13000.00000" pt_clust_9="21.17429"></scales>
<clustering>
<clus scale="   21.174">  1  9  2 -1</clus>
<clus scale="   91.750">  7  8 -1 -1</clus>
<clus scale="  100.454">  5  6 -1 -1</clus>
<clus scale="  181.963">  1  7  2 -1</clus>
<clus scale="   21.174">  1  5  2 -1</clus>
</clustering>
</event>
<event>
 9    1  0.1445593E-005  0.9771117E+02  0.7546771E-02  0.1287018E+00
         21   -1    0    0  501  502  0.00000000000E+00  0.00000000000E+00  0.16474480112E+03  0.16474480112E+03  0.00000000000E+00 0.  1.
          1   -1    0    0  502    0 -0.00000000000E+00 -0.00000000000E+00 -0.22174065174E+03  0.22174065174E+03  0.00000000000E+00 0. -1.
         23    2    1    2    0    0  0.28834075668E+02 -0.92073665171E+01 -0.13232954637E+03  0.16298991475E+03  0.90213213832E+02 0.  0.
         23    2    1    2    0    0 -0.87354919291E+01  0.31556782595E+02 -0.37983743752E+02  0.10625948749E+03  0.93681239029E+02 0.  0.
        -11    1    4    4    0    0  0.11415028853E+02  0.47502961648E+02 -0.56420348061E+02  0.74633035074E+02  0.00000000000E+00 0. -1.
         11    1    4    4    0    0 -0.20150520783E+02 -0.15946179053E+02  0.18436604309E+02  0.31626452419E+02  0.00000000000E+00 0.  1.
        -13    1    3    3    0    0  0.20778514933E+02  0.23298183052E+02 -0.53555237837E+01  0.31673863852E+02  0.00000000000E+00 0.  1.
         13    1    3    3    0    0  0.80555607347E+01 -0.32505549569E+02 -0.12697402259E+03  0.13131605090E+03  0.00000000000E+00 0. -1.
          1    1    1    2  501    0 -0.20098583739E+02 -0.22349416078E+02  0.11331743951E+03  0.11723605061E+03  0.00000000000E+00 0. -1.
<scales pt_clust_5="13000.00000" pt_clust_6="13000.00000" pt_clust_7="13000.00000" pt_clust_8="13000.00000" pt_clust_9="30.05744"></scales>
<clustering>
<clus scale="   30.057">  1  9  2 -1</clus>
<clus scale="   90.213">  7  8 -1 -1</clus>
<clus scale="   93.681">  5  6 -1 -1</clus>
<clus scale="   94.391">  2  7  1 -1</clus>
<clus scale="   30.057">  1  5  2 -1</clus>
</clustering>
</event>
<event>
 9    1  0.1445593E-005  0.2427682E+03  0.7546771E-02  0.1118172E+00
          1   -1    0    0  502    0 -0.00000000000E+00  0.00000000000E+00  0.48927050994E+03  0.48927050994E+03  0.00000000000E+00 0. -1.
         21   -1    0    0  501  502  0.00000000000E+00 -0.00000000000E+00 -0.19027709393E+03  0.19027709393E+03  0.00000000000E+00 0.  1.
         23    2    1    2    0    0 -0.21539536048E+03  0.83696711657E+02  0.22196737288E+03  0.33315319037E+03  0.91220791362E+02 0.  0.
         23    2    1    2    0    0  0.19726332862E+03 -0.92922014904E+02  0.14449858993E+03  0.27592157214E+03  0.87781261154E+02 0.  0.
        -11    1    4    4    0    0  0.14699344542E+03 -0.98133924915E+02  0.80060542192E+02  0.19402842738E+03  0.00000000000E+00 0.  1.
         11    1    4    4    0    0  0.50269883200E+02  0.52119100107E+01  0.64438047734E+02  0.81893144760E+02  0.00000000000E+00 0. -1.
        -11    1    3    3    0    0 -0.58458281246E+02 -0.85198248114E+01  0.22762922848E+02  0.63309625790E+02  0.00000000000E+00 0.  1.
         11    1    3    3    0    0 -0.15693707923E+03  0.92216536469E+02  0.19920445003E+03  0.26984356458E+03  0.00000000000E+00 0. -1.
          1    1    1    2  501    0  0.18132031857E+02  0.92253032471E+01 -0.67472546794E+02  0.70472841365E+02  0.00000000000E+00 0. -1.
<scales pt_clust_5="13000.00000" pt_clust_6="13000.00000" pt_clust_7="13000.00000" pt_clust_8="13000.00000" pt_clust_9="20.34396"></scales>
<clustering>
<clus scale="   20.344">  2  9  1 -1</clus>
<clus scale="   87.781">  5  6 -1 -1</clus>
<clus scale="   91.221">  7  8 -1 -1</clus>
<clus scale="  241.497">  2  5  1 -1</clus>
<clus scale="   20.344">  2  5  1 -1</clus>
</clustering>
</event>
<event>
 9    1  0.1445593E-005  0.9471429E+02  0.7546771E-02  0.1292086E+00
          2   -1    0    0  502    0 -0.00000000000E+00  0.00000000000E+00  0.43557916331E+03  0.43557916331E+03  0.00000000000E+00 0. -1.
         21   -1    0    0  501  502  0.00000000000E+00 -0.00000000000E+00 -0.38812687519E+02  0.38812687519E+02  0.00000000000E+00 0.  1.
         23    2    1    2    0    0 -0.16793832458E+02 -0.16342595377E+02  0.31870520654E+03  0.33238360511E+03  0.91415201339E+02 0.  0.
         23    2    1    2    0    0  0.34119368412E+02  0.49513363494E+01  0.69722849501E+02  0.11965954951E+03  0.90931210339E+02 0.  0.
        -11    1    3    3    0    0  0.33108041878E+02 -0.27719446607E+02  0.14806761685E+03  0.15423530503E+03  0.00000000000E+00 0.  1.
         11    1    3    3    0    0 -0.49901874335E+02  0.11376851230E+02  0.17063758969E+03  0.17814830008E+03  0.00000000000E+00 0. -1.
        -13    1    4    4    0    0 -0.21767603752E+00  0.23967256344E+02  0.76197414316E+02  0.79878174165E+02  0.00000000000E+00 0. -1.
         13    1    4    4    0    0  0.34337044449E+02 -0.19015919995E+02 -0.64745648143E+01  0.39781375344E+02  0.00000000000E+00 0.  1.
          2    1    1    2  501    0 -0.17325535954E+02  0.11391259027E+02  0.83384197440E+01  0.22348696207E+02  0.00000000000E+00 0. -1.
<scales pt_clust_5="13000.00000" pt_clust_6="13000.00000" pt_clust_7="13000.00000" pt_clust_8="13000.00000" pt_clust_9="20.73487"></scales>
<clustering>
<clus scale="   20.735">  2  9  1 -1</clus>
<clus scale="   90.931">  7  8 -1 -1</clus>
<clus scale="   91.415">  5  6 -1 -1</clus>
<clus scale="   94.247">  2  7  1 -1</clus>
<clus scale="   20.735">  2  5  1 -1</clus>
</clustering>
</event>
<event>
 9    1  0.1445593E-005  0.9239382E+02  0.7546771E-02  0.1297442E+00
          1   -1    0    0  502    0 -0.00000000000E+00  0.00000000000E+00  0.10493639990E+03  0.10493639990E+03  0.00000000000E+00 0. -1.
         21   -1    0    0  501  502  0.00000000000E+00 -0.00000000000E+00 -0.29045961314E+03  0.29045961314E+03  0.00000000000E+00 0.  1.
         23    2    1    2    0    0 -0.83034958203E+01 -0.11859876093E+01  0.34329857524E+02  0.98345943834E+02  0.91777071981E+02 0.  0.
         23    2    1    2    0    0 -0.29888747907E+02 -0.93148843360E+01 -0.28319687851E+02  0.10146389238E+03  0.92264903483E+02 0.  0.
        -11    1    4    4    0    0  0.30369181673E+02 -0.14412218130E+02  0.22742227818E+01  0.33692303515E+02  0.00000000000E+00 0. -1.
         11    1    4    4    0    0 -0.60257929580E+02  0.50973337938E+01 -0.30593910632E+02  0.67771588862E+02  0.00000000000E+00 0.  1.
        -13    1    3    3    0    0 -0.44664187576E+02 -0.14690244275E+02  0.36462934041E+02  0.59499903257E+02  0.00000000000E+00 0.  1.
         13    1    3    3    0    0  0.36360691756E+02  0.13504256666E+02 -0.21330765166E+01  0.38846040577E+02  0.00000000000E+00 0. -1.
          1    1    1    2  501    0  0.38192243727E+02  0.10500871945E+02 -0.19153338291E+03  0.19558617682E+03  0.00000000000E+00 0. -1.
<scales pt_clust_5="13000.00000" pt_clust_6="13000.00000" pt_clust_7="13000.00000" pt_clust_8="13000.00000" pt_clust_9="39.60954"></scales>
<clustering>
<clus scale="   39.610">  2  9  1 -1</clus>
<clus scale="   91.777">  7  8 -1 -1</clus>
<clus scale="   91.907">  1  7  2 -1</clus>
<clus scale="   92.265">  5  6 -1 -1</clus>
<clus scale="   39.610">  2  5  1 -1</clus>
</clustering>
</event>
<event>
 9    1  0.1445593E-005  0.9582006E+02  0.7546771E-02  0.1289383E+00
          2   -1    0    0  502    0 -0.00000000000E+00  0.00000000000E+00  0.63916712185E+03  0.63916712185E+03  0.00000000000E+00 0. -1.
         21   -1    0    0  501  502  0.00000000000E+00 -0.00000000000E+00 -0.41379767576E+02  0.41379767576E+02  0.00000000000E+00 0.  1.
         23    2    1    2    0    0 -0.38493875595E+02 -0.20981508590E+02  0.32541022008E+03  0.34090218286E+03  0.91654158570E+02 0.  0.
         23    2    1    2    0    0 -0.51699529005E+02  0.33143937361E+02  0.12759610317E+03  0.16863499383E+03  0.91573105859E+02 0.  0.
        -13    1    4    4    0    0  0.47720621150E+00  0.30852390788E+02  0.10886057067E+03  0.11314911219E+03  0.00000000000E+00 0. -1.
         13    1    4    4    0    0 -0.52176735217E+02  0.22915465730E+01  0.18735532508E+02  0.55485881645E+02  0.00000000000E+00 0.  1.
        -13    1    3    3    0    0 -0.53848548300E+02  0.20004085054E+02  0.16977508468E+03  0.17923004478E+03  0.00000000000E+00 0.  1.
         13    1    3    3    0    0  0.15354672705E+02 -0.40985593644E+02  0.15563513540E+03  0.16167213808E+03  0.00000000000E+00 0. -1.
          2    1    1    2  501    0  0.90193404600E+02 -0.12162428770E+02  0.14478103101E+03  0.17100971273E+03  0.00000000000E+00 0. -1.
<scales pt_clust_5="13000.00000" pt_clust_6="13000.00000" pt_clust_7="13000.00000" pt_clust_8="13000.00000" pt_clust_9="91.00975"></scales>
<clustering>
<clus scale="   91.010">  2  9  1 -1</clus>
<clus scale="   91.573">  5  6 -1 -1</clus>
<clus scale="   91.654">  7  8 -1 -1</clus>
<clus scale="   95.743">  2  5  1 -1</clus>
<clus scale="   91.010">  2  5  1 -1</clus>
</clustering>
</event>
<event>
 9    1  0.1445593E-005  0.9384058E+02  0.7546771E-02  0.1294754E+00
          1   -1    0    0  502    0 -0.00000000000E+00  0.00000000000E+00  0.27278322500E+03  0.27278322500E+03  0.00000000000E+00 0. -1.
         21   -1    0    0  501  502  0.00000000000E+00 -0.00000000000E+00 -0.46251772853E+02  0.46251772853E+02  0.00000000000E+00 0.  1.
         23    2    1    2    0    0 -0.11555890490E+02 -0.37931490677E+02  0.12077075155E+03  0.15510618474E+03  0.88882042760E+02 0.  0.
         23    2    1    2    0    0 -0.89799248717E+00  0.84672689179E+01  0.91076406213E+02  0.12873125543E+03  0.90577719797E+02 0.  0.
        -11    1    4    4    0    0 -0.97998041497E+01  0.47224477086E+02  0.65904618549E+02  0.81667656655E+02  0.00000000000E+00 0.  1.
         11    1    4    4    0    0  0.89018116625E+01 -0.38757208168E+02  0.25171787663E+02  0.47063598779E+02  0.00000000000E+00 0. -1.
        -13    1    3    3    0    0 -0.48822755889E+02 -0.32009741276E+02  0.61116930182E+02  0.84519608281E+02  0.00000000000E+00 0.  1.
         13    1    3    3    0    0  0.37266865399E+02 -0.59217494010E+01  0.59653821366E+02  0.70586576459E+02  0.00000000000E+00 0. -1.
          1    1    1    2  501    0  0.12453882977E+02  0.29464221759E+02  0.14684294391E+02  0.35197557683E+02  0.00000000000E+00 0. -1.
<scales pt_clust_5="13000.00000" pt_clust_6="13000.00000" pt_clust_7="13000.00000" pt_clust_8="13000.00000" pt_clust_9="31.98812"></scales>
<clustering>
<clus scale="   31.988">  2  9  1 -1</clus>
<clus scale="   88.882">  7  8 -1 -1</clus>
<clus scale="   90.578">  5  6 -1 -1</clus>
<clus scale="   92.205">  1  7  2 -1</clus>
<clus scale="   31.988">  2  5  1 -1</clus>
</clustering>
</event>
<event>
 9    1  0.1445593E-005  0.1213712E+03  0.7546771E-02  0.1253808E+00
         -3   -1    0    0    0  501 -0.00000000000E+00  0.00000000000E+00  0.33483644353E+02  0.33483644353E+02  0.00000000000E+00 0.  1.
         21   -1    0    0  501  502  0.00000000000E+00 -0.00000000000E+00 -0.58788843686E+03  0.58788843686E+03  0.00000000000E+00 0.  1.
         23    2    1    2    0    0  0.14169633116E+02 -0.22687812899E+02 -0.12168099549E+03  0.15475732612E+03  0.91804411471E+02 0.  0.
         23    2    1    2    0    0  0.14185385502E+02  0.96297584118E+01 -0.21631066004E+03  0.24796168349E+03  0.12000307256E+03 0.  0.
        -13    1    4    4    0    0  0.67032882168E+02  0.58319833729E+01 -0.10541822566E+03  0.12506167128E+03  0.00000000000E+00 0.  1.
         13    1    4    4    0    0 -0.52847496665E+02  0.37977750389E+01 -0.11089243438E+03  0.12290001221E+03  0.00000000000E+00 0. -1.
        -13    1    3    3    0    0 -0.24636495412E+02 -0.38030686128E+02 -0.94928803847E+02  0.10518919998E+03  0.00000000000E+00 0. -1.
         13    1    3    3    0    0  0.38806128529E+02  0.15342873229E+02 -0.26752191645E+02  0.49568126131E+02  0.00000000000E+00 0.  1.
         -3    1    1    2    0  502 -0.28355018618E+02  0.13058054487E+02 -0.21641313698E+03  0.21865307161E+03  0.00000000000E+00 0.  1.
<scales pt_clust_5="13000.00000" pt_clust_6="13000.00000" pt_clust_7="13000.00000" pt_clust_8="13000.00000" pt_clust_9="31.21730"></scales>
<clustering>
<clus scale="   31.217">  2  9  1 -1</clus>
<clus scale="   91.804">  7  8 -1 -1</clus>
<clus scale="   93.586">  1  7  2 -1</clus>
<clus scale="  120.003">  5  6 -1 -1</clus>
<clus scale="   31.217">  2  5  1 -1</clus>
</clustering>
</event>
<event>
 9    1  0.1445593E-005  0.1688049E+03  0.7546771E-02  0.1198708E+00
         -3   -1    0    0    0  501 -0.00000000000E+00  0.00000000000E+00  0.13897863333E+03  0.13897863333E+03  0.00000000000E+00 0.  1.
         21   -1    0    0  501  502  0.00000000000E+00 -0.00000000000E+00 -0.52992981438E+03  0.52992981438E+03  0.00000000000E+00 0.  1.
         23    2    1    2    0    0 -0.53022434593E+02 -0.29045677297E+02  0.14150155068E+02  0.11027550506E+03  0.91134132942E+02 0.  0.
         23    2    1    2    0    0 -0.96479438264E+02  0.51319820551E+02 -0.18086609170E+02  0.14314847083E+03  0.90677192728E+02 0.  0.
        -11    1    3    3    0    0 -0.42884855476E+02 -0.61311029701E+02  0.15576427464E+02  0.76424984690E+02  0.00000000000E+00 0.  1.
         11    1    3    3    0    0 -0.10137579117E+02  0.32265352404E+02 -0.14262723952E+01  0.33850520366E+02  0.00000000000E+00 0. -1.
        -13    1    4    4    0    0 -0.82172592883E+02  0.97642393964E+01  0.19841251310E+02  0.85096125914E+02  0.00000000000E+00 0.  1.
         13    1    4    4    0    0 -0.14306845381E+02  0.41555581155E+02 -0.37927860479E+02  0.58052344917E+02  0.00000000000E+00 0. -1.
         -3    1    1    2    0  502  0.14950187286E+03 -0.22274143254E+02 -0.38701472695E+03  0.41548447182E+03  0.00000000000E+00 0.  1.
<scales pt_clust_5="13000.00000" pt_clust_6="13000.00000" pt_clust_7="13000.00000" pt_clust_8="13000.00000" pt_clust_9="142.38235"></scales>
<clustering>
<clus scale="   90.677">  7  8 -1 -1</clus>
<clus scale="   91.134">  5  6 -1 -1</clus>
<clus scale="  109.364">  1  5  2 -1</clus>
<clus scale="  142.382">  2  9  1 -1</clus>
<clus scale="  142.382">  2  5  1 -1</clus>
</clustering>
</event>
<event>
 9    1  0.2191783E-005  0.1417353E+03  0.7546771E-02  0.1212334E+00
          2   -1    0    0  502    0 -0.00000000000E+00  0.00000000000E+00  0.60061095889E+03  0.60061095889E+03  0.00000000000E+00 0. -1.
         21   -1    0    0  501  502  0.00000000000E+00 -0.00000000000E+00 -0.32987940409E+03  0.32987940409E+03  0.00000000000E+00 0.  1.
         23    2    1    2    0    0 -0.98902801118E+02  0.40785005264E+02  0.56156728164E+03  0.57954064661E+03  0.95206977386E+02 0.  0.
         23    2    1    2    0    0  0.76384505260E+02 -0.18923360494E+02 -0.94024576471E+02  0.15165186372E+03  0.89246739839E+02 0.  0.
        -11    1    3    3    0    0 -0.42087236866E+02  0.67937405879E+02  0.33326808899E+03  0.34271627590E+03  0.00000000000E+00 0. -1.
         11    1    3    3    0    0 -0.56815564253E+02 -0.27152400615E+02  0.22829919265E+03  0.23682437071E+03  0.00000000000E+00 0.  1.
        -13    1    4    4    0    0  0.70569260818E+02  0.10871267742E+02 -0.23994992178E+02  0.75325723922E+02  0.00000000000E+00 0. -1.
         13    1    4    4    0    0  0.58152444419E+01 -0.29794628236E+02 -0.70029584293E+02  0.76326139794E+02  0.00000000000E+00 0.  1.
          2    1    1    2  501    0  0.22518295858E+02 -0.21861644770E+02 -0.19681115037E+03  0.19929785265E+03  0.00000000000E+00 0. -1.
<scales pt_clust_5="13000.00000" pt_clust_6="13000.00000" pt_clust_7="13000.00000" pt_clust_8="13000.00000" pt_clust_9="31.38479"></scales>
<clustering>
<clus scale="   31.385">  2  9  1 -1</clus>
<clus scale="   89.247">  7  8 -1 -1</clus>
<clus scale="   95.207">  5  6 -1 -1</clus>
<clus scale="  137.802">  2  7  1 -1</clus>
<clus scale="   31.385">  2  5  1 -1</clus>
</clustering>
</event>
<event>
 9    1  0.1445593E-005  0.9856756E+02  0.7546771E-02  0.1285896E+00
          1   -1    0    0  502    0 -0.00000000000E+00  0.00000000000E+00  0.26925992974E+03  0.26925992974E+03  0.00000000000E+00 0. -1.
         21   -1    0    0  501  502  0.00000000000E+00 -0.00000000000E+00 -0.65344695907E+02  0.65344695907E+02  0.00000000000E+00 0.  1.
         23    2    1    2    0    0  0.11697110065E+02  0.17760562354E+02  0.19200386220E+03  0.21386240271E+03  0.91757202618E+02 0.  0.
         23    2    1    2    0    0  0.80770614762E+01 -0.21404891220E+02  0.15275170495E+02  0.10035560635E+03  0.96511701889E+02 0.  0.
        -11    1    3    3    0    0  0.48667967088E+02  0.33525219844E+01  0.14126286968E+03  0.14944901731E+03  0.00000000000E+00 0.  1.
         11    1    3    3    0    0 -0.36970857024E+02  0.14408040370E+02  0.50740992519E+02  0.64413385396E+02  0.00000000000E+00 0. -1.
        -13    1    4    4    0    0  0.32996368353E+02  0.17086290056E+02 -0.20280400836E+02  0.42331977162E+02  0.00000000000E+00 0.  1.
         13    1    4    4    0    0 -0.24919306877E+02 -0.38491181276E+02  0.35555571331E+02  0.58023629186E+02  0.00000000000E+00 0. -1.
          1    1    1    2  501    0 -0.19774171541E+02  0.36443288655E+01 -0.33637988708E+01  0.20386616586E+02  0.00000000000E+00 0. -1.
<scales pt_clust_5="13000.00000" pt_clust_6="13000.00000" pt_clust_7="13000.00000" pt_clust_8="13000.00000" pt_clust_9="20.10719"></scales>
<clustering>
<clus scale="   20.107">  2  9  1 -1</clus>
<clus scale="   91.757">  5  6 -1 -1</clus>
<clus scale="   93.917">  1  5  2 -1</clus>
<clus scale="   96.512">  7  8 -1 -1</clus>
<clus scale="   20.107">  2  5  1 -1</clus>
</clustering>
</event>
<event>
 9    1  0.1829019E-005  0.1054819E+03  0.7546771E-02  0.1270419E+00
          2   -1    0    0  502    0 -0.00000000000E+00  0.00000000000E+00  0.17246659526E+03  0.17246659526E+03  0.00000000000E+00 0. -1.
         21   -1    0    0  501  502  0.00000000000E+00 -0.00000000000E+00 -0.24888010828E+03  0.24888010828E+03  0.00000000000E+00 0.  1.
         23    2    1    2    0    0  0.12443492118E+02 -0.50460229632E+02  0.13775088843E+03  0.17269512794E+03  0.90261978043E+02 0.  0.
         23    2    1    2    0    0 -0.17392260436E+02  0.22472952491E+02 -0.15545775119E+03  0.18342697307E+03  0.93117225731E+02 0.  0.
        -11    1    3    3    0    0 -0.34388146982E+02 -0.74303119614E+01  0.77394984323E+02  0.85016103105E+02  0.00000000000E+00 0.  1.
         11    1    3    3    0    0  0.46831639100E+02 -0.43029917671E+02  0.60355904111E+02  0.87679024838E+02  0.00000000000E+00 0. -1.
        -13    1    4    4    0    0 -0.23092138381E+01  0.47460080555E+02 -0.14473144867E+03  0.15233182185E+03  0.00000000000E+00 0.  1.
         13    1    4    4    0    0 -0.15083046598E+02 -0.24987128064E+02 -0.10726302522E+02  0.31095151220E+02  0.00000000000E+00 0. -1.
          2    1    1    2  501    0  0.49487683188E+01  0.27987277141E+02 -0.58706650267E+02  0.65224602530E+02  0.00000000000E+00 0. -1.
<scales pt_clust_5="13000.00000" pt_clust_6="13000.00000" pt_clust_7="13000.00000" pt_clust_8="13000.00000" pt_clust_9="28.42144"></scales>
<clustering>
<clus scale="   28.421">  2  9  1 -1</clus>
<clus scale="   90.262">  5  6 -1 -1</clus>
<clus scale="   93.117">  7  8 -1 -1</clus>
<clus scale="  102.970">  1  5  2 -1</clus>
<clus scale="   28.421">  2  5  1 -1</clus>
</clustering>
</event>
<event>
 9    1  0.1445593E-005  0.9466234E+02  0.7546771E-02  0.1297759E+00
         21   -1    0    0  501  502  0.00000000000E+00  0.00000000000E+00  0.17385197429E+03  0.17385197429E+03  0.00000000000E+00 0.  1.
          2   -1    0    0  502    0 -0.00000000000E+00 -0.00000000000E+00 -0.12005306146E+03  0.12005306146E+03  0.00000000000E+00 0. -1.
         23    2    1    2    0    0  0.30837819351E+02  0.23115501100E+02  0.14365360579E+02  0.93057683152E+02  0.83474974188E+02 0.  0.
         23    2    1    2    0    0  0.55054632127E+02 -0.19269099829E+01  0.18666532282E+02  0.10997525164E+03  0.93334832968E+02 0.  0.
        -11    1    4    4    0    0  0.45681147525E+02  0.42527651889E+02  0.54010051028E+01  0.62646143302E+02  0.00000000000E+00 0.  1.
         11    1    4    4    0    0  0.93734846013E+01 -0.44454561872E+02  0.13265527179E+02  0.47329108339E+02  0.00000000000E+00 0. -1.
        -13    1    3    3    0    0  0.53846815259E+02  0.26302467634E+01  0.26344763987E+02  0.60003702395E+02  0.00000000000E+00 0.  1.
         13    1    3    3    0    0 -0.23008995907E+02  0.20485254336E+02 -0.11979403408E+02  0.33053980757E+02  0.00000000000E+00 0. -1.
          2    1    1    2  501    0 -0.85892451478E+02 -0.21188591117E+02  0.20767019970E+02  0.90872100960E+02  0.00000000000E+00 0. -1.
<scales pt_clust_5="13000.00000" pt_clust_6="13000.00000" pt_clust_7="13000.00000" pt_clust_8="13000.00000" pt_clust_9="88.46734"></scales>
<clustering>
<clus scale="   83.475">  7  8 -1 -1</clus>
<clus scale="   88.467">  1  9  2 -1</clus>
<clus scale="   84.957">  2  7  1 -1</clus>
<clus scale="   93.335">  5  6 -1 -1</clus>
<clus scale="   88.467">  1  5  2 -1</clus>
</clustering>
</event>
<event>
 9    1  0.1445593E-005  0.1168972E+03  0.7546771E-02  0.1253984E+00
          2   -1    0    0  502    0 -0.00000000000E+00  0.00000000000E+00  0.45109140094E+02  0.45109140094E+02  0.00000000000E+00 0. -1.
         21   -1    0    0  501  502  0.00000000000E+00 -0.00000000000E+00 -0.38351304344E+03  0.38351304344E+03  0.00000000000E+00 0.  1.
         23    2    1    2    0    0 -0.13116031059E+02 -0.46201759054E+02 -0.11319826551E+03  0.15137769733E+03  0.88287751847E+02 0.  0.
         23    2    1    2    0    0  0.47658106011E+02  0.53270559369E+02 -0.18904430677E+03  0.22673938998E+03  0.10278109495E+03 0.  0.
        -13    1    3    3    0    0  0.26009921222E+02 -0.54575666251E+02 -0.70111749230E+02  0.92577949474E+02  0.00000000000E+00 0. -1.
         13    1    3    3    0    0 -0.39125952280E+02  0.83739071971E+01 -0.43086516277E+02  0.58799747860E+02  0.00000000000E+00 0.  1.
        -13    1    4    4    0    0  0.28982979681E+01 -0.27215646387E+02 -0.18872709949E+02  0.33245612044E+02  0.00000000000E+00 0. -1.
         13    1    4    4    0    0  0.44759808043E+02  0.80486205756E+02 -0.17017159682E+03  0.19349377793E+03  0.00000000000E+00 0.  1.
          2    1    1    2  501    0 -0.34542074953E+02 -0.70688003147E+01 -0.36161331065E+02  0.50505096222E+02  0.00000000000E+00 0. -1.
<scales pt_clust_5="13000.00000" pt_clust_6="13000.00000" pt_clust_7="13000.00000" pt_clust_8="13000.00000" pt_clust_9="35.25797"></scales>
<clustering>
<clus scale="   35.258">  2  9  1 -1</clus>
<clus scale="   88.288">  5  6 -1 -1</clus>
<clus scale="  102.781">  7  8 -1 -1</clus>
<clus scale="  104.383">  1  5  2 -1</clus>
<clus scale="   35.258">  2  5  1 -1</clus>
</clustering>
</event>
<event>
 9    1  0.1445593E-005  0.1425397E+03  0.7546771E-02  0.1223569E+00
         -1   -1    0    0    0  501 -0.00000000000E+00  0.00000000000E+00  0.28210177930E+03  0.28210177930E+03  0.00000000000E+00 0.  1.
         21   -1    0    0  501  502  0.00000000000E+00 -0.00000000000E+00 -0.69622434926E+03  0.69622434926E+03  0.00000000000E+00 0.  1.
         23    2    1    2    0    0 -0.10634933916E+02  0.55007674731E+02 -0.36881396257E+03  0.38400094042E+03  0.91071604567E+02 0.  0.
         23    2    1    2    0    0 -0.35371938231E+02  0.45076541053E+02  0.25344538729E+03  0.27591125649E+03  0.92786790818E+02 0.  0.
        -13    1    4    4    0    0  0.23311273703E+01  0.54052095850E+02  0.21352316173E+03  0.22027075116E+03  0.00000000000E+00 0.  1.
         13    1    4    4    0    0 -0.37703065602E+02 -0.89755547972E+01  0.39922225564E+02  0.55640505332E+02  0.00000000000E+00 0. -1.
        -13    1    3    3    0    0 -0.21943509150E+02  0.73351965252E+02 -0.33691431058E+03  0.34550438648E+03  0.00000000000E+00 0.  1.
         13    1    3    3    0    0  0.11308575234E+02 -0.18344290520E+02 -0.31899651985E+02  0.38496553941E+02  0.00000000000E+00 0. -1.
         -1    1    1    2    0  502  0.46006872147E+02 -0.10008421578E+03 -0.29875399468E+03  0.31841393165E+03  0.00000000000E+00 0.  1.
<scales pt_clust_5="13000.00000" pt_clust_6="13000.00000" pt_clust_7="13000.00000" pt_clust_8="13000.00000" pt_clust_9="108.20433"></scales>
<clustering>
<clus scale="   91.072">  7  8 -1 -1</clus>
<clus scale="   92.787">  5  6 -1 -1</clus>
<clus scale="  106.925">  1  7  2 -1</clus>
<clus scale="  108.204">  2  9  1 -1</clus>
<clus scale="  108.204">  2  5  1 -1</clus>
</clustering>
</event>
<event>
 9    1  0.1445593E-005  0.1010730E+03  0.7546771E-02  0.1279501E+00
         21   -1    0    0  501  502  0.00000000000E+00  0.00000000000E+00  0.98723604243E+02  0.98723604243E+02  0.00000000000E+00 0.  1.
          1   -1    0    0  502    0 -0.00000000000E+00 -0.00000000000E+00 -0.15633682277E+03  0.15633682277E+03  0.00000000000E+00 0. -1.
         23    2    1    2    0    0 -0.19989027142E+02  0.19074963473E+02 -0.46549735016E+02  0.10553493133E+03  0.90594307011E+02 0.  0.
         23    2    1    2    0    0  0.41234705134E+02 -0.31636057858E+02 -0.37448548730E+02  0.11339612270E+03  0.93568935966E+02 0.  0.
        -11    1    3    3    0    0  0.21428718168E+02  0.89975287319E+01  0.17153530043E+02  0.28885793715E+02  0.00000000000E+00 0.  1.
         11    1    3    3    0    0 -0.41417745311E+02  0.10077434741E+02 -0.63703265059E+02  0.76649137613E+02  0.00000000000E+00 0. -1.
        -13    1    4    4    0    0 -0.17813504607E+01 -0.49346950403E+02 -0.44344769937E+02  0.66368315816E+02  0.00000000000E+00 0. -1.
         13    1    4    4    0    0  0.43016055595E+02  0.17710892545E+02  0.68962212065E+01  0.47027806887E+02  0.00000000000E+00 0.  1.
          1    1    1    2  501    0 -0.21245677991E+02  0.12561094384E+02  0.26385065219E+02  0.36129372982E+02  0.00000000000E+00 0. -1.
<scales pt_clust_5="13000.00000" pt_clust_6="13000.00000" pt_clust_7="13000.00000" pt_clust_8="13000.00000" pt_clust_9="24.68117"></scales>
<clustering>
<clus scale="   24.681">  1  9  2 -1</clus>
<clus scale="   90.594">  5  6 -1 -1</clus>
<clus scale="   93.569">  7  8 -1 -1</clus>
<clus scale="   98.326">  2  5  1 -1</clus>
<clus scale="   24.681">  1  5  2 -1</clus>
</clustering>
</event>
<event>
 9    1  0.1445593E-005  0.9324980E+02  0.7546771E-02  0.1295441E+00
         21   -1    0    0  501  502  0.00000000000E+00  0.00000000000E+00  0.54441737445E+02  0.54441737445E+02  0.00000000000E+00 0. -1.
         -3   -1    0    0    0  501 -0.00000000000E+00 -0.00000000000E+00 -0.34229979841E+03  0.34229979841E+03  0.00000000000E+00 0.  1.
         23    2    1    2    0    0  0.13512963277E+01 -0.13721957124E+02 -0.23878125345E+03  0.25610923822E+03  0.91571484611E+02 0.  0.
         23    2    1    2    0    0  0.25596031520E+02  0.28926608161E+02 -0.47230286524E+02  0.10963633772E+03  0.91090730018E+02 0.  0.
        -11    1    3    3    0    0 -0.12439328995E+01  0.39373258265E+02 -0.97399918674E+02  0.10506448017E+03  0.00000000000E+00 0.  1.
         11    1    3    3    0    0  0.25952292273E+01 -0.53095215389E+02 -0.14138133477E+03  0.15104475805E+03  0.00000000000E+00 0. -1.
        -13    1    4    4    0    0 -0.20192115055E+02 -0.11333952918E+02  0.10722263792E+02  0.25517580998E+02  0.00000000000E+00 0. -1.
         13    1    4    4    0    0  0.45788146575E+02  0.40260561079E+02 -0.57952550315E+02  0.84118756727E+02  0.00000000000E+00 0.  1.
         -3    1    1    2    0  502 -0.26947327848E+02 -0.15204651037E+02 -0.18465209981E+01  0.30995959916E+02  0.00000000000E+00 0.  1.
<scales pt_clust_5="13000.00000" pt_clust_6="13000.00000" pt_clust_7="13000.00000" pt_clust_8="13000.00000" pt_clust_9="30.94091"></scales>
<clustering>
<clus scale="   30.941">  1  9  2 -1</clus>
<clus scale="   91.091">  7  8 -1 -1</clus>
<clus scale="   91.571">  5  6 -1 -1</clus>
<clus scale="   92.778">  1  7  2 -1</clus>
<clus scale="   30.941">  1  5  2 -1</clus>
</clustering>
</event>
<event>
 9    1  0.1445593E-005  0.1701672E+03  0.7546771E-02  0.1177753E+00
         -2   -1    0    0    0  501 -0.00000000000E+00  0.00000000000E+00  0.44378855016E+03  0.44378855016E+03  0.00000000000E+00 0.  1.
         21   -1    0    0  501  502  0.00000000000E+00 -0.00000000000E+00 -0.11486486720E+03  0.11486486720E+03  0.00000000000E+00 0. -1.
         23    2    1    2    0    0  0.62181112814E+02 -0.11436194196E+03  0.18661785358E+03  0.24467646964E+03  0.89973368059E+02 0.  0.
         23    2    1    2    0    0 -0.13612810240E+03  0.12185614221E+03  0.88856661669E+02  0.22242841504E+03  0.90548958224E+02 0.  0.
        -13    1    4    4    0    0 -0.87963296432E+02  0.19322155473E+02  0.31159836896E+02  0.95298597296E+02  0.00000000000E+00 0. -1.
         13    1    4    4    0    0 -0.48164805973E+02  0.10253398674E+03  0.57696824774E+02  0.12712981774E+03  0.00000000000E+00 0.  1.
        -13    1    3    3    0    0 -0.19128860098E+02 -0.36268315514E+02  0.26393927855E+02  0.48764161291E+02  0.00000000000E+00 0. -1.
         13    1    3    3    0    0  0.81309972912E+02 -0.78093626444E+02  0.16022392573E+03  0.19591230835E+03  0.00000000000E+00 0.  1.
         -2    1    1    2    0  502  0.73946989591E+02 -0.74942002509E+01  0.53449167714E+02  0.91548532682E+02  0.00000000000E+00 0.  1.
<scales pt_clust_5="13000.00000" pt_clust_6="13000.00000" pt_clust_7="13000.00000" pt_clust_8="13000.00000" pt_clust_9="74.32577"></scales>
<clustering>
<clus scale="   74.326">  2  9  1 -1</clus>
<clus scale="   89.973">  7  8 -1 -1</clus>
<clus scale="   90.549">  5  6 -1 -1</clus>
<clus scale="  169.862">  1  7  2 -1</clus>
<clus scale="   74.326">  2  5  1 -1</clus>
</clustering>
</event>
<event>
 9    1  0.1445593E-005  0.1219623E+03  0.7546771E-02  0.1241986E+00
          2   -1    0    0  502    0 -0.00000000000E+00  0.00000000000E+00  0.60284852373E+03  0.60284852373E+03  0.00000000000E+00 0. -1.
         21   -1    0    0  501  502  0.00000000000E+00 -0.00000000000E+00 -0.83356126141E+02  0.83356126141E+02  0.00000000000E+00 0.  1.
         23    2    1    2    0    0  0.72708055531E+02 -0.17458703272E+02  0.42467891316E+03  0.44073546420E+03  0.91127945561E+02 0.  0.
         23    2    1    2    0    0 -0.60963247398E+02  0.37641598236E+02  0.14574289925E+03  0.18944155800E+03  0.97538216936E+02 0.  0.
        -11    1    4    4    0    0  0.58589275035E+01 -0.22669386810E+02  0.62865889417E+02  0.67084634471E+02  0.00000000000E+00 0. -1.
         11    1    4    4    0    0 -0.66822174901E+02  0.60310985046E+02  0.82877009836E+02  0.12235692353E+03  0.00000000000E+00 0.  1.
        -11    1    3    3    0    0  0.71407629482E+01  0.32358765153E+02  0.85329455000E+02  0.91537948788E+02  0.00000000000E+00 0.  1.
         11    1    3    3    0    0  0.65567292583E+02 -0.49817468425E+02  0.33934945816E+03  0.34919751541E+03  0.00000000000E+00 0. -1.
          2    1    1    2  501    0 -0.11744808133E+02 -0.20182894964E+02 -0.50929414829E+02  0.56027627667E+02  0.00000000000E+00 0. -1.
<scales pt_clust_5="13000.00000" pt_clust_6="13000.00000" pt_clust_7="13000.00000" pt_clust_8="13000.00000" pt_clust_9="23.35144"></scales>
<clustering>
<clus scale="   23.351">  2  9  1 -1</clus>
<clus scale="   91.128">  7  8 -1 -1</clus>
<clus scale="   97.538">  5  6 -1 -1</clus>
<clus scale="  116.899">  1  7  2 -1</clus>
<clus scale="   23.351">  2  5  1 -1</clus>
</clustering>
</event>
<event>
 9    1  0.1445593E-005  0.1280499E+03  0.7546771E-02  0.1230689E+00
          1   -1    0    0  502    0 -0.00000000000E+00  0.00000000000E+00  0.61417675073E+03  0.61417675073E+03  0.00000000000E+00 0. -1.
         21   -1    0    0  501  502  0.00000000000E+00 -0.00000000000E+00 -0.84462866342E+02  0.84462866342E+02  0.00000000000E+00 0. -1.
         23    2    1    2    0    0  0.11740197401E+03  0.18932486645E+02  0.35931045868E+03  0.38895164962E+03  0.89653318245E+02 0.  0.
         23    2    1    2    0    0 -0.50903979862E+02 -0.45850489390E+02  0.20158373522E+03  0.23146537608E+03  0.90811538232E+02 0.  0.
        -13    1    3    3    0    0  0.39508921536E+02 -0.22444414229E+00  0.28919471962E+02  0.48962650200E+02  0.00000000000E+00 0.  1.
         13    1    3    3    0    0  0.77893052479E+02  0.19156930787E+02  0.33039098672E+03  0.33998899942E+03  0.00000000000E+00 0. -1.
        -13    1    4    4    0    0 -0.96058144095E+01 -0.55619937685E+02  0.16835901616E+03  0.17756859931E+03  0.00000000000E+00 0. -1.
         13    1    4    4    0    0 -0.41298165453E+02  0.97694482955E+01  0.33224719062E+02  0.53896776773E+02  0.00000000000E+00 0.  1.
          1    1    1    2  501    0 -0.66497994153E+02  0.26918002744E+02 -0.31180309519E+02  0.78222591364E+02  0.00000000000E+00 0. -1.
<scales pt_clust_5="13000.00000" pt_clust_6="13000.00000" pt_clust_7="13000.00000" pt_clust_8="13000.00000" pt_clust_9="71.73954"></scales>
<clustering>
<clus scale="   71.740">  2  9  1 -1</clus>
<clus scale="   89.653">  5  6 -1 -1</clus>
<clus scale="   90.812">  7  8 -1 -1</clus>
<clus scale="  127.231">  1  5  2 -1</clus>
<clus scale="   71.740">  2  5  1 -1</clus>
</clustering>
</event>
<event>
 9    1  0.1445593E-005  0.1046322E+03  0.7546771E-02  0.1273483E+00
         21   -1    0    0  501  502  0.00000000000E+00  0.00000000000E+00  0.85069089991E+02  0.85069089991E+02  0.00000000000E+00 0.  1.
          2   -1    0    0  502    0 -0.00000000000E+00 -0.00000000000E+00 -0.30939174348E+03  0.30939174348E+03  0.00000000000E+00 0. -1.
         23    2    1    2    0    0 -0.37133261908E+02 -0.11298629166E+02 -0.21039356871E+03  0.23167684533E+03  0.88894143491E+02 0.  0.
         23    2    1    2    0    0  0.75580291083E+02  0.16365551451E+02 -0.21322322261E+01  0.12224988542E+03  0.94658736498E+02 0.  0.
        -11    1    4    4    0    0  0.76654214407E+02  0.46972740158E+02 -0.10469793361E+02  0.90509245259E+02  0.00000000000E+00 0.  1.
         11    1    4    4    0    0 -0.10739233241E+01 -0.30607188707E+02  0.83375611350E+01  0.31740640157E+02  0.00000000000E+00 0. -1.
        -13    1    3    3    0    0 -0.10232044044E+02  0.36187778128E+02 -0.52217867652E+02  0.64350258067E+02  0.00000000000E+00 0.  1.
         13    1    3    3    0    0 -0.26901217864E+02 -0.47486407294E+02 -0.15817570106E+03  0.16732658726E+03  0.00000000000E+00 0. -1.
          2    1    1    2  501    0 -0.38447029175E+02 -0.50669222854E+01 -0.11796852558E+02  0.40534102729E+02  0.00000000000E+00 0. -1.
<scales pt_clust_5="13000.00000" pt_clust_6="13000.00000" pt_clust_7="13000.00000" pt_clust_8="13000.00000" pt_clust_9="38.77948"></scales>
<clustering>
<clus scale="   38.779">  1  9  2 -1</clus>
<clus scale="   88.894">  7  8 -1 -1</clus>
<clus scale="   94.659">  5  6 -1 -1</clus>
<clus scale="   99.447">  2  7  1 -1</clus>
<clus scale="   38.779">  1  5  2 -1</clus>
</clustering>
</event>
<event>
 9    1  0.1445593E-005  0.1078867E+03  0.7546771E-02  0.1265565E+00
         21   -1    0    0  501  502  0.00000000000E+00  0.00000000000E+00  0.79767507665E+02  0.79767507665E+02  0.00000000000E+00 0. -1.
          2   -1    0    0  502    0 -0.00000000000E+00 -0.00000000000E+00 -0.65268791189E+03  0.65268791189E+03  0.00000000000E+00 0. -1.
         23    2    1    2    0    0  0.19352285981E+02  0.48125214847E+02 -0.46721896565E+03  0.47895413315E+03  0.91722148463E+02 0.  0.
         23    2    1    2    0    0 -0.23183491377E+02 -0.10986205278E+03 -0.15639740544E+02  0.14424367914E+03  0.89187962056E+02 0.  0.
        -11    1    4    4    0    0 -0.42474464035E+02 -0.87241846077E+02  0.18705814011E+02  0.98818658561E+02  0.00000000000E+00 0. -1.
         11    1    4    4    0    0  0.19290972659E+02 -0.22620206703E+02 -0.34345554555E+02  0.45425020584E+02  0.00000000000E+00 0.  1.
        -13    1    3    3    0    0  0.48744358126E+02 -0.42585479089E-01 -0.23137467520E+03  0.23645349349E+03  0.00000000000E+00 0.  1.
         13    1    3    3    0    0 -0.29392072145E+02  0.48167800326E+02 -0.23584429045E+03  0.24250063965E+03  0.00000000000E+00 0. -1.
          2    1    1    2  501    0  0.38312053956E+01  0.61736837933E+02 -0.90061698032E+02  0.10925760726E+03  0.00000000000E+00 0. -1.
<scales pt_clust_5="13000.00000" pt_clust_6="13000.00000" pt_clust_7="13000.00000" pt_clust_8="13000.00000" pt_clust_9="61.85563"></scales>
<clustering>
<clus scale="   61.856">  1  9  2 -1</clus>
<clus scale="   89.188">  5  6 -1 -1</clus>
<clus scale="   91.722">  7  8 -1 -1</clus>
<clus scale="  105.741">  1  5  2 -1</clus>
<clus scale="   61.856">  1  5  2 -1</clus>
</clustering>
</event>
<event>
 9    1  0.1445593E-005  0.1060851E+03  0.7546771E-02  0.1268680E+00
         21   -1    0    0  501  502  0.00000000000E+00  0.00000000000E+00  0.43200475299E+02  0.43200475299E+02  0.00000000000E+00 0.  1.
          1   -1    0    0  502    0 -0.00000000000E+00 -0.00000000000E+00 -0.50029545656E+03  0.50029545656E+03  0.00000000000E+00 0. -1.
         23    2    1    2    0    0 -0.87790892759E+01 -0.76321305079E+02 -0.28098788140E+03  0.30525450192E+03  0.91236546588E+02 0.  0.
         23    2    1    2    0    0  0.29677885272E+02  0.16694020281E+02 -0.12125579445E+03  0.15457041660E+03  0.89607917142E+02 0.  0.
        -11    1    4    4    0    0 -0.20311107073E+02 -0.23769768714E+02 -0.34242655681E+02  0.46369197139E+02  0.00000000000E+00 0. -1.
         11    1    4    4    0    0  0.49988992345E+02  0.40463788995E+02 -0.87013138768E+02  0.10820121947E+03  0.00000000000E+00 0.  1.
        -13    1    3    3    0    0  0.18819287516E+02 -0.79016701328E+02 -0.25355585841E+03  0.26624871456E+03  0.00000000000E+00 0. -1.
         13    1    3    3    0    0 -0.27598376792E+02  0.26953962488E+01 -0.27432022991E+02  0.39005787364E+02  0.00000000000E+00 0.  1.
          1    1    1    2  501    0 -0.20898795996E+02  0.59627284798E+02 -0.54851305412E+02  0.83671013331E+02  0.00000000000E+00 0. -1.
<scales pt_clust_5="13000.00000" pt_clust_6="13000.00000" pt_clust_7="13000.00000" pt_clust_8="13000.00000" pt_clust_9="63.18364"></scales>
<clustering>
<clus scale="   63.184">  1  9  2 -1</clus>
<clus scale="   89.608">  5  6 -1 -1</clus>
<clus scale="   91.237">  7  8 -1 -1</clus>
<clus scale="  104.688">  1  5  2 -1</clus>
<clus scale="   63.184">  1  5  2 -1</clus>
</clustering>
</event>
<event>
 9    1  0.1445593E-005  0.1208773E+03  0.7546771E-02  0.1254570E+00
         21   -1    0    0  501  502  0.00000000000E+00  0.00000000000E+00  0.52583446606E+02  0.52583446606E+02  0.00000000000E+00 0.  1.
          2   -1    0    0  502    0 -0.00000000000E+00 -0.00000000000E+00 -0.34007750740E+03  0.34007750740E+03  0.00000000000E+00 0. -1.
         23    2    1    2    0    0  0.59545973621E+02 -0.26298108382E+02 -0.19605551927E+03  0.23078085399E+03  0.10288208034E+03 0.  0.
         23    2    1    2    0    0 -0.42769999291E+02  0.47893410000E+02 -0.36816790234E+02  0.10079551865E+03  0.68419361115E+02 0.  0.
        -11    1    3    3    0    0  0.20850954100E+02 -0.38767802308E+02 -0.18279158780E+03  0.18801720494E+03  0.00000000000E+00 0. -1.
         11    1    3    3    0    0  0.38695019520E+02  0.12469693926E+02 -0.13263931468E+02  0.42763649052E+02  0.00000000000E+00 0.  1.
        -11    1    4    4    0    0 -0.35914222244E+02  0.93619982300E+01  0.11277183683E+02  0.38789860042E+02  0.00000000000E+00 0.  1.
         11    1    4    4    0    0 -0.68557770467E+01  0.38531411770E+02 -0.48093973917E+02  0.62005658605E+02  0.00000000000E+00 0. -1.
          2    1    1    2  501    0 -0.16775974330E+02 -0.21595301618E+02 -0.54621751289E+02  0.61084581365E+02  0.00000000000E+00 0. -1.
<scales pt_clust_5="13000.00000" pt_clust_6="13000.00000" pt_clust_7="13000.00000" pt_clust_8="13000.00000" pt_clust_9="27.34577"></scales>
<clustering>
<clus scale="   27.346">  1  9  2 -1</clus>
<clus scale="   68.419">  7  8 -1 -1</clus>
<clus scale="   93.316">  1  7  2 -1</clus>
<clus scale="  102.882">  5  6 -1 -1</clus>
<clus scale="   27.346">  1  5  2 -1</clus>
</clustering>
</event>
<event>
 9    1  0.1445593E-005  0.9406051E+02  0.7546771E-02  0.1294174E+00
         21   -1    0    0  501  502  0.00000000000E+00  0.00000000000E+00  0.23070524690E+03  0.23070524690E+03  0.00000000000E+00 0.  1.
          1   -1    0    0  502    0 -0.00000000000E+00 -0.00000000000E+00 -0.13698124957E+03  0.13698124957E+03  0.00000000000E+00 0. -1.
         23    2    1    2    0    0  0.22714219845E+01  0.15196175767E+02 -0.96749859744E+02  0.13405372702E+03  0.91508378036E+02 0.  0.
         23    2    1    2    0    0 -0.31085113390E+02  0.74961914074E+01  0.14479971563E+03  0.17505547404E+03  0.93032167472E+02 0.  0.
        -11    1    4    4    0    0 -0.20511816989E+02 -0.28577514612E+02  0.12996749520E+03  0.13464382194E+03  0.00000000000E+00 0.  1.
         11    1    4    4    0    0 -0.10573296401E+02  0.36073706019E+02  0.14832220431E+02  0.40411652102E+02  0.00000000000E+00 0. -1.
        -13    1    3    3    0    0  0.39030227972E+02  0.27624660544E+02 -0.76680042690E+02  0.90367635316E+02  0.00000000000E+00 0. -1.
         13    1    3    3    0    0 -0.36758805987E+02 -0.12428484777E+02 -0.20069817054E+02  0.43686091700E+02  0.00000000000E+00 0.  1.
          1    1    1    2  501    0  0.28813691405E+02 -0.22692367174E+02  0.45674141447E+02  0.58577295408E+02  0.00000000000E+00 0. -1.
<scales pt_clust_5="13000.00000" pt_clust_6="13000.00000" pt_clust_7="13000.00000" pt_clust_8="13000.00000" pt_clust_9="36.67659"></scales>
<clustering>
<clus scale="   36.677">  1  9  2 -1</clus>
<clus scale="   91.508">  7  8 -1 -1</clus>
<clus scale="   92.554">  2  7  1 -1</clus>
<clus scale="   93.032">  5  6 -1 -1</clus>
<clus scale="   36.677">  1  5  2 -1</clus>
</clustering>
</event>
<event>
 9    1  0.1445593E-005  0.9902914E+02  0.7546771E-02  0.1283786E+00
          3   -1    0    0  502    0 -0.00000000000E+00  0.00000000000E+00  0.11953102213E+03  0.11953102213E+03  0.00000000000E+00 0. -1.
         21   -1    0    0  501  502  0.00000000000E+00 -0.00000000000E+00 -0.38032094837E+03  0.38032094837E+03  0.00000000000E+00 0. -1.
         23    2    1    2    0    0  0.40939228954E+02 -0.46818346893E+02  0.27246316503E+02  0.11487916909E+03  0.92665439371E+02 0.  0.
         23    2    1    2    0    0 -0.22237102642E+02 -0.33618749609E+02 -0.14834938612E+02  0.99562835571E+02  0.89821900248E+02 0.  0.
        -13    1    4    4    0    0  0.20951956115E+02  0.18795810455E+02  0.54756347806E+01  0.28674893757E+02  0.00000000000E+00 0.  1.
         13    1    4    4    0    0 -0.43189058757E+02 -0.52414560064E+02 -0.20310573393E+02  0.70887941814E+02  0.00000000000E+00 0. -1.
        -13    1    3    3    0    0 -0.59838167064E+01 -0.42314787454E+02 -0.20835901588E+02  0.47544527494E+02  0.00000000000E+00 0.  1.
         13    1    3    3    0    0  0.46923045660E+02 -0.45035594386E+01  0.48082218091E+02  0.67334641591E+02  0.00000000000E+00 0. -1.
          3    1    1    2  501    0 -0.18702126312E+02  0.80437096502E+02 -0.27320130413E+03  0.28540996584E+03  0.00000000000E+00 0. -1.
<scales pt_clust_5="13000.00000" pt_clust_6="13000.00000" pt_clust_7="13000.00000" pt_clust_8="13000.00000" pt_clust_9="82.58266"></scales>
<clustering>
<clus scale="   82.583">  2  9  1 -1</clus>
<clus scale="   89.822">  5  6 -1 -1</clus>
<clus scale="   92.665">  7  8 -1 -1</clus>
<clus scale="   96.374">  2  5  1 -1</clus>
<clus scale="   82.583">  2  5  1 -1</clus>
</clustering>
</event>
<event>
 9    1  0.1445593E-005  0.1008257E+03  0.7546771E-02  0.1279398E+00
         -1   -1    0    0    0  501 -0.00000000000E+00  0.00000000000E+00  0.69848826531E+03  0.69848826531E+03  0.00000000000E+00 0.  1.
         21   -1    0    0  501  502  0.00000000000E+00 -0.00000000000E+00 -0.18623574383E+02  0.18623574383E+02  0.00000000000E+00 0. -1.
         23    2    1    2    0    0  0.84571746903E+01  0.42927799775E+02  0.34646352008E+03  0.36071787393E+03  0.90366443073E+02 0.  0.
         23    2    1    2    0    0  0.11692238747E+02 -0.38858199571E+02  0.30608971004E+03  0.32221098170E+03  0.92099609202E+02 0.  0.
        -11    1    4    4    0    0  0.39083950954E+02  0.12850216659E+02  0.14903389645E+03  0.15460849130E+03  0.00000000000E+00 0.  1.
         11    1    4    4    0    0 -0.27391712207E+02 -0.51708416230E+02  0.15705581358E+03  0.16760249040E+03  0.00000000000E+00 0. -1.
        -11    1    3    3    0    0  0.37573787177E+02  0.53768656012E+02  0.27635614883E+03  0.28403446771E+03  0.00000000000E+00 0.  1.
         11    1    3    3    0    0 -0.29116612486E+02 -0.10840856237E+02  0.70107371248E+02  0.76683406223E+02  0.00000000000E+00 0. -1.
         -1    1    1    2    0  502 -0.20149413437E+02 -0.40696002045E+01  0.27311460814E+02  0.34182984064E+02  0.00000000000E+00 0.  1.
<scales pt_clust_5="13000.00000" pt_clust_6="13000.00000" pt_clust_7="13000.00000" pt_clust_8="13000.00000" pt_clust_9="20.55628"></scales>
<clustering>
<clus scale="   20.556">  2  9  1 -1</clus>
<clus scale="   90.366">  7  8 -1 -1</clus>
<clus scale="   92.100">  5  6 -1 -1</clus>
<clus scale="   99.245">  1  7  2 -1</clus>
<clus scale="   20.556">  2  5  1 -1</clus>
</clustering>
</event>
<event>
 9    1  0.1445593E-005  0.1228503E+03  0.7546771E-02  0.1238801E+00
          1   -1    0    0  502    0 -0.00000000000E+00  0.00000000000E+00  0.20446748106E+03  0.20446748106E+03  0.00000000000E+00 0. -1.
         21   -1    0    0  501  502  0.00000000000E+00 -0.00000000000E+00 -0.13688511342E+03  0.13688511342E+03  0.00000000000E+00 0.  1.
         23    2    1    2    0    0  0.83407524159E+00  0.70431037830E+02  0.54412024959E+02  0.12866482752E+03  0.92912553567E+02 0.  0.
         23    2    1    2    0    0  0.60098388384E+01 -0.90293913974E+02  0.73786089974E+02  0.14853449870E+03  0.91809591918E+02 0.  0.
        -13    1    3    3    0    0  0.18534605606E+02  0.83676344764E+02  0.20399453760E+02  0.88098808117E+02  0.00000000000E+00 0. -1.
         13    1    3    3    0    0 -0.17700530364E+02 -0.13245306933E+02  0.34012571199E+02  0.40566019407E+02  0.00000000000E+00 0.  1.
        -13    1    4    4    0    0  0.17600393204E+02 -0.58507884543E+02 -0.64689550156E+01  0.61439350368E+02  0.00000000000E+00 0.  1.
         13    1    4    4    0    0 -0.11590554365E+02 -0.31786029431E+02  0.80255044990E+02  0.87095148337E+02  0.00000000000E+00 0. -1.
          1    1    1    2  501    0 -0.68439140800E+01  0.19862876144E+02 -0.60615747291E+02  0.64153268259E+02  0.00000000000E+00 0. -1.
<scales pt_clust_5="13000.00000" pt_clust_6="13000.00000" pt_clust_7="13000.00000" pt_clust_8="13000.00000" pt_clust_9="21.00888"></scales>
<clustering>
<clus scale="   21.009">  2  9  1 -1</clus>
<clus scale="   91.810">  7  8 -1 -1</clus>
<clus scale="   92.913">  5  6 -1 -1</clus>
<clus scale="  122.018">  2  7  1 -1</clus>
<clus scale="   21.009">  2  5  1 -1</clus>
</clustering>
</event>
<event>
 9    1  0.1445593E-005  0.1295978E+03  0.7546771E-02  0.1236080E+00
         21   -1    0    0  501  502  0.00000000000E+00  0.00000000000E+00  0.19512737155E+03  0.19512737155E+03  0.00000000000E+00 0. -1.
          3   -1    0    0  502    0 -0.00000000000E+00 -0.00000000000E+00 -0.43160016529E+03  0.43160016529E+03  0.00000000000E+00 0. -1.
         23    2    1    2    0    0 -0.50198856658E+02 -0.37075918195E+02 -0.33905450071E+03  0.36236335841E+03  0.11160062789E+03 0.  0.
         23    2    1    2    0    0  0.55581827125E+02  0.57302002384E+02 -0.36092638674E+02  0.12411923201E+03  0.87920681330E+02 0.  0.
        -11    1    3    3    0    0  0.26437143607E+02  0.45331897902E+01 -0.25872349450E+02  0.37267289113E+02  0.00000000000E+00 0.  1.
         11    1    3    3    0    0 -0.76636000265E+02 -0.41609107985E+02 -0.31318215126E+03  0.32509606930E+03  0.00000000000E+00 0. -1.
        -13    1    4    4    0    0  0.23848297992E+02  0.22562610132E+02 -0.62183589312E+02  0.70317931374E+02  0.00000000000E+00 0. -1.
         13    1    4    4    0    0  0.31733529134E+02  0.34739392253E+02  0.26090950638E+02  0.53801300640E+02  0.00000000000E+00 0.  1.
          3    1    1    2  501    0 -0.53829704677E+01 -0.20226084189E+02  0.13867434565E+03  0.14024494641E+03  0.00000000000E+00 0. -1.
<scales pt_clust_5="13000.00000" pt_clust_6="13000.00000" pt_clust_7="13000.00000" pt_clust_8="13000.00000" pt_clust_9="20.93014"></scales>
<clustering>
<clus scale="   20.930">  1  9  2 -1</clus>
<clus scale="   87.921">  7  8 -1 -1</clus>
<clus scale="  109.868">  1  7  2 -1</clus>
<clus scale="  111.601">  5  6 -1 -1</clus>
<clus scale="   20.930">  1  5  2 -1</clus>
</clustering>
</event>
<event>
 9    1  0.1445593E-005  0.1389210E+03  0.7546771E-02  0.1227437E+00
         21   -1    0    0  501  502  0.00000000000E+00  0.00000000000E+00  0.34928792878E+03  0.34928792878E+03  0.00000000000E+00 0. -1.
          1   -1    0    0  502    0 -0.00000000000E+00 -0.00000000000E+00 -0.17400647828E+03  0.17400647828E+03  0.00000000000E+00 0. -1.
         23    2    1    2    0    0 -0.52518496345E+02  0.89513063564E+01 -0.10111703559E+03  0.14690841522E+03  0.92299020757E+02 0.  0.
         23    2    1    2    0    0 -0.58237206905E+02  0.42302252838E+02  0.66326252591E+02  0.13343723918E+03  0.90693286164E+02 0.  0.
        -11    1    4    4    0    0  0.17927377917E+02  0.24204212577E+02 -0.10673156726E+01  0.30139242662E+02  0.00000000000E+00 0.  1.
         11    1    4    4    0    0 -0.76164584823E+02  0.18098040261E+02  0.67393568263E+02  0.10329799652E+03  0.00000000000E+00 0. -1.
        -13    1    3    3    0    0  0.83444395025E+00 -0.26105324138E+02 -0.72286769169E+02  0.76860661212E+02  0.00000000000E+00 0.  1.
         13    1    3    3    0    0 -0.53352940296E+02  0.35056630494E+02 -0.28830266417E+02  0.70047754007E+02  0.00000000000E+00 0. -1.
          1    1    1    2  501    0  0.11075570325E+03 -0.51253559194E+02  0.21007223350E+03  0.24294875266E+03  0.00000000000E+00 0. -1.
<scales pt_clust_5="13000.00000" pt_clust_6="13000.00000" pt_clust_7="13000.00000" pt_clust_8="13000.00000" pt_clust_9="105.23194"></scales>
<clustering>
<clus scale="   90.693">  5  6 -1 -1</clus>
<clus scale="   92.299">  7  8 -1 -1</clus>
<clus scale="  106.571">  2  7  1 -1</clus>
<clus scale="  105.232">  1  9  2 -1</clus>
<clus scale="  105.232">  1  5  2 -1</clus>
</clustering>
</event>
<event>
 9    1  0.1445593E-005  0.1407945E+03  0.7546771E-02  0.1213316E+00
          1   -1    0    0  502    0 -0.00000000000E+00  0.00000000000E+00  0.91795327230E+03  0.91795327230E+03  0.00000000000E+00 0. -1.
         21   -1    0    0  501  502  0.00000000000E+00 -0.00000000000E+00 -0.84118792370E+02  0.84118792370E+02  0.00000000000E+00 0. -1.
         23    2    1    2    0    0  0.12892395235E+03 -0.23424908341E+02  0.59370037570E+03  0.61493527812E+03  0.92169129074E+02 0.  0.
         23    2    1    2    0    0 -0.80024680159E+02  0.27185327474E+01  0.29063205312E+03  0.31385694176E+03  0.87337561991E+02 0.  0.
        -13    1    4    4    0    0  0.33757275979E+01 -0.21581948380E+02  0.12432194521E+03  0.12622647145E+03  0.00000000000E+00 0. -1.
         13    1    4    4    0    0 -0.83400407756E+02  0.24300481128E+02  0.16631010791E+03  0.18763047031E+03  0.00000000000E+00 0.  1.
        -13    1    3    3    0    0  0.49912822692E+02  0.29721459140E+02  0.14423820281E+03  0.15549699081E+03  0.00000000000E+00 0.  1.
         13    1    3    3    0    0  0.79011129656E+02 -0.53146367481E+02  0.44946217289E+03  0.45943828731E+03  0.00000000000E+00 0. -1.
          1    1    1    2  501    0 -0.48899272189E+02  0.20706375594E+02 -0.50497948887E+02  0.73279844791E+02  0.00000000000E+00 0. -1.
<scales pt_clust_5="13000.00000" pt_clust_6="13000.00000" pt_clust_7="13000.00000" pt_clust_8="13000.00000" pt_clust_9="53.10266"></scales>
<clustering>
<clus scale="   53.103">  2  9  1 -1</clus>
<clus scale="   87.338">  5  6 -1 -1</clus>
<clus scale="   92.169">  7  8 -1 -1</clus>
<clus scale="  137.680">  2  5  1 -1</clus>
<clus scale="   53.103">  2  5  1 -1</clus>
</clustering>
</event>
<event>
 9    1  0.1445593E-005  0.1180743E+03  0.7546771E-02  0.1250497E+00
         -3   -1    0    0    0  501 -0.00000000000E+00  0.00000000000E+00  0.54080160914E+03  0.54080160914E+03  0.00000000000E+00 0.  1.
         21   -1    0    0  501  502  0.00000000000E+00 -0.00000000000E+00 -0.49731557014E+02  0.49731557014E+02  0.00000000000E+00 0.  1.
         23    2    1    2    0    0  0.40443300028E+02 -0.79522555475E+02  0.33230693016E+03  0.35865182820E+03  0.10121136641E+03 0.  0.
         23    2    1    2    0    0  0.72477896672E+01  0.30069266000E+02  0.11956566815E+03  0.15278324530E+03  0.89944871066E+02 0.  0.
        -11    1    3    3    0    0  0.11735783912E+02  0.16246920697E+02  0.12593594087E+02  0.23670438699E+02  0.00000000000E+00 0. -1.
         11    1    3    3    0    0  0.28707516116E+02 -0.95769476173E+02  0.31971333608E+03  0.33498138950E+03  0.00000000000E+00 0.  1.
        -13    1    4    4    0    0  0.48222817606E+02  0.23282177321E+02  0.69302522384E+02  0.87580474579E+02  0.00000000000E+00 0.  1.
         13    1    4    4    0    0 -0.40975027939E+02  0.67870886787E+01  0.50263145765E+02  0.65202770720E+02  0.00000000000E+00 0. -1.
         -3    1    1    2    0  502 -0.47691089695E+02  0.49453289475E+02  0.39197453815E+02  0.79098092656E+02  0.00000000000E+00 0.  1.
<scales pt_clust_5="13000.00000" pt_clust_6="13000.00000" pt_clust_7="13000.00000" pt_clust_8="13000.00000" pt_clust_9="68.70275"></scales>
<clustering>
<clus scale="   68.703">  2  9  1 -1</clus>
<clus scale="   89.945">  7  8 -1 -1</clus>
<clus scale="  101.211">  5  6 -1 -1</clus>
<clus scale="  108.572">  2  7  1 -1</clus>
<clus scale="   68.703">  2  5  1 -1</clus>
</clustering>
</event>
<event>
 9    1  0.1445593E-005  0.9585835E+02  0.7546771E-02  0.1289833E+00
          2   -1    0    0  502    0 -0.00000000000E+00  0.00000000000E+00  0.79019032346E+02  0.79019032346E+02  0.00000000000E+00 0. -1.
         21   -1    0    0  501  502  0.00000000000E+00 -0.00000000000E+00 -0.15523090017E+03  0.15523090017E+03  0.00000000000E+00 0. -1.
         23    2    1    2    0    0 -0.39574879787E+02  0.89205881949E+00 -0.25464457083E+02  0.10190275494E+03  0.90381225981E+02 0.  0.
         23    2    1    2    0    0  0.15626379027E+02  0.13942202934E+02 -0.35568782234E+02  0.10034754049E+03  0.91465413512E+02 0.  0.
        -11    1    3    3    0    0 -0.68678348031E+02  0.60424202142E+01 -0.20551082730E+02  0.71941457670E+02  0.00000000000E+00 0. -1.
         11    1    3    3    0    0  0.29103468244E+02 -0.51503613948E+01 -0.49133743525E+01  0.29961297266E+02  0.00000000000E+00 0.  1.
        -13    1    4    4    0    0  0.46560912081E+02  0.28075373341E+02 -0.49676692432E+01  0.54596912548E+02  0.00000000000E+00 0. -1.
         13    1    4    4    0    0 -0.30934533054E+02 -0.14133170407E+02 -0.30601112991E+02  0.45750627944E+02  0.00000000000E+00 0.  1.
          2    1    1    2  501    0  0.23948500760E+02 -0.14834261753E+02 -0.15178628506E+02  0.31999637087E+02  0.00000000000E+00 0. -1.
<scales pt_clust_5="13000.00000" pt_clust_6="13000.00000" pt_clust_7="13000.00000" pt_clust_8="13000.00000" pt_clust_9="28.17066"></scales>
<clustering>
<clus scale="   28.171">  2  9  1 -1</clus>
<clus scale="   90.381">  5  6 -1 -1</clus>
<clus scale="   91.465">  7  8 -1 -1</clus>
<clus scale="   94.824">  1  5  2 -1</clus>
<clus scale="   28.171">  2  5  1 -1</clus>
</clustering>
</event>
<event>
 9    1  0.1445593E-005  0.9334085E+02  0.7546771E-02  0.1295400E+00
          1   -1    0    0  502    0 -0.00000000000E+00  0.00000000000E+00  0.31580483241E+02  0.31580483241E+02  0.00000000000E+00 0. -1.
         21   -1    0    0  501  502  0.00000000000E+00 -0.00000000000E+00 -0.42755313962E+03  0.42755313962E+03  0.00000000000E+00 0.  1.
         23    2    1    2    0    0  0.10281601564E+02 -0.20096525211E+02 -0.10094676731E+03  0.13766445970E+03  0.90838714093E+02 0.  0.
         23    2    1    2    0    0 -0.27979212267E+02  0.15735375496E+01 -0.17558057297E+03  0.19930742597E+03  0.90053318099E+02 0.  0.
        -11    1    4    4    0    0 -0.52592469912E+02 -0.24162303119E+02 -0.12111187441E+03  0.13423066306E+03  0.00000000000E+00 0.  1.
         11    1    4    4    0    0  0.24613257645E+02  0.25735840668E+02 -0.54468698563E+02  0.65076762904E+02  0.00000000000E+00 0. -1.
        -13    1    3    3    0    0  0.50691992817E+02 -0.10343420294E+02 -0.50515376719E+02  0.72308144522E+02  0.00000000000E+00 0. -1.
         13    1    3    3    0    0 -0.40410391254E+02 -0.97531049165E+01 -0.50431390590E+02  0.65356315178E+02  0.00000000000E+00 0.  1.
          1    1    1    2  501    0  0.17697610703E+02  0.18522987661E+02 -0.11944531610E+03  0.12216173719E+03  0.00000000000E+00 0. -1.
<scales pt_clust_5="13000.00000" pt_clust_6="13000.00000" pt_clust_7="13000.00000" pt_clust_8="13000.00000" pt_clust_9="25.61848"></scales>
<clustering>
<clus scale="   25.618">  2  9  1 -1</clus>
<clus scale="   90.053">  5  6 -1 -1</clus>
<clus scale="   90.839">  7  8 -1 -1</clus>
<clus scale="   92.577">  2  5  1 -1</clus>
<clus scale="   25.618">  2  5  1 -1</clus>
</clustering>
</event>
<event>
 9    1  0.1445593E-005  0.1035524E+03  0.7546771E-02  0.1273534E+00
         21   -1    0    0  501  502  0.00000000000E+00  0.00000000000E+00  0.75619240704E+02  0.75619240704E+02  0.00000000000E+00 0. -1.
         -4   -1    0    0    0  501 -0.00000000000E+00 -0.00000000000E+00 -0.27181070258E+03  0.27181070258E+03  0.00000000000E+00 0.  1.
         23    2    1    2    0    0 -0.33821647405E+02 -0.35843533227E+02 -0.15983837457E+03  0.19111538060E+03  0.92456043666E+02 0.  0.
         23    2    1    2    0    0  0.32384570575E+01  0.48974898080E+02 -0.55873578197E+02  0.11772941218E+03  0.91265160416E+02 0.  0.
        -13    1    4    4    0    0 -0.13481733433E+02  0.63313411579E+02 -0.66905326287E+02  0.93094940291E+02  0.00000000000E+00 0.  1.
         13    1    4    4    0    0  0.16720190490E+02 -0.14338513499E+02  0.11031748090E+02  0.24634471890E+02  0.00000000000E+00 0. -1.
        -13    1    3    3    0    0 -0.57480992733E+02 -0.21707336056E+02 -0.14957906061E+03  0.16170704480E+03  0.00000000000E+00 0. -1.
         13    1    3    3    0    0  0.23659345328E+02 -0.14136197172E+02 -0.10259313959E+02  0.29408335804E+02  0.00000000000E+00 0.  1.
         -4    1    1    2    0  502  0.30583190347E+02 -0.13131364853E+02  0.19520490890E+02  0.38585150502E+02  0.00000000000E+00 0.  1.
<scales pt_clust_5="13000.00000" pt_clust_6="13000.00000" pt_clust_7="13000.00000" pt_clust_8="13000.00000" pt_clust_9="33.28309"></scales>
<clustering>
<clus scale="   33.283">  1  9  2 -1</clus>
<clus scale="   91.265">  5  6 -1 -1</clus>
<clus scale="   92.456">  7  8 -1 -1</clus>
<clus scale="  102.491">  1  5  2 -1</clus>
<clus scale="   33.283">  1  5  2 -1</clus>
</clustering>
</event>
<event>
 9    1  0.1445593E-005  0.1097012E+03  0.7546771E-02  0.1261916E+00
         -1   -1    0    0    0  501 -0.00000000000E+00  0.00000000000E+00  0.10024088316E+03  0.10024088316E+03  0.00000000000E+00 0.  1.
         21   -1    0    0  501  502  0.00000000000E+00 -0.00000000000E+00 -0.33177230298E+03  0.33177230298E+03  0.00000000000E+00 0. -1.
         23    2    1    2    0    0 -0.64034718573E+02  0.89351331534E+00  0.42088401864E+02  0.12045544130E+03  0.92934580310E+02 0.  0.
         23    2    1    2    0    0  0.30613212248E+02 -0.31663795966E+02 -0.16048259452E+03  0.18964039765E+03  0.90934330905E+02 0.  0.
        -13    1    3    3    0    0  0.12412652947E+02  0.17660088071E+02 -0.12583939976E+02  0.24986160353E+02  0.00000000000E+00 0. -1.
         13    1    3    3    0    0 -0.76447371520E+02 -0.16766574756E+02  0.54672341840E+02  0.95469280942E+02  0.00000000000E+00 0.  1.
        -13    1    4    4    0    0  0.32190402565E+02 -0.59477141945E+02 -0.81596790033E+02  0.10598013293E+03  0.00000000000E+00 0.  1.
         13    1    4    4    0    0 -0.15771903172E+01  0.27813345980E+02 -0.78885804484E+02  0.83660264719E+02  0.00000000000E+00 0. -1.
         -1    1    1    2    0  502  0.33421506325E+02  0.30770282650E+02 -0.11313722717E+03  0.12191734721E+03  0.00000000000E+00 0.  1.
<scales pt_clust_5="13000.00000" pt_clust_6="13000.00000" pt_clust_7="13000.00000" pt_clust_8="13000.00000" pt_clust_9="45.42915"></scales>
<clustering>
<clus scale="   45.429">  2  9  1 -1</clus>
<clus scale="   90.934">  7  8 -1 -1</clus>
<clus scale="   92.935">  5  6 -1 -1</clus>
<clus scale="  108.012">  2  7  1 -1</clus>
<clus scale="   45.429">  2  5  1 -1</clus>
</clustering>
</event>
<event>
 9    1  0.1445593E-005  0.9277988E+02  0.7546771E-02  0.1297054E+00
         -3   -1    0    0    0  501 -0.00000000000E+00  0.00000000000E+00  0.31263241490E+03  0.31263241490E+03  0.00000000000E+00 0.  1.
         21   -1    0    0  501  502  0.00000000000E+00 -0.00000000000E+00 -0.18964985335E+03  0.18964985335E+03  0.00000000000E+00 0.  1.
         23    2    1    2    0    0  0.37182673808E+01  0.58347060017E+01  0.18076881609E+03  0.20265662620E+03  0.91348092281E+02 0.  0.
         23    2    1    2    0    0 -0.14166687142E+01  0.15534043100E+02  0.10181605129E+03  0.13858273839E+03  0.92711130047E+02 0.  0.
        -11    1    3    3    0    0  0.34254576312E+02  0.14306764315E+02  0.27637249849E+02  0.46280417918E+02  0.00000000000E+00 0.  1.
         11    1    3    3    0    0 -0.30536308931E+02 -0.84720583132E+01  0.15313156625E+03  0.15637620828E+03  0.00000000000E+00 0. -1.
        -13    1    4    4    0    0 -0.10932751763E+02 -0.32680977528E+02  0.12536543327E+02  0.36670645916E+02  0.00000000000E+00 0. -1.
         13    1    4    4    0    0  0.95160830484E+01  0.48215020628E+02  0.89279507960E+02  0.10191209247E+03  0.00000000000E+00 0.  1.
         -3    1    1    2    0  502 -0.23015986667E+01 -0.21368749102E+02 -0.15960230583E+03  0.16104290366E+03  0.00000000000E+00 0.  1.
<scales pt_clust_5="13000.00000" pt_clust_6="13000.00000" pt_clust_7="13000.00000" pt_clust_8="13000.00000" pt_clust_9="21.49234"></scales>
<clustering>
<clus scale="   21.492">  2  9  1 -1</clus>
<clus scale="   91.348">  5  6 -1 -1</clus>
<clus scale="   91.418">  1  5  2 -1</clus>
<clus scale="   92.711">  7  8 -1 -1</clus>
<clus scale="   21.492">  2  5  1 -1</clus>
</clustering>
</event>
<event>
 9    1  0.1445593E-005  0.9257400E+02  0.7546771E-02  0.1297303E+00
         -1   -1    0    0    0  501 -0.00000000000E+00  0.00000000000E+00  0.87513781693E+02  0.87513781693E+02  0.00000000000E+00 0.  1.
         21   -1    0    0  501  502  0.00000000000E+00 -0.00000000000E+00 -0.14448520546E+03  0.14448520546E+03  0.00000000000E+00 0. -1.
         23    2    1    2    0    0 -0.17780176263E+02 -0.57941158278E+00 -0.14735032160E+02  0.95387533345E+02  0.92548311487E+02 0.  0.
         23    2    1    2    0    0 -0.16136701514E+02 -0.44500469238E+01 -0.18523119325E+02  0.94922494440E+02  0.91580445226E+02 0.  0.
        -11    1    3    3    0    0  0.31172095455E+02  0.21562635472E+02 -0.17158150853E+02  0.41605876078E+02  0.00000000000E+00 0.  1.
         11    1    3    3    0    0 -0.48952271718E+02 -0.22142047054E+02  0.24231186931E+01  0.53781657266E+02  0.00000000000E+00 0. -1.
        -13    1    4    4    0    0  0.11002984361E+02 -0.43814313141E+02 -0.11301058099E+02  0.46566872507E+02  0.00000000000E+00 0.  1.
         13    1    4    4    0    0 -0.27139685875E+02  0.39364266217E+02 -0.72220612257E+01  0.48355621934E+02  0.00000000000E+00 0. -1.
         -1    1    1    2    0  502  0.33916877777E+02  0.50294585066E+01 -0.23713272286E+02  0.41688959372E+02  0.00000000000E+00 0.  1.
<scales pt_clust_5="13000.00000" pt_clust_6="13000.00000" pt_clust_7="13000.00000" pt_clust_8="13000.00000" pt_clust_9="34.28775"></scales>
<clustering>
<clus scale="   34.288">  2  9  1 -1</clus>
<clus scale="   91.580">  7  8 -1 -1</clus>
<clus scale="   91.606">  2  7  1 -1</clus>
<clus scale="   92.548">  5  6 -1 -1</clus>
<clus scale="   34.288">  2  5  1 -1</clus>
</clustering>
</event>
<event>
 9    1  0.1445593E-005  0.9837036E+02  0.7546771E-02  0.1284458E+00
         21   -1    0    0  501  502  0.00000000000E+00  0.00000000000E+00  0.91688859277E+02  0.91688859277E+02  0.00000000000E+00 0.  1.
          1   -1    0    0  502    0 -0.00000000000E+00 -0.00000000000E+00 -0.27481622326E+03  0.27481622326E+03  0.00000000000E+00 0. -1.
         23    2    1    2    0    0 -0.44680510129E+01  0.28205019727E+02 -0.12617895269E+03  0.15698201330E+03  0.88919839071E+02 0.  0.
         23    2    1    2    0    0 -0.58675934158E+02 -0.52564735772E+02 -0.72507479573E+02  0.14007781573E+03  0.90324654270E+02 0.  0.
        -11    1    4    4    0    0 -0.26202042529E+02 -0.54625839055E+02  0.20600072353E-01  0.60584897041E+02  0.00000000000E+00 0.  1.
         11    1    4    4    0    0 -0.32473891629E+02  0.20611032833E+01 -0.72528079645E+02  0.79492918687E+02  0.00000000000E+00 0. -1.
        -13    1    3    3    0    0  0.29389045016E+02 -0.18755870597E+02 -0.38778981373E+02  0.52146985005E+02  0.00000000000E+00 0.  1.
         13    1    3    3    0    0 -0.33857096029E+02  0.46960890324E+02 -0.87399971316E+02  0.10483502829E+03  0.00000000000E+00 0. -1.
          1    1    1    2  501    0  0.63143985171E+02  0.24359716045E+02  0.15559068280E+02  0.69445253508E+02  0.00000000000E+00 0. -1.
<scales pt_clust_5="13000.00000" pt_clust_6="13000.00000" pt_clust_7="13000.00000" pt_clust_8="13000.00000" pt_clust_9="67.67982"></scales>
<clustering>
<clus scale="   67.680">  1  9  2 -1</clus>
<clus scale="   88.920">  7  8 -1 -1</clus>
<clus scale="   90.325">  5  6 -1 -1</clus>
<clus scale="   97.082">  2  7  1 -1</clus>
<clus scale="   67.680">  1  5  2 -1</clus>
</clustering>
</event>
<event>
 9    1  0.1445593E-005  0.2346566E+03  0.7546771E-02  0.1159243E+00
          2   -1    0    0  502    0 -0.00000000000E+00  0.00000000000E+00  0.15834722029E+04  0.15834722029E+04  0.00000000000E+00 0.  1.
         21   -1    0    0  501  502  0.00000000000E+00 -0.00000000000E+00 -0.48869382307E+02  0.48869382307E+02  0.00000000000E+00 0.  1.
         23    2    1    2    0    0 -0.26556328261E+02  0.26873457163E+02  0.36927618194E+03  0.38232633706E+03  0.91548392614E+02 0.  0.
         23    2    1    2    0    0 -0.22715634741E+02 -0.22703707155E+03  0.62612649479E+03  0.67275448038E+03  0.92208304788E+02 0.  0.
        -11    1    4    4    0    0 -0.26545557887E+02 -0.17446906991E+03  0.35376730108E+03  0.39534216359E+03  0.00000000000E+00 0.  1.
         11    1    4    4    0    0  0.38299231458E+01 -0.52568001643E+02  0.27235919371E+03  0.27741231679E+03  0.00000000000E+00 0. -1.
        -13    1    3    3    0    0  0.24164713191E+02 -0.18888534847E+02  0.10870508498E+03  0.11294912842E+03  0.00000000000E+00 0.  1.
         13    1    3    3    0    0 -0.50721041452E+02  0.45761992010E+02  0.26057109696E+03  0.26937720863E+03  0.00000000000E+00 0. -1.
          2    1    1    2  501    0  0.49271963002E+02  0.20016361439E+03  0.53920014386E+03  0.57726076776E+03  0.00000000000E+00 0.  1.
<scales pt_clust_5="13000.00000" pt_clust_6="13000.00000" pt_clust_7="13000.00000" pt_clust_8="13000.00000" pt_clust_9="215.78081"></scales>
<clustering>
<clus scale="   91.548">  7  8 -1 -1</clus>
<clus scale="   92.208">  5  6 -1 -1</clus>
<clus scale="   99.038">  1  7  2 -1</clus>
<clus scale="  215.781">  2  9  1 -1</clus>
<clus scale="  215.781">  2  5  1 -1</clus>
</clustering>
</event>
<event>
 9    1  0.1445593E-005  0.1280784E+03  0.7546771E-02  0.1231280E+00
          2   -1    0    0  502    0 -0.00000000000E+00  0.00000000000E+00  0.19970911850E+03  0.19970911850E+03  0.00000000000E+00 0. -1.
         21   -1    0    0  501  502  0.00000000000E+00 -0.00000000000E+00 -0.10918813977E+03  0.10918813977E+03  0.00000000000E+00 0.  1.
         23    2    1    2    0    0 -0.80822178455E+02 -0.14038268036E+02  0.52849308061E+02  0.13387316191E+03  0.91649749684E+02 0.  0.
         23    2    1    2    0    0  0.97624371786E+02  0.29886368750E+01  0.60313219733E+02  0.14474129937E+03  0.88164104670E+02 0.  0.
        -13    1    4    4    0    0  0.34343324457E+02  0.46956282221E+01  0.72421735601E+02  0.80289604848E+02  0.00000000000E+00 0. -1.
         13    1    4    4    0    0  0.63281047329E+02 -0.17069913471E+01 -0.12108515868E+02  0.64451694524E+02  0.00000000000E+00 0.  1.
        -13    1    3    3    0    0 -0.32404766037E+02 -0.44947240610E+02 -0.59485127424E+00  0.55413690983E+02  0.00000000000E+00 0.  1.
         13    1    3    3    0    0 -0.48417412418E+02  0.30908972574E+02  0.53444159335E+02  0.78459470925E+02  0.00000000000E+00 0. -1.
          2    1    1    2  501    0 -0.16802193331E+02  0.11049631161E+02 -0.22641549067E+02  0.30282796993E+02  0.00000000000E+00 0. -1.
<scales pt_clust_5="13000.00000" pt_clust_6="13000.00000" pt_clust_7="13000.00000" pt_clust_8="13000.00000" pt_clust_9="20.10990"></scales>
<clustering>
<clus scale="   20.110">  2  9  1 -1</clus>
<clus scale="   88.164">  5  6 -1 -1</clus>
<clus scale="   91.650">  7  8 -1 -1</clus>
<clus scale="  125.608">  2  5  1 -1</clus>
<clus scale="   20.110">  2  5  1 -1</clus>
</clustering>
</event>
<event>
 9    1  0.1445593E-005  0.1041066E+03  0.7546771E-02  0.1274300E+00
         -1   -1    0    0    0  501 -0.00000000000E+00  0.00000000000E+00  0.67924408076E+02  0.67924408076E+02  0.00000000000E+00 0.  1.
         21   -1    0    0  501  502  0.00000000000E+00 -0.00000000000E+00 -0.39016568193E+03  0.39016568193E+03  0.00000000000E+00 0. -1.
         23    2    1    2    0    0  0.36253933769E+02  0.86657392739E+01 -0.73056801271E+02  0.12729281668E+03  0.97348457699E+02 0.  0.
         23    2    1    2    0    0 -0.38249615545E+02  0.12970809847E+02 -0.27743489089E+03  0.29515727981E+03  0.92284484845E+02 0.  0.
        -11    1    3    3    0    0  0.64730303132E+02 -0.45963065112E+01 -0.24302165640E+02  0.69294541140E+02  0.00000000000E+00 0.  1.
         11    1    3    3    0    0 -0.28476369362E+02  0.13262045785E+02 -0.48754635631E+02  0.57998275543E+02  0.00000000000E+00 0. -1.
        -13    1    4    4    0    0 -0.29752187873E+02 -0.27670505096E+02 -0.52311248101E+02  0.66236819167E+02  0.00000000000E+00 0.  1.
         13    1    4    4    0    0 -0.84974276719E+01  0.40641314943E+02 -0.22512364279E+03  0.22892046064E+03  0.00000000000E+00 0. -1.
         -1    1    1    2    0  502  0.19956817759E+01 -0.21636549121E+02  0.28250418304E+02  0.35639993518E+02  0.00000000000E+00 0.  1.
<scales pt_clust_5="13000.00000" pt_clust_6="13000.00000" pt_clust_7="13000.00000" pt_clust_8="13000.00000" pt_clust_9="21.72840"></scales>
<clustering>
<clus scale="   21.728">  2  9  1 -1</clus>
<clus scale="   92.284">  7  8 -1 -1</clus>
<clus scale="   97.348">  5  6 -1 -1</clus>
<clus scale="   99.388">  2  7  1 -1</clus>
<clus scale="   21.728">  2  5  1 -1</clus>
</clustering>
</event>
<event>
 9    1  0.1445593E-005  0.9932468E+02  0.7546771E-02  0.1282686E+00
          1   -1    0    0  502    0 -0.00000000000E+00  0.00000000000E+00  0.34170261738E+02  0.34170261738E+02  0.00000000000E+00 0. -1.
         21   -1    0    0  501  502  0.00000000000E+00 -0.00000000000E+00 -0.45692211720E+03  0.45692211720E+03  0.00000000000E+00 0.  1.
         23    2    1    2    0    0 -0.27384845867E+02 -0.43157743069E+02 -0.10582048780E+03  0.14804809672E+03  0.90043004920E+02 0.  0.
         23    2    1    2    0    0  0.10114432018E+02  0.92995243479E+01 -0.21488543990E+03  0.23414975736E+03  0.91986812669E+02 0.  0.
        -11    1    3    3    0    0 -0.45898657237E+02 -0.20541228348E+02 -0.14752576221E+02  0.52404840457E+02  0.00000000000E+00 0. -1.
         11    1    3    3    0    0  0.18513811370E+02 -0.22616514721E+02 -0.91067911581E+02  0.95643256267E+02  0.00000000000E+00 0.  1.
        -13    1    4    4    0    0  0.72940855104E+01 -0.30325729704E+02 -0.17535436629E+03  0.17810673020E+03  0.00000000000E+00 0.  1.
         13    1    4    4    0    0  0.28203465078E+01  0.39625254052E+02 -0.39531073610E+02  0.56043027165E+02  0.00000000000E+00 0. -1.
          1    1    1    2  501    0  0.17270413849E+02  0.33858218721E+02 -0.10204592777E+03  0.10889452485E+03  0.00000000000E+00 0. -1.
<scales pt_clust_5="13000.00000" pt_clust_6="13000.00000" pt_clust_7="13000.00000" pt_clust_8="13000.00000" pt_clust_9="38.00850"></scales>
<clustering>
<clus scale="   38.009">  2  9  1 -1</clus>
<clus scale="   90.043">  5  6 -1 -1</clus>
<clus scale="   91.987">  7  8 -1 -1</clus>
<clus scale="   97.527">  1  5  2 -1</clus>
<clus scale="   38.009">  2  5  1 -1</clus>
</clustering>
</event>
<event>
 9    1  0.1445593E-005  0.2159366E+03  0.7546771E-02  0.1140065E+00
         21   -1    0    0  501  502  0.00000000000E+00  0.00000000000E+00  0.33614419957E+03  0.33614419957E+03  0.00000000000E+00 0. -1.
          1   -1    0    0  502    0 -0.00000000000E+00 -0.00000000000E+00 -0.12438226264E+04  0.12438226264E+04  0.00000000000E+00 0. -1.
         23    2    1    2    0    0 -0.96971517867E+02 -0.16054858515E+03 -0.97304844684E+03  0.99504133735E+03  0.90025883235E+02 0.  0.
         23    2    1    2    0    0  0.11388107377E+03  0.10426019527E+03 -0.21932282663E+03  0.29422919898E+03  0.12095136200E+03 0.  0.
        -11    1    3    3    0    0 -0.58165025018E+00 -0.77560862755E+02 -0.45791603266E+03  0.46443849831E+03  0.00000000000E+00 0. -1.
         11    1    3    3    0    0 -0.96389867617E+02 -0.82987722393E+02 -0.51513241419E+03  0.53060283904E+03  0.00000000000E+00 0.  1.
        -13    1    4    4    0    0  0.38904912595E+02  0.11262471422E+03 -0.11599125491E+03  0.16628857355E+03  0.00000000000E+00 0.  1.
         13    1    4    4    0    0  0.74976161174E+02 -0.83645189465E+01 -0.10333157172E+03  0.12794062543E+03  0.00000000000E+00 0. -1.
          1    1    1    2  501    0 -0.16909555903E+02  0.56288389874E+02  0.28469284661E+03  0.29069628967E+03  0.00000000000E+00 0. -1.
<scales pt_clust_5="13000.00000" pt_clust_6="13000.00000" pt_clust_7="13000.00000" pt_clust_8="13000.00000" pt_clust_9="58.77343"></scales>
<clustering>
<clus scale="   58.773">  1  9  2 -1</clus>
<clus scale="   90.026">  5  6 -1 -1</clus>
<clus scale="  120.951">  7  8 -1 -1</clus>
<clus scale="  200.260">  2  5  1 -1</clus>
<clus scale="   58.773">  1  5  2 -1</clus>
</clustering>
</event>
<event>
 9    1  0.1445593E-005  0.2060937E+03  0.7546771E-02  0.1144744E+00
         21   -1    0    0  501  502  0.00000000000E+00  0.00000000000E+00  0.30573220001E+03  0.30573220001E+03  0.00000000000E+00 0. -1.
          3   -1    0    0  502    0 -0.00000000000E+00 -0.00000000000E+00 -0.17981995890E+03  0.17981995890E+03  0.00000000000E+00 0. -1.
         23    2    1    2    0    0  0.12581751417E+03  0.14743503798E+03 -0.88095684356E+01  0.21455290620E+03  0.91587137554E+02 0.  0.
         23    2    1    2    0    0 -0.13326039710E+03 -0.10880083331E+03  0.10162148983E+03  0.21958301556E+03  0.91070405538E+02 0.  0.
        -11    1    3    3    0    0  0.46986830970E+02  0.48062817982E+02 -0.47079366800E+02  0.82062558669E+02  0.00000000000E+00 0.  1.
         11    1    3    3    0    0  0.78830683201E+02  0.99372220002E+02  0.38269798364E+02  0.13249034753E+03  0.00000000000E+00 0. -1.
        -11    1    4    4    0    0 -0.17289990808E+02 -0.66175358350E+02  0.19135193310E+02  0.71023076939E+02  0.00000000000E+00 0. -1.
         11    1    4    4    0    0 -0.11597040629E+03 -0.42625474962E+02  0.82486296516E+02  0.14855993862E+03  0.00000000000E+00 0.  1.
          3    1    1    2  501    0  0.74428829283E+01 -0.38634204672E+02  0.33100319719E+02  0.51416237147E+02  0.00000000000E+00 0. -1.
<scales pt_clust_5="13000.00000" pt_clust_6="13000.00000" pt_clust_7="13000.00000" pt_clust_8="13000.00000" pt_clust_9="39.34461"></scales>
<clustering>
<clus scale="   39.345">  1  9  2 -1</clus>
<clus scale="   91.070">  7  8 -1 -1</clus>
<clus scale="   91.587">  5  6 -1 -1</clus>
<clus scale="  205.865">  1  7  2 -1</clus>
<clus scale="   39.345">  1  5  2 -1</clus>
</clustering>
</event>
<event>
 9    1  0.1445593E-005  0.1090416E+03  0.7546771E-02  0.1267768E+00
         21   -1    0    0  501  502  0.00000000000E+00  0.00000000000E+00  0.61641036962E+02  0.61641036962E+02  0.00000000000E+00 0.  1.
          1   -1    0    0  502    0 -0.00000000000E+00 -0.00000000000E+00 -0.21812014770E+03  0.21812014770E+03  0.00000000000E+00 0. -1.
         23    2    1    2    0    0 -0.68712436306E+01 -0.24550868102E+02 -0.76804414364E+02  0.13097035625E+03  0.10297745887E+03 0.  0.
         23    2    1    2    0    0  0.21378664146E+01  0.46972055215E+02 -0.66065872464E+02  0.12213910090E+03  0.91336279869E+02 0.  0.
        -13    1    4    4    0    0 -0.25128685633E+02 -0.28524765250E+01 -0.59885226675E+02  0.65006367672E+02  0.00000000000E+00 0.  1.
         13    1    4    4    0    0  0.27266552048E+02  0.49824531740E+02 -0.61806457886E+01  0.57132733228E+02  0.00000000000E+00 0. -1.
        -13    1    3    3    0    0 -0.37953178273E+02  0.23086690871E+02 -0.53401285245E+02  0.69463201065E+02  0.00000000000E+00 0. -1.
         13    1    3    3    0    0  0.31081934643E+02 -0.47637558973E+02 -0.23403129119E+02  0.61507155182E+02  0.00000000000E+00 0.  1.
          1    1    1    2  501    0  0.47333772161E+01 -0.22421187113E+02 -0.13608823912E+02  0.26651727518E+02  0.00000000000E+00 0. -1.
<scales pt_clust_5="13000.00000" pt_clust_6="13000.00000" pt_clust_7="13000.00000" pt_clust_8="13000.00000" pt_clust_9="22.91538"></scales>
<clustering>
<clus scale="   22.915">  1  9  2 -1</clus>
<clus scale="   91.336">  5  6 -1 -1</clus>
<clus scale="   98.122">  1  5  2 -1</clus>
<clus scale="  102.977">  7  8 -1 -1</clus>
<clus scale="   22.915">  1  5  2 -1</clus>
</clustering>
</event>
<event>
 9    1  0.1445593E-005  0.1255887E+03  0.7546771E-02  0.1235221E+00
         21   -1    0    0  501  502  0.00000000000E+00  0.00000000000E+00  0.23344684276E+02  0.23344684276E+02  0.00000000000E+00 0.  1.
          1   -1    0    0  502    0 -0.00000000000E+00 -0.00000000000E+00 -0.87157217630E+03  0.87157217630E+03  0.00000000000E+00 0. -1.
         23    2    1    2    0    0 -0.28615392036E+02  0.76699762858E+02 -0.50211169649E+03  0.51732679383E+03  0.93857133877E+02 0.  0.
         23    2    1    2    0    0  0.48734508202E+02 -0.72449745808E+02 -0.32361825018E+03  0.34711087667E+03  0.90184094498E+02 0.  0.
        -13    1    3    3    0    0 -0.53340014178E+02  0.49127867008E+02 -0.43191123468E+03  0.43795664063E+03  0.00000000000E+00 0. -1.
         13    1    3    3    0    0  0.24724622142E+02  0.27571895851E+02 -0.70200461815E+02  0.79370153206E+02  0.00000000000E+00 0.  1.
        -13    1    4    4    0    0  0.62649169077E+02 -0.12723677615E+02 -0.15369935334E+03  0.16646411498E+03  0.00000000000E+00 0.  1.
         13    1    4    4    0    0 -0.13914660876E+02 -0.59726068193E+02 -0.16991889683E+03  0.18064676169E+03  0.00000000000E+00 0. -1.
          1    1    1    2  501    0 -0.20119116166E+02 -0.42500170504E+01 -0.22497545353E+02  0.30479190067E+02  0.00000000000E+00 0. -1.
<scales pt_clust_5="13000.00000" pt_clust_6="13000.00000" pt_clust_7="13000.00000" pt_clust_8="13000.00000" pt_clust_9="20.56311"></scales>
<clustering>
<clus scale="   20.563">  1  9  2 -1</clus>
<clus scale="   90.184">  7  8 -1 -1</clus>
<clus scale="   93.857">  5  6 -1 -1</clus>
<clus scale="  122.868">  1  7  2 -1</clus>
<clus scale="   20.563">  1  5  2 -1</clus>
</clustering>
</event>
<event>
 9    1  0.1445593E-005  0.3443560E+03  0.7546771E-02  0.1064967E+00
         -1   -1    0    0    0  501 -0.00000000000E+00  0.00000000000E+00  0.23564363064E+03  0.23564363064E+03  0.00000000000E+00 0.  1.
         21   -1    0    0  501  502  0.00000000000E+00 -0.00000000000E+00 -0.57388916938E+03  0.57388916938E+03  0.00000000000E+00 0. -1.
         23    2    1    2    0    0 -0.29632494747E+02 -0.34742451416E+03 -0.12843616729E+03  0.38284467320E+03  0.92153767937E+02 0.  0.
         23    2    1    2    0    0  0.27560343266E+02  0.31344576491E+03 -0.15594253358E+03  0.36296618841E+03  0.91752711635E+02 0.  0.
        -11    1    4    4    0    0 -0.70249918133E+01  0.40476609671E+02 -0.57639894913E+02  0.70781805049E+02  0.00000000000E+00 0. -1.
         11    1    4    4    0    0  0.34585335079E+02  0.27296915524E+03 -0.98302638669E+02  0.29218438336E+03  0.00000000000E+00 0.  1.
        -13    1    3    3    0    0 -0.58169833866E+02 -0.16799349020E+03 -0.79076328592E+02  0.19457288625E+03  0.00000000000E+00 0. -1.
         13    1    3    3    0    0  0.28537339119E+02 -0.17943102396E+03 -0.49359838693E+02  0.18827178694E+03  0.00000000000E+00 0.  1.
         -1    1    1    2    0  502  0.20721514812E+01  0.33978749253E+02 -0.53866837870E+02  0.63721938409E+02  0.00000000000E+00 0.  1.
<scales pt_clust_5="13000.00000" pt_clust_6="13000.00000" pt_clust_7="13000.00000" pt_clust_8="13000.00000" pt_clust_9="34.04187"></scales>
<clustering>
<clus scale="   34.042">  2  9  1 -1</clus>
<clus scale="   91.753">  5  6 -1 -1</clus>
<clus scale="   92.154">  7  8 -1 -1</clus>
<clus scale="  344.249">  2  5  1 -1</clus>
<clus scale="   34.042">  2  5  1 -1</clus>
</clustering>
</event>
<event>
 9    1  0.1445593E-005  0.1310201E+03  0.7546771E-02  0.1226100E+00
          1   -1    0    0  502    0 -0.00000000000E+00  0.00000000000E+00  0.67928119031E+03  0.67928119031E+03  0.00000000000E+00 0. -1.
         21   -1    0    0  501  502  0.00000000000E+00 -0.00000000000E+00 -0.48149179461E+02  0.48149179461E+02  0.00000000000E+00 0. -1.
         23    2    1    2    0    0 -0.18038273354E+02 -0.10676780476E+03  0.46454874750E+03  0.48581514299E+03  0.92119872522E+02 0.  0.
         23    2    1    2    0    0  0.42256019238E+02  0.54237207784E+02  0.12976329967E+03  0.17304648347E+03  0.91538656472E+02 0.  0.
        -11    1    4    4    0    0 -0.66533834899E+01  0.52514332738E+02  0.27444090645E+02  0.59625504325E+02  0.00000000000E+00 0.  1.
         11    1    4    4    0    0  0.48909402728E+02  0.17228750459E+01  0.10231920903E+03  0.11342097914E+03  0.00000000000E+00 0. -1.
        -11    1    3    3    0    0  0.84327918492E+01 -0.11033537329E+03  0.31430576076E+03  0.33321632286E+03  0.00000000000E+00 0. -1.
         11    1    3    3    0    0 -0.26471065204E+02  0.35675685264E+01  0.15024298675E+03  0.15259882013E+03  0.00000000000E+00 0.  1.
          1    1    1    2  501    0 -0.24217745883E+02  0.52530596979E+02  0.36819963677E+02  0.68568743315E+02  0.00000000000E+00 0. -1.
<scales pt_clust_5="13000.00000" pt_clust_6="13000.00000" pt_clust_7="13000.00000" pt_clust_8="13000.00000" pt_clust_9="57.84430"></scales>
<clustering>
<clus scale="   57.844">  2  9  1 -1</clus>
<clus scale="   91.539">  5  6 -1 -1</clus>
<clus scale="   92.120">  7  8 -1 -1</clus>
<clus scale="  130.612">  2  5  1 -1</clus>
<clus scale="   57.844">  2  5  1 -1</clus>
</clustering>
</event>
<event>
 9    1  0.1445593E-005  0.1101837E+03  0.7546771E-02  0.1260282E+00
         21   -1    0    0  501  502  0.00000000000E+00  0.00000000000E+00  0.23296315488E+03  0.23296315488E+03  0.00000000000E+00 0.  1.
          1   -1    0    0  502    0 -0.00000000000E+00 -0.00000000000E+00 -0.20812301224E+03  0.20812301224E+03  0.00000000000E+00 0. -1.
         23    2    1    2    0    0 -0.55536014523E+02  0.27294184605E+02 -0.10610312427E+03  0.15070919316E+03  0.87327925094E+02 0.  0.
         23    2    1    2    0    0  0.59658611786E+02 -0.11037786416E+03  0.13916613401E+03  0.20678565168E+03  0.87468108635E+02 0.  0.
        -11    1    4    4    0    0  0.77539536186E+02 -0.91918628819E+02  0.86342325335E+02  0.14804192359E+03  0.00000000000E+00 0.  1.
         11    1    4    4    0    0 -0.17880924400E+02 -0.18459235340E+02  0.52823808678E+02  0.58743728090E+02  0.00000000000E+00 0. -1.
        -11    1    3    3    0    0 -0.26730955209E+02  0.34100292652E+02 -0.11238808377E+03  0.12045104939E+03  0.00000000000E+00 0. -1.
         11    1    3    3    0    0 -0.28805059314E+02 -0.68061080468E+01  0.62849594978E+01  0.30258143775E+02  0.00000000000E+00 0.  1.
          1    1    1    2  501    0 -0.41225972629E+01  0.83083679554E+02 -0.82228671043E+01  0.83591322276E+02  0.00000000000E+00 0. -1.
<scales pt_clust_5="13000.00000" pt_clust_6="13000.00000" pt_clust_7="13000.00000" pt_clust_8="13000.00000" pt_clust_9="83.18594"></scales>
<clustering>
<clus scale="   83.186">  1  9  2 -1</clus>
<clus scale="   87.328">  7  8 -1 -1</clus>
<clus scale="   87.468">  5  6 -1 -1</clus>
<clus scale="  110.072">  2  7  1 -1</clus>
<clus scale="   83.186">  1  5  2 -1</clus>
</clustering>
</event>
<event>
 9    1  0.1445593E-005  0.1006374E+03  0.7546771E-02  0.1279021E+00
         21   -1    0    0  501  502  0.00000000000E+00  0.00000000000E+00  0.23666947188E+03  0.23666947188E+03  0.00000000000E+00 0.  1.
          1   -1    0    0  502    0 -0.00000000000E+00 -0.00000000000E+00 -0.77555596056E+02  0.77555596056E+02  0.00000000000E+00 0. -1.
         23    2    1    2    0    0  0.30248163876E+02  0.28353063547E+02  0.31965234494E+02  0.10542554676E+03  0.91509136497E+02 0.  0.
         23    2    1    2    0    0 -0.56704703520E+02  0.14188697545E+02  0.11289570720E+03  0.15671405240E+03  0.91635751632E+02 0.  0.
        -11    1    3    3    0    0  0.29763548971E+02 -0.29910191737E+02  0.13125894373E+02  0.44190242364E+02  0.00000000000E+00 0. -1.
         11    1    3    3    0    0  0.48461490437E+00  0.58263255284E+02  0.18839340121E+02  0.61235304393E+02  0.00000000000E+00 0.  1.
        -13    1    4    4    0    0 -0.29128181894E+02 -0.32831110669E+02  0.84577258236E+02  0.95287173423E+02  0.00000000000E+00 0.  1.
         13    1    4    4    0    0 -0.27576521626E+02  0.47019808214E+02  0.28318448960E+02  0.61426878978E+02  0.00000000000E+00 0. -1.
          1    1    1    2  501    0  0.26456539644E+02 -0.42541761091E+02  0.14252934137E+02  0.52085468782E+02  0.00000000000E+00 0. -1.
<scales pt_clust_5="13000.00000" pt_clust_6="13000.00000" pt_clust_7="13000.00000" pt_clust_8="13000.00000" pt_clust_9="50.09743"></scales>
<clustering>
<clus scale="   50.097">  1  9  2 -1</clus>
<clus scale="   91.509">  5  6 -1 -1</clus>
<clus scale="   91.636">  7  8 -1 -1</clus>
<clus scale="  100.522">  2  5  1 -1</clus>
<clus scale="   50.097">  1  5  2 -1</clus>
</clustering>
</event>
<event>
 9    1  0.1445593E-005  0.1342850E+03  0.7546771E-02  0.1232765E+00
         21   -1    0    0  501  502  0.00000000000E+00  0.00000000000E+00  0.43224197397E+03  0.43224197397E+03  0.00000000000E+00 0. -1.
         -3   -1    0    0    0  501 -0.00000000000E+00 -0.00000000000E+00 -0.58493135725E+02  0.58493135725E+02  0.00000000000E+00 0.  1.
         23    2    1    2    0    0  0.63493485115E+02  0.51287590532E+01  0.57134994261E+02  0.14947360967E+03  0.12255702998E+03 0.  0.
         23    2    1    2    0    0 -0.34334685170E+02 -0.81679619517E+01  0.22335472172E+03  0.24350293900E+03  0.90336943602E+02 0.  0.
        -11    1    3    3    0    0  0.24322429709E+02  0.37482807107E+02 -0.26255513086E+02  0.51825605476E+02  0.00000000000E+00 0.  1.
         11    1    3    3    0    0  0.39171055406E+02 -0.32354048054E+02  0.83390507347E+02  0.97648004192E+02  0.00000000000E+00 0. -1.
        -13    1    4    4    0    0  0.12212654485E+02  0.31598027896E+02  0.57858521101E+02  0.67046198702E+02  0.00000000000E+00 0.  1.
         13    1    4    4    0    0 -0.46547339655E+02 -0.39765989847E+02  0.16549620062E+03  0.17645674030E+03  0.00000000000E+00 0. -1.
         -3    1    1    2    0  502 -0.29158799945E+02  0.30392028985E+01  0.93259122268E+02  0.97758561031E+02  0.00000000000E+00 0.  1.
<scales pt_clust_5="13000.00000" pt_clust_6="13000.00000" pt_clust_7="13000.00000" pt_clust_8="13000.00000" pt_clust_9="29.31676"></scales>
<clustering>
<clus scale="   29.317">  1  9  2 -1</clus>
<clus scale="   90.337">  7  8 -1 -1</clus>
<clus scale="  105.702">  1  7  2 -1</clus>
<clus scale="  122.557">  5  6 -1 -1</clus>
<clus scale="   29.317">  1  5  2 -1</clus>
</clustering>
</event>
<event>
 9    1  0.1445593E-005  0.9485051E+02  0.7546771E-02  0.1291756E+00
         -1   -1    0    0    0  501 -0.00000000000E+00  0.00000000000E+00  0.42106438119E+02  0.42106438119E+02  0.00000000000E+00 0.  1.
         21   -1    0    0  501  502  0.00000000000E+00 -0.00000000000E+00 -0.42033708669E+03  0.42033708669E+03  0.00000000000E+00 0. -1.
         23    2    1    2    0    0 -0.99502592250E+01  0.42276641694E+01 -0.66668087035E+02  0.11385079191E+03  0.91654177136E+02 0.  0.
         23    2    1    2    0    0  0.28396773169E+02 -0.34949367600E+02 -0.14112965313E+03  0.17443340009E+03  0.92095586492E+02 0.  0.
        -11    1    3    3    0    0 -0.48734726470E+02  0.15890343550E+02 -0.31149570757E+02  0.59982266884E+02  0.00000000000E+00 0.  1.
         11    1    3    3    0    0  0.38784467245E+02 -0.11662679380E+02 -0.35518516278E+02  0.53868525025E+02  0.00000000000E+00 0. -1.
        -13    1    4    4    0    0 -0.64371822648E+01  0.28504104123E+02 -0.51619250456E+02  0.59316677967E+02  0.00000000000E+00 0.  1.
         13    1    4    4    0    0  0.34833955434E+02 -0.63453471723E+02 -0.89510402675E+02  0.11511672212E+03  0.00000000000E+00 0. -1.
         -1    1    1    2    0  502 -0.18446513944E+02  0.30721703430E+02 -0.17043290841E+03  0.17415933282E+03  0.00000000000E+00 0.  1.
<scales pt_clust_5="13000.00000" pt_clust_6="13000.00000" pt_clust_7="13000.00000" pt_clust_8="13000.00000" pt_clust_9="35.83430"></scales>
<clustering>
<clus scale="   35.834">  2  9  1 -1</clus>
<clus scale="   91.654">  5  6 -1 -1</clus>
<clus scale="   92.096">  7  8 -1 -1</clus>
<clus scale="   94.422">  1  5  2 -1</clus>
<clus scale="   35.834">  2  5  1 -1</clus>
</clustering>
</event>
<event>
 9    1  0.1445593E-005  0.1612962E+03  0.7546771E-02  0.1187438E+00
         21   -1    0    0  501  502  0.00000000000E+00  0.00000000000E+00  0.32072109989E+02  0.32072109989E+02  0.00000000000E+00 0. -1.
         -2   -1    0    0    0  501 -0.00000000000E+00 -0.00000000000E+00 -0.10145915735E+04  0.10145915735E+04  0.00000000000E+00 0.  1.
         23    2    1    2    0    0 -0.85019660168E+02  0.89559428172E+02 -0.47075570125E+03  0.49446352519E+03  0.87372843022E+02 0.  0.
         23    2    1    2    0    0  0.10231967850E+03 -0.10830227302E+03 -0.48576775549E+03  0.51578069598E+03  0.88660674056E+02 0.  0.
        -11    1    4    4    0    0  0.37180690428E+02 -0.80607966567E+02 -0.36644368081E+03  0.37704246342E+03  0.00000000000E+00 0.  1.
         11    1    4    4    0    0  0.65138988068E+02 -0.27694306448E+02 -0.11932407468E+03  0.13873823256E+03  0.00000000000E+00 0. -1.
        -11    1    3    3    0    0 -0.25514620338E+02 -0.15985308747E+02 -0.93342729004E+02  0.98078494099E+02  0.00000000000E+00 0.  1.
         11    1    3    3    0    0 -0.59505039830E+02  0.10554473692E+03 -0.37741297224E+03  0.39638503109E+03  0.00000000000E+00 0. -1.
         -2    1    1    2    0  502 -0.17300018328E+02  0.18742844843E+02 -0.25996006753E+02  0.36419462298E+02  0.00000000000E+00 0.  1.
<scales pt_clust_5="13000.00000" pt_clust_6="13000.00000" pt_clust_7="13000.00000" pt_clust_8="13000.00000" pt_clust_9="25.50657"></scales>
<clustering>
<clus scale="   25.507">  1  9  2 -1</clus>
<clus scale="   87.373">  7  8 -1 -1</clus>
<clus scale="   88.661">  5  6 -1 -1</clus>
<clus scale="  160.592">  2  7  1 -1</clus>
<clus scale="   25.507">  1  5  2 -1</clus>
</clustering>
</event>
<event>
 9    1  0.1445593E-005  0.1059716E+03  0.7546771E-02  0.1269227E+00
          3   -1    0    0  502    0 -0.00000000000E+00  0.00000000000E+00  0.37604873323E+02  0.37604873323E+02  0.00000000000E+00 0. -1.
         21   -1    0    0  501  502  0.00000000000E+00 -0.00000000000E+00 -0.89508323754E+03  0.89508323754E+03  0.00000000000E+00 0. -1.
         23    2    1    2    0    0  0.60501055720E+02 -0.53285099844E+02 -0.14353908513E+03  0.18858840964E+03  0.91991519636E+02 0.  0.
         23    2    1    2    0    0  0.49729460580E+01  0.34029258170E+02 -0.16465780032E+03  0.19059471003E+03  0.89618255293E+02 0.  0.
        -11    1    4    4    0    0 -0.22306340943E+02  0.24330803424E+02 -0.15729502585E+03  0.16072114359E+03  0.00000000000E+00 0.  1.
         11    1    4    4    0    0  0.27279287001E+02  0.96984547462E+01 -0.73627744697E+01  0.29873566436E+02  0.00000000000E+00 0. -1.
        -13    1    3    3    0    0  0.81854234545E+02 -0.22608760945E+02 -0.97933735429E+02  0.12962364105E+03  0.00000000000E+00 0. -1.
         13    1    3    3    0    0 -0.21353178826E+02 -0.30676338899E+02 -0.45605349697E+02  0.58964768592E+02  0.00000000000E+00 0.  1.
          3    1    1    2  501    0 -0.65474001778E+02  0.19255841674E+02 -0.54928147878E+03  0.55350499119E+03  0.00000000000E+00 0. -1.
<scales pt_clust_5="13000.00000" pt_clust_6="13000.00000" pt_clust_7="13000.00000" pt_clust_8="13000.00000" pt_clust_9="68.24685"></scales>
<clustering>
<clus scale="   68.247">  2  9  1 -1</clus>
<clus scale="   89.618">  5  6 -1 -1</clus>
<clus scale="   91.992">  7  8 -1 -1</clus>
<clus scale="  103.918">  2  5  1 -1</clus>
<clus scale="   68.247">  2  5  1 -1</clus>
</clustering>
</event>
<event>
 9    1  0.1445593E-005  0.9339997E+02  0.7546771E-02  0.1296506E+00
          2   -1    0    0  502    0 -0.00000000000E+00  0.00000000000E+00  0.38373105843E+03  0.38373105843E+03  0.00000000000E+00 0. -1.
         21   -1    0    0  501  502  0.00000000000E+00 -0.00000000000E+00 -0.35745460599E+02  0.35745460599E+02  0.00000000000E+00 0.  1.
         23    2    1    2    0    0  0.29540185556E+02 -0.41981255156E+01  0.19421476347E+03  0.21487065400E+03  0.86946976827E+02 0.  0.
         23    2    1    2    0    0 -0.13898139963E+02 -0.30164188265E+02  0.12266417055E+03  0.15568688373E+03  0.89938148071E+02 0.  0.
        -11    1    4    4    0    0 -0.39021935985E+02 -0.27753680445E+02  0.23461226838E+02  0.53323610446E+02  0.00000000000E+00 0.  1.
         11    1    4    4    0    0  0.25123796022E+02 -0.24105078193E+01  0.99202943717E+02  0.10236327328E+03  0.00000000000E+00 0. -1.
        -13    1    3    3    0    0  0.48300289001E+02 -0.30516671033E+02  0.14643688148E+03  0.15718761207E+03  0.00000000000E+00 0. -1.
         13    1    3    3    0    0 -0.18760103445E+02  0.26318545517E+02  0.47777881991E+02  0.57683041936E+02  0.00000000000E+00 0.  1.
          2    1    1    2  501    0 -0.15642045593E+02  0.34362313780E+02  0.31106663805E+02  0.48918981303E+02  0.00000000000E+00 0. -1.
<scales pt_clust_5="13000.00000" pt_clust_6="13000.00000" pt_clust_7="13000.00000" pt_clust_8="13000.00000" pt_clust_9="37.75503"></scales>
<clustering>
<clus scale="   37.755">  2  9  1 -1</clus>
<clus scale="   86.947">  7  8 -1 -1</clus>
<clus scale="   89.938">  5  6 -1 -1</clus>
<clus scale="   90.523">  1  7  2 -1</clus>
<clus scale="   37.755">  2  5  1 -1</clus>
</clustering>
</event>
<event>
 9    1  0.1445593E-005  0.1071948E+03  0.7546771E-02  0.1265914E+00
          2   -1    0    0  502    0 -0.00000000000E+00  0.00000000000E+00  0.78865742381E+02  0.78865742381E+02  0.00000000000E+00 0. -1.
         21   -1    0    0  501  502  0.00000000000E+00 -0.00000000000E+00 -0.40197102799E+03  0.40197102799E+03  0.00000000000E+00 0. -1.
         23    2    1    2    0    0 -0.19198551504E+02  0.43634588043E+02 -0.30988483903E+01  0.10330512693E+03  0.91595768102E+02 0.  0.
         23    2    1    2    0    0  0.56338861657E+02 -0.82258876826E+02 -0.27865355691E+03  0.30984634939E+03  0.91740750482E+02 0.  0.
        -13    1    4    4    0    0 -0.19122034493E+02 -0.37243912704E+02 -0.13604777758E+03  0.14234380570E+03  0.00000000000E+00 0. -1.
         13    1    4    4    0    0  0.75460896150E+02 -0.45014964122E+02 -0.14260577934E+03  0.16750254369E+03  0.00000000000E+00 0.  1.
        -13    1    3    3    0    0 -0.53602431595E+02  0.95734668471E+01 -0.61474539856E+01  0.54796561305E+02  0.00000000000E+00 0.  1.
         13    1    3    3    0    0  0.34403880091E+02  0.34061121196E+02  0.30486055953E+01  0.48508565620E+02  0.00000000000E+00 0. -1.
          2    1    1    2  501    0 -0.37140310154E+02  0.38624288783E+02 -0.41352880307E+02  0.67685294060E+02  0.00000000000E+00 0. -1.
<scales pt_clust_5="13000.00000" pt_clust_6="13000.00000" pt_clust_7="13000.00000" pt_clust_8="13000.00000" pt_clust_9="53.58396"></scales>
<clustering>
<clus scale="   53.584">  2  9  1 -1</clus>
<clus scale="   91.596">  7  8 -1 -1</clus>
<clus scale="   91.741">  5  6 -1 -1</clus>
<clus scale="  107.071">  1  7  2 -1</clus>
<clus scale="   53.584">  2  5  1 -1</clus>
</clustering>
</event>
<event>
 9    1  0.1445593E-005  0.9639040E+02  0.7546771E-02  0.1288523E+00
          2   -1    0    0  502    0 -0.00000000000E+00  0.00000000000E+00  0.36956546320E+03  0.36956546320E+03  0.00000000000E+00 0. -1.
         21   -1    0    0  501  502  0.00000000000E+00 -0.00000000000E+00 -0.35136246736E+03  0.35136246736E+03  0.00000000000E+00 0. -1.
         23    2    1    2    0    0 -0.27076603892E+02 -0.36185317158E+02  0.25184037708E+03  0.27140824229E+03  0.90533633519E+02 0.  0.
         23    2    1    2    0    0 -0.29298029566E+02  0.12669625761E+02  0.82713490886E+02  0.12732570736E+03  0.91386105217E+02 0.  0.
        -11    1    3    3    0    0 -0.14064725455E+02  0.29536888164E+02  0.10559796852E+03  0.11054942433E+03  0.00000000000E+00 0.  1.
         11    1    3    3    0    0 -0.13011878437E+02 -0.65722205323E+02  0.14624240855E+03  0.16085881795E+03  0.00000000000E+00 0. -1.
        -13    1    4    4    0    0  0.18674321742E+01  0.48825856581E+02  0.37700896471E+02  0.61715550459E+02  0.00000000000E+00 0.  1.
         13    1    4    4    0    0 -0.31165461740E+02 -0.36156230820E+02  0.45012594415E+02  0.65610156901E+02  0.00000000000E+00 0. -1.
          2    1    1    2  501    0  0.56374633458E+02  0.23515691398E+02 -0.31635087213E+03  0.32219398091E+03  0.00000000000E+00 0. -1.
<scales pt_clust_5="13000.00000" pt_clust_6="13000.00000" pt_clust_7="13000.00000" pt_clust_8="13000.00000" pt_clust_9="61.08262"></scales>
<clustering>
<clus scale="   61.083">  2  9  1 -1</clus>
<clus scale="   90.534">  5  6 -1 -1</clus>
<clus scale="   91.386">  7  8 -1 -1</clus>
<clus scale="   95.583">  1  5  2 -1</clus>
<clus scale="   61.083">  2  5  1 -1</clus>
</clustering>
</event>
<event>
 9    1  0.1445593E-005  0.9538107E+02  0.7546771E-02  0.1294508E+00
         21   -1    0    0  501  502  0.00000000000E+00  0.00000000000E+00  0.28909573529E+03  0.28909573529E+03  0.00000000000E+00 0.  1.
          3   -1    0    0  502    0 -0.00000000000E+00 -0.00000000000E+00 -0.72820985175E+02  0.72820985175E+02  0.00000000000E+00 0. -1.
         23    2    1    2    0    0 -0.16672416169E+02  0.11862997563E+01  0.22508690903E+00  0.93633894238E+02  0.92129684240E+02 0.  0.
         23    2    1    2    0    0  0.35062972614E+02 -0.24935855246E+02  0.67009045237E+02  0.11624546320E+03  0.84685220935E+02 0.  0.
        -11    1    4    4    0    0  0.31147862663E+02 -0.15509095098E+01  0.82314442403E+02  0.88024213129E+02  0.00000000000E+00 0.  1.
         11    1    4    4    0    0  0.39151099513E+01 -0.23384945736E+02 -0.15305397166E+02  0.28221250068E+02  0.00000000000E+00 0. -1.
        -13    1    3    3    0    0  0.26596180300E+02 -0.18849674896E+02  0.23877075869E+02  0.40407694840E+02  0.00000000000E+00 0.  1.
         13    1    3    3    0    0 -0.43268596469E+02  0.20035974652E+02 -0.23651988960E+02  0.53226199398E+02  0.00000000000E+00 0. -1.
          3    1    1    2  501    0 -0.18390556445E+02  0.23749555489E+02  0.14904061797E+03  0.15203736303E+03  0.00000000000E+00 0. -1.
<scales pt_clust_5="13000.00000" pt_clust_6="13000.00000" pt_clust_7="13000.00000" pt_clust_8="13000.00000" pt_clust_9="30.03754"></scales>
<clustering>
<clus scale="   30.038">  1  9  2 -1</clus>
<clus scale="   84.685">  5  6 -1 -1</clus>
<clus scale="   88.211">  1  5  2 -1</clus>
<clus scale="   92.130">  7  8 -1 -1</clus>
<clus scale="   30.038">  1  5  2 -1</clus>
</clustering>
</event>
<event>
 9    1  0.1445593E-005  0.1001607E+03  0.7546771E-02  0.1280996E+00
         21   -1    0    0  501  502  0.00000000000E+00  0.00000000000E+00  0.15989995634E+03  0.15989995634E+03  0.00000000000E+00 0. -1.
          3   -1    0    0  502    0 -0.00000000000E+00 -0.00000000000E+00 -0.21947601699E+03  0.21947601699E+03  0.00000000000E+00 0. -1.
         23    2    1    2    0    0  0.32942648304E+02 -0.33262989087E+02 -0.14751418965E+03  0.17933402613E+03  0.90601392158E+02 0.  0.
         23    2    1    2    0    0  0.16033688791E+02 -0.16891071336E+02  0.88008044746E+02  0.12994118928E+03  0.92719519330E+02 0.  0.
        -11    1    3    3    0    0  0.58062379134E+02 -0.45734654703E+02 -0.10515338540E+03  0.12853066939E+03  0.00000000000E+00 0. -1.
         11    1    3    3    0    0 -0.25119730830E+02  0.12471665616E+02 -0.42360804244E+02  0.50803356744E+02  0.00000000000E+00 0.  1.
        -13    1    4    4    0    0 -0.32771271926E+02  0.11428690339E+02  0.53587301195E+02  0.63844890758E+02  0.00000000000E+00 0.  1.
         13    1    4    4    0    0  0.48804960717E+02 -0.28319761675E+02  0.34420743551E+02  0.66096298524E+02  0.00000000000E+00 0. -1.
          3    1    1    2  501    0 -0.48976337095E+02  0.50154060424E+02 -0.69915752292E-01  0.70100757916E+02  0.00000000000E+00 0. -1.
<scales pt_clust_5="13000.00000" pt_clust_6="13000.00000" pt_clust_7="13000.00000" pt_clust_8="13000.00000" pt_clust_9="70.10072"></scales>
<clustering>
<clus scale="   70.101">  1  9  2 -1</clus>
<clus scale="   90.601">  5  6 -1 -1</clus>
<clus scale="   92.720">  7  8 -1 -1</clus>
<clus scale="   98.203">  2  5  1 -1</clus>
<clus scale="   70.101">  1  5  2 -1</clus>
</clustering>
</event>
<event>
 9    1  0.1445593E-005  0.9179363E+02  0.7546771E-02  0.1299770E+00
         21   -1    0    0  501  502  0.00000000000E+00  0.00000000000E+00  0.62615642435E+02  0.62615642435E+02  0.00000000000E+00 0.  1.
          1   -1    0    0  502    0 -0.00000000000E+00 -0.00000000000E+00 -0.19927394032E+03  0.19927394032E+03  0.00000000000E+00 0. -1.
         23    2    1    2    0    0  0.43464542513E+01  0.67474979935E+01 -0.79556393676E+02  0.12163251094E+03  0.91656028440E+02 0.  0.
         23    2    1    2    0    0 -0.28297774555E+01  0.14297289879E+02 -0.70758622227E+02  0.11512364084E+03  0.89633977506E+02 0.  0.
        -11    1    3    3    0    0  0.25280188817E+02  0.43140473094E+02 -0.41957593160E+02  0.65273486112E+02  0.00000000000E+00 0.  1.
         11    1    3    3    0    0 -0.20933734566E+02 -0.36392975100E+02 -0.37598800516E+02  0.56359024829E+02  0.00000000000E+00 0. -1.
        -11    1    4    4    0    0  0.41807291941E+02  0.74298251026E+01 -0.49472287855E+02  0.65196312979E+02  0.00000000000E+00 0.  1.
         11    1    4    4    0    0 -0.44637069397E+02  0.68674647761E+01 -0.21286334372E+02  0.49927327865E+02  0.00000000000E+00 0. -1.
          1    1    1    2  501    0 -0.15166767959E+01 -0.21044787872E+02  0.13656718020E+02  0.25133430967E+02  0.00000000000E+00 0. -1.
<scales pt_clust_5="13000.00000" pt_clust_6="13000.00000" pt_clust_7="13000.00000" pt_clust_8="13000.00000" pt_clust_9="21.09937"></scales>
<clustering>
<clus scale="   21.099">  1  9  2 -1</clus>
<clus scale="   89.634">  7  8 -1 -1</clus>
<clus scale="   89.775">  1  7  2 -1</clus>
<clus scale="   91.656">  5  6 -1 -1</clus>
<clus scale="   21.099">  1  5  2 -1</clus>
</clustering>
</event>
<event>
 9    1  0.1445593E-005  0.1132558E+03  0.7546771E-02  0.1263354E+00
          1   -1    0    0  502    0 -0.00000000000E+00  0.00000000000E+00  0.28455829000E+03  0.28455829000E+03  0.00000000000E+00 0. -1.
         21   -1    0    0  501  502  0.00000000000E+00 -0.00000000000E+00 -0.77746183438E+02  0.77746183438E+02  0.00000000000E+00 0.  1.
         23    2    1    2    0    0  0.22313881794E+02  0.27442603609E+02  0.18592583978E+03  0.20818608158E+03  0.86729584656E+02 0.  0.
         23    2    1    2    0    0 -0.34065108340E+02 -0.46522310658E+02  0.37321723914E+02  0.12632899104E+03  0.10602521354E+03 0.  0.
        -11    1    3    3    0    0  0.48563707927E+02  0.27412888720E+01  0.14833539962E+03  0.15610681975E+03  0.00000000000E+00 0. -1.
         11    1    3    3    0    0 -0.26249826133E+02  0.24701314737E+02  0.37590440154E+02  0.52079261830E+02  0.00000000000E+00 0.  1.
        -11    1    4    4    0    0 -0.31830390392E+02 -0.19725712845E+02 -0.33705659602E+02  0.50382030417E+02  0.00000000000E+00 0.  1.
         11    1    4    4    0    0 -0.22347179483E+01 -0.26796597813E+02  0.71027383517E+02  0.75946960623E+02  0.00000000000E+00 0. -1.
          1    1    1    2  501    0  0.11751226546E+02  0.19079707049E+02 -0.16435457132E+02  0.27789400813E+02  0.00000000000E+00 0. -1.
<scales pt_clust_5="13000.00000" pt_clust_6="13000.00000" pt_clust_7="13000.00000" pt_clust_8="13000.00000" pt_clust_9="22.40818"></scales>
<clustering>
<clus scale="   22.408">  2  9  1 -1</clus>
<clus scale="   86.730">  5  6 -1 -1</clus>
<clus scale="   95.433">  1  5  2 -1</clus>
<clus scale="  106.025">  7  8 -1 -1</clus>
<clus scale="   22.408">  2  5  1 -1</clus>
</clustering>
</event>
<event>
 9    1  0.1445593E-005  0.1580711E+03  0.7546771E-02  0.1191898E+00
         21   -1    0    0  501  502  0.00000000000E+00  0.00000000000E+00  0.80060796714E+02  0.80060796714E+02  0.00000000000E+00 0. -1.
         -2   -1    0    0    0  501 -0.00000000000E+00 -0.00000000000E+00 -0.57788891968E+03  0.57788891968E+03  0.00000000000E+00 0. -1.
         23    2    1    2    0    0 -0.12286790243E+03  0.99755026065E+02 -0.33593654560E+03  0.38382986159E+03  0.97079417531E+02 0.  0.
         23    2    1    2    0    0  0.29890986517E+02 -0.78377998794E+02 -0.74025037262E+02  0.14441938041E+03  0.91327266065E+02 0.  0.
        -11    1    3    3    0    0 -0.60288210489E+02  0.56203089055E+02 -0.27235804486E+03  0.28455642700E+03  0.00000000000E+00 0.  1.
         11    1    3    3    0    0 -0.62579691938E+02  0.43551937010E+02 -0.63578500735E+02  0.99273434595E+02  0.00000000000E+00 0. -1.
        -11    1    4    4    0    0 -0.24095694281E+02 -0.21859196079E+02  0.54091001372E+01  0.32980074293E+02  0.00000000000E+00 0. -1.
         11    1    4    4    0    0  0.53986680797E+02 -0.56518802715E+02 -0.79434137399E+02  0.11143930612E+03  0.00000000000E+00 0.  1.
         -2    1    1    2    0  502  0.92976915911E+02 -0.21377027271E+02 -0.87866540105E+02  0.12970047439E+03  0.00000000000E+00 0. -1.
<scales pt_clust_5="13000.00000" pt_clust_6="13000.00000" pt_clust_7="13000.00000" pt_clust_8="13000.00000" pt_clust_9="95.40275"></scales>
<clustering>
<clus scale="   91.327">  7  8 -1 -1</clus>
<clus scale="   95.403">  1  9  2 -1</clus>
<clus scale="   97.079">  5  6 -1 -1</clus>
<clus scale="  154.605">  1  7  2 -1</clus>
<clus scale="   95.403">  1  5  2 -1</clus>
</clustering>
</event>
<event>
 9    1  0.1445593E-005  0.1078889E+03  0.7546771E-02  0.1269141E+00
         -3   -1    0    0    0  501 -0.00000000000E+00  0.00000000000E+00  0.15915788595E+03  0.15915788595E+03  0.00000000000E+00 0.  1.
         21   -1    0    0  501  502  0.00000000000E+00 -0.00000000000E+00 -0.42183959867E+03  0.42183959867E+03  0.00000000000E+00 0. -1.
         23    2    1    2    0    0  0.33794078726E+02 -0.45082334694E+02  0.10525949367E+03  0.14425940454E+03  0.80973811409E+02 0.  0.
         23    2    1    2    0    0 -0.94282089176E+02 -0.42905810410E+01 -0.31752106153E+03  0.34379360619E+03  0.92015747135E+02 0.  0.
        -11    1    3    3    0    0 -0.21446153850E+02 -0.36262421831E+02  0.37588629105E+02  0.56460657010E+02  0.00000000000E+00 0. -1.
         11    1    3    3    0    0  0.55240232577E+02 -0.88199128632E+01  0.67670864561E+02  0.87798747534E+02  0.00000000000E+00 0.  1.
        -13    1    4    4    0    0 -0.65689368739E+02  0.22489371822E+02 -0.93984003973E+02  0.11684972406E+03  0.00000000000E+00 0.  1.
         13    1    4    4    0    0 -0.28592720437E+02 -0.26779952863E+02 -0.22353705755E+03  0.22694388213E+03  0.00000000000E+00 0. -1.
         -3    1    1    2    0  502  0.60488010450E+02  0.49372915736E+02 -0.50420144862E+02  0.92944473877E+02  0.00000000000E+00 0.  1.
<scales pt_clust_5="13000.00000" pt_clust_6="13000.00000" pt_clust_7="13000.00000" pt_clust_8="13000.00000" pt_clust_9="78.07999"></scales>
<clustering>
<clus scale="   78.080">  2  9  1 -1</clus>
<clus scale="   80.974">  5  6 -1 -1</clus>
<clus scale="   92.016">  7  8 -1 -1</clus>
<clus scale="   98.640">  1  5  2 -1</clus>
<clus scale="   78.080">  2  5  1 -1</clus>
</clustering>
</event>
<event>
 9    1  0.1445593E-005  0.1141055E+03  0.7546771E-02  0.1256426E+00
         21   -1    0    0  501  502  0.00000000000E+00  0.00000000000E+00  0.64831637708E+03  0.64831637708E+03  0.00000000000E+00 0.  1.
         -2   -1    0    0    0  501 -0.00000000000E+00 -0.00000000000E+00 -0.25253905148E+03  0.25253905148E+03  0.00000000000E+00 0.  1.
         23    2    1    2    0    0 -0.27228294885E+02  0.49529721255E+02 -0.19948179849E+03  0.23004560772E+03  0.99666545901E+02 0.  0.
         23    2    1    2    0    0 -0.57386203775E+02 -0.77267164846E+02  0.96297425245E+02  0.16396491748E+03  0.91366891742E+02 0.  0.
        -11    1    4    4    0    0  0.24716721653E+02 -0.13559789410E+02  0.27163704312E+02  0.39149087474E+02  0.00000000000E+00 0. -1.
         11    1    4    4    0    0 -0.82102925428E+02 -0.63707375436E+02  0.69133720933E+02  0.12481583000E+03  0.00000000000E+00 0.  1.
        -13    1    3    3    0    0 -0.11171050486E+02  0.70630501516E+02 -0.18801935348E+03  0.20115848825E+03  0.00000000000E+00 0.  1.
         13    1    3    3    0    0 -0.16057244399E+02 -0.21100780261E+02 -0.11462445008E+02  0.28887119463E+02  0.00000000000E+00 0. -1.
         -2    1    1    2    0  502  0.84614498660E+02  0.27737443592E+02  0.49896169885E+03  0.50684490337E+03  0.00000000000E+00 0.  1.
<scales pt_clust_5="13000.00000" pt_clust_6="13000.00000" pt_clust_7="13000.00000" pt_clust_8="13000.00000" pt_clust_9="89.04482"></scales>
<clustering>
<clus scale="   89.045">  1  9  2 -1</clus>
<clus scale="   91.367">  5  6 -1 -1</clus>
<clus scale="   99.667">  7  8 -1 -1</clus>
<clus scale="  106.933">  1  5  2 -1</clus>
<clus scale="   89.045">  1  5  2 -1</clus>
</clustering>
</event>
<event>
 9    1  0.1445593E-005  0.2528092E+03  0.7546771E-02  0.1111871E+00
         21   -1    0    0  501  502  0.00000000000E+00  0.00000000000E+00  0.22869315260E+03  0.22869315260E+03  0.00000000000E+00 0.  1.
         -1   -1    0    0    0  501 -0.00000000000E+00 -0.00000000000E+00 -0.32327929849E+03  0.32327929849E+03  0.00000000000E+00 0.  1.
         23    2    1    2    0    0 -0.18985141785E+03  0.12714122223E+03 -0.10720023676E+03  0.26775952539E+03  0.89413765306E+02 0.  0.
         23    2    1    2    0    0  0.19402220108E+03 -0.14847796504E+03  0.12011324654E+02  0.26246400956E+03  0.95146012949E+02 0.  0.
        -11    1    4    4    0    0  0.42712020570E+02 -0.17596044854E+02 -0.33780573027E+02  0.57228180206E+02  0.00000000000E+00 0. -1.
         11    1    4    4    0    0  0.15131018051E+03 -0.13088192018E+03  0.45791897681E+02  0.20523582935E+03  0.00000000000E+00 0.  1.
        -13    1    3    3    0    0 -0.15455111456E+03  0.96540958192E+02 -0.12136509278E+03  0.21894220553E+03  0.00000000000E+00 0.  1.
         13    1    3    3    0    0 -0.35300303294E+02  0.30600264033E+02  0.14164856021E+02  0.48817319853E+02  0.00000000000E+00 0. -1.
         -1    1    1    2    0  502 -0.41707832299E+01  0.21336742810E+02  0.60276621880E+00  0.21748916148E+02  0.00000000000E+00 0.  1.
<scales pt_clust_5="13000.00000" pt_clust_6="13000.00000" pt_clust_7="13000.00000" pt_clust_8="13000.00000" pt_clust_9="21.74056"></scales>
<clustering>
<clus scale="   21.741">  1  9  2 -1</clus>
<clus scale="   89.414">  7  8 -1 -1</clus>
<clus scale="   95.146">  5  6 -1 -1</clus>
<clus scale="  250.708">  2  7  1 -1</clus>
<clus scale="   21.741">  1  5  2 -1</clus>
</clustering>
</event>
<event>
 9    1  0.1445593E-005  0.1169790E+03  0.7546771E-02  0.1257749E+00
         21   -1    0    0  501  502  0.00000000000E+00  0.00000000000E+00  0.79014449415E+02  0.79014449415E+02  0.00000000000E+00 0. -1.
          2   -1    0    0  502    0 -0.00000000000E+00 -0.00000000000E+00 -0.58933579299E+03  0.58933579299E+03  0.00000000000E+00 0. -1.
         23    2    1    2    0    0 -0.24207555867E+02  0.10364689254E+02 -0.51519896847E+03  0.52832060977E+03  0.11401428441E+03 0.  0.
         23    2    1    2    0    0  0.12523732354E+02 -0.30885156000E+02 -0.24972356900E+02  0.10196885623E+03  0.93076808602E+02 0.  0.
        -11    1    4    4    0    0 -0.33724072501E+02  0.84851649540E+01 -0.22020864835E+02  0.41161020133E+02  0.00000000000E+00 0. -1.
         11    1    4    4    0    0  0.46247804855E+02 -0.39370320954E+02 -0.29514920655E+01  0.60807836102E+02  0.00000000000E+00 0.  1.
        -11    1    3    3    0    0  0.35765078618E+02 -0.27369869621E+02 -0.23691987362E+03  0.24116234599E+03  0.00000000000E+00 0.  1.
         11    1    3    3    0    0 -0.59972634484E+02  0.37734558875E+02 -0.27827909485E+03  0.28715826377E+03  0.00000000000E+00 0. -1.
          2    1    1    2  501    0  0.11683823512E+02  0.20520466747E+02  0.29849981794E+02  0.38060776404E+02  0.00000000000E+00 0. -1.
<scales pt_clust_5="13000.00000" pt_clust_6="13000.00000" pt_clust_7="13000.00000" pt_clust_8="13000.00000" pt_clust_9="23.61358"></scales>
<clustering>
<clus scale="   23.614">  1  9  2 -1</clus>
<clus scale="   93.077">  5  6 -1 -1</clus>
<clus scale="   96.686">  1  5  2 -1</clus>
<clus scale="  114.014">  7  8 -1 -1</clus>
<clus scale="   23.614">  1  5  2 -1</clus>
</clustering>
</event>
<event>
 9    1  0.1445593E-005  0.1475774E+03  0.7546771E-02  0.1207311E+00
         21   -1    0    0  501  502  0.00000000000E+00  0.00000000000E+00  0.88783298747E+02  0.88783298747E+02  0.00000000000E+00 0.  1.
          2   -1    0    0  502    0 -0.00000000000E+00 -0.00000000000E+00 -0.55070566013E+03  0.55070566013E+03  0.00000000000E+00 0. -1.
         23    2    1    2    0    0 -0.52535381579E+02  0.82543666080E+02 -0.38419189100E+03  0.41156888221E+03  0.11050842757E+03 0.  0.
         23    2    1    2    0    0  0.33828423262E+02 -0.93456414554E+02 -0.11887807340E+03  0.18142100567E+03  0.94356352839E+02 0.  0.
        -11    1    3    3    0    0 -0.74628872915E+02  0.78359298243E+02 -0.36872801266E+03  0.38427853910E+03  0.00000000000E+00 0. -1.
         11    1    3    3    0    0  0.22093491336E+02  0.41843678376E+01 -0.15463878340E+02  0.27290343108E+02  0.00000000000E+00 0.  1.
        -13    1    4    4    0    0 -0.46390383630E+01 -0.69233160613E+02 -0.19401736884E+02  0.72049834139E+02  0.00000000000E+00 0.  1.
         13    1    4    4    0    0  0.38467461625E+02 -0.24223253942E+02 -0.99476336514E+02  0.10937117153E+03  0.00000000000E+00 0. -1.
          2    1    1    2  501    0  0.18706958317E+02  0.10912748474E+02  0.41147603022E+02  0.46499070993E+02  0.00000000000E+00 0. -1.
<scales pt_clust_5="13000.00000" pt_clust_6="13000.00000" pt_clust_7="13000.00000" pt_clust_8="13000.00000" pt_clust_9="21.65729"></scales>
<clustering>
<clus scale="   21.657">  1  9  2 -1</clus>
<clus scale="   94.356">  7  8 -1 -1</clus>
<clus scale="  110.508">  5  6 -1 -1</clus>
<clus scale="  135.905">  1  7  2 -1</clus>
<clus scale="   21.657">  1  5  2 -1</clus>
</clustering>
</event>
<event>
 9    1  0.1445593E-005  0.2600229E+03  0.7546771E-02  0.1149374E+00
         21   -1    0    0  501  502  0.00000000000E+00  0.00000000000E+00  0.25098086305E+03  0.25098086305E+03  0.00000000000E+00 0. -1.
          2   -1    0    0  502    0 -0.00000000000E+00 -0.00000000000E+00 -0.50366047760E+03  0.50366047760E+03  0.00000000000E+00 0. -1.
         23    2    1    2    0    0 -0.21014091459E+02  0.53991326754E+01 -0.22578776046E+03  0.24373629585E+03  0.89199363605E+02 0.  0.
         23    2    1    2    0    0  0.11771593425E+03 -0.22218317865E+03 -0.49134455355E+02  0.27249090449E+03  0.92815366606E+02 0.  0.
        -11    1    3    3    0    0  0.90726168301E+01 -0.33414978868E+02 -0.47319535224E+02  0.58634559798E+02  0.00000000000E+00 0.  1.
         11    1    3    3    0    0 -0.30086708289E+02  0.38814111543E+02 -0.17846822523E+03  0.18510173605E+03  0.00000000000E+00 0. -1.
        -13    1    4    4    0    0  0.49425751178E+02 -0.16475122787E+03 -0.29807931450E+01  0.17203126777E+03  0.00000000000E+00 0. -1.
         13    1    4    4    0    0  0.68290183076E+02 -0.57431950777E+02 -0.46153662210E+02  0.10045963672E+03  0.00000000000E+00 0.  1.
          2    1    1    2  501    0 -0.96701842794E+02  0.21678404597E+03  0.22242601258E+02  0.23841414031E+03  0.00000000000E+00 0. -1.
<scales pt_clust_5="13000.00000" pt_clust_6="13000.00000" pt_clust_7="13000.00000" pt_clust_8="13000.00000" pt_clust_9="242.89340"></scales>
<clustering>
<clus scale="   89.199">  5  6 -1 -1</clus>
<clus scale="   91.800">  2  5  1 -1</clus>
<clus scale="   92.815">  7  8 -1 -1</clus>
<clus scale="  242.893">  1  9  2 -1</clus>
<clus scale="  242.893">  1  5  2 -1</clus>
</clustering>
</event>
<event>
 9    1  0.1445593E-005  0.9253415E+02  0.7546771E-02  0.1298353E+00
          1   -1    0    0  502    0 -0.00000000000E+00  0.00000000000E+00  0.30106767721E+02  0.30106767721E+02  0.00000000000E+00 0. -1.
         21   -1    0    0  501  502  0.00000000000E+00 -0.00000000000E+00 -0.41410458005E+03  0.41410458005E+03  0.00000000000E+00 0.  1.
         23    2    1    2    0    0  0.22466861508E+01  0.87768221566E+01 -0.98917891577E+02  0.13376699855E+03  0.89592301126E+02 0.  0.
         23    2    1    2    0    0  0.21524962919E+02 -0.82609220620E+00 -0.25006902816E+03  0.26738545924E+03  0.92176236156E+02 0.  0.
        -11    1    3    3    0    0 -0.20405198313E+02  0.16623738239E+02  0.52825935546E+01  0.26844488930E+02  0.00000000000E+00 0. -1.
         11    1    3    3    0    0  0.22651884464E+02 -0.78469160822E+01 -0.10420048513E+03  0.10692250962E+03  0.00000000000E+00 0.  1.
        -13    1    4    4    0    0  0.56512241190E+02  0.77229615507E+01 -0.17623698787E+03  0.18523701961E+03  0.00000000000E+00 0.  1.
         13    1    4    4    0    0 -0.34987278271E+02 -0.85490537569E+01 -0.73832040289E+02  0.82148439634E+02  0.00000000000E+00 0. -1.
          1    1    1    2  501    0 -0.23771649070E+02 -0.79507299504E+01 -0.35010892597E+02  0.43058889984E+02  0.00000000000E+00 0. -1.
<scales pt_clust_5="13000.00000" pt_clust_6="13000.00000" pt_clust_7="13000.00000" pt_clust_8="13000.00000" pt_clust_9="25.06603"></scales>
<clustering>
<clus scale="   25.066">  2  9  1 -1</clus>
<clus scale="   89.592">  5  6 -1 -1</clus>
<clus scale="   89.960">  1  5  2 -1</clus>
<clus scale="   92.176">  7  8 -1 -1</clus>
<clus scale="   25.066">  2  5  1 -1</clus>
</clustering>
</event>
<event>
 9    1  0.1445593E-005  0.9988581E+02  0.7546771E-02  0.1287373E+00
         21   -1    0    0  501  502  0.00000000000E+00  0.00000000000E+00  0.63487752629E+02  0.63487752629E+02  0.00000000000E+00 0. -1.
          2   -1    0    0  502    0 -0.00000000000E+00 -0.00000000000E+00 -0.51920887592E+03  0.51920887592E+03  0.00000000000E+00 0. -1.
         23    2    1    2    0    0  0.23675895011E+02 -0.30234425383E+02 -0.35261276842E+03  0.36251999857E+03  0.74902045565E+02 0.  0.
         23    2    1    2    0    0 -0.40465222956E+02  0.80045628618E+02 -0.10967534061E+03  0.16720340275E+03  0.88789417298E+02 0.  0.
        -11    1    3    3    0    0  0.26753172477E+02  0.17692096227E+02 -0.89818481086E+02  0.95373487149E+02  0.00000000000E+00 0.  1.
         11    1    3    3    0    0 -0.30772774667E+01 -0.47926521610E+02 -0.26279428733E+03  0.26714651142E+03  0.00000000000E+00 0. -1.
        -11    1    4    4    0    0 -0.19549336303E+02  0.14488338349E+02  0.12217657586E+02  0.27227920502E+02  0.00000000000E+00 0.  1.
         11    1    4    4    0    0 -0.20915886653E+02  0.65557290270E+02 -0.12189299819E+03  0.13997548225E+03  0.00000000000E+00 0. -1.
          2    1    1    2  501    0  0.16789327945E+02 -0.49811203235E+02  0.65669857414E+01  0.52973227222E+02  0.00000000000E+00 0. -1.
<scales pt_clust_5="13000.00000" pt_clust_6="13000.00000" pt_clust_7="13000.00000" pt_clust_8="13000.00000" pt_clust_9="52.56460"></scales>
<clustering>
<clus scale="   52.565">  1  9  2 -1</clus>
<clus scale="   74.902">  5  6 -1 -1</clus>
<clus scale="   87.772">  2  5  1 -1</clus>
<clus scale="   88.789">  7  8 -1 -1</clus>
<clus scale="   52.565">  1  5  2 -1</clus>
</clustering>
</event>
<event>
 9    1  0.1445593E-005  0.1134904E+03  0.7546771E-02  0.1254590E+00
         21   -1    0    0  501  502  0.00000000000E+00  0.00000000000E+00  0.39274655667E+03  0.39274655667E+03  0.00000000000E+00 0. -1.
         -1   -1    0    0    0  501 -0.00000000000E+00 -0.00000000000E+00 -0.50681400988E+02  0.50681400988E+02  0.00000000000E+00 0.  1.
         23    2    1    2    0    0 -0.71757384149E+02 -0.27822529334E+01  0.77928993305E+02  0.13920752878E+03  0.90271506917E+02 0.  0.
         23    2    1    2    0    0  0.61564460755E+02  0.26043296938E+02  0.14788969877E+03  0.18523214308E+03  0.89281284062E+02 0.  0.
        -11    1    3    3    0    0 -0.17355521308E+02 -0.34532402553E+02  0.63894173383E+02  0.74673732585E+02  0.00000000000E+00 0.  1.
         11    1    3    3    0    0 -0.54401862842E+02  0.31750149619E+02  0.14034819923E+02  0.64533796198E+02  0.00000000000E+00 0. -1.
        -13    1    4    4    0    0  0.84617780201E+02  0.17276250429E+02  0.12200199738E+03  0.14947616840E+03  0.00000000000E+00 0. -1.
         13    1    4    4    0    0 -0.23053319446E+02  0.87670465088E+01  0.25887701394E+02  0.35755974682E+02  0.00000000000E+00 0.  1.
         -1    1    1    2    0  502  0.10192923394E+02 -0.23261044005E+02  0.11624646360E+03  0.11898828579E+03  0.00000000000E+00 0.  1.
<scales pt_clust_5="13000.00000" pt_clust_6="13000.00000" pt_clust_7="13000.00000" pt_clust_8="13000.00000" pt_clust_9="25.39630"></scales>
<clustering>
<clus scale="   25.396">  1  9  2 -1</clus>
<clus scale="   89.281">  7  8 -1 -1</clus>
<clus scale="   90.272">  5  6 -1 -1</clus>
<clus scale="  112.704">  1  7  2 -1</clus>
<clus scale="   25.396">  1  5  2 -1</clus>
</clustering>
</event>
<event>
 9    1  0.1445593E-005  0.1082554E+03  0.7546771E-02  0.1266142E+00
          3   -1    0    0  502    0 -0.00000000000E+00  0.00000000000E+00  0.50984262873E+03  0.50984262873E+03  0.00000000000E+00 0. -1.
         21   -1    0    0  501  502  0.00000000000E+00 -0.00000000000E+00 -0.52838384744E+02  0.52838384744E+02  0.00000000000E+00 0. -1.
         23    2    1    2    0    0 -0.58197516311E+02  0.86780228914E+01  0.35826721169E+03  0.37422528330E+03  0.90702308135E+02 0.  0.
         23    2    1    2    0    0  0.29214294992E+02  0.27006584367E+01  0.11550385313E+03  0.15309151397E+03  0.96099443145E+02 0.  0.
        -11    1    4    4    0    0 -0.24741580086E+02 -0.23475584811E+02  0.17854100965E+02  0.38496984150E+02  0.00000000000E+00 0.  1.
         11    1    4    4    0    0  0.53955875077E+02  0.26176243248E+02  0.97649752166E+02  0.11459452982E+03  0.00000000000E+00 0. -1.
        -13    1    3    3    0    0 -0.38938097595E+02 -0.28751040160E+02  0.29009071397E+03  0.29410103721E+03  0.00000000000E+00 0.  1.
         13    1    3    3    0    0 -0.19259418717E+02  0.37429063051E+02  0.68176497718E+02  0.80124246088E+02  0.00000000000E+00 0. -1.
          3    1    1    2  501    0  0.28983221320E+02 -0.11378681328E+02 -0.16766820839E+02  0.35364216206E+02  0.00000000000E+00 0. -1.
<scales pt_clust_5="13000.00000" pt_clust_6="13000.00000" pt_clust_7="13000.00000" pt_clust_8="13000.00000" pt_clust_9="31.13682"></scales>
<clustering>
<clus scale="   31.137">  2  9  1 -1</clus>
<clus scale="   90.702">  7  8 -1 -1</clus>
<clus scale="   96.099">  5  6 -1 -1</clus>
<clus scale="  103.494">  1  7  2 -1</clus>
<clus scale="   31.137">  2  5  1 -1</clus>
</clustering>
</event>
<event>
 9    1  0.1445593E-005  0.1098237E+03  0.7546771E-02  0.1261305E+00
          2   -1    0    0  502    0 -0.00000000000E+00  0.00000000000E+00  0.15983068372E+03  0.15983068372E+03  0.00000000000E+00 0. -1.
         21   -1    0    0  501  502  0.00000000000E+00 -0.00000000000E+00 -0.15279344717E+03  0.15279344717E+03  0.00000000000E+00 0.  1.
         23    2    1    2    0    0  0.39303187411E+02 -0.38329217555E+02  0.87123755623E+02  0.13721399885E+03  0.90682210101E+02 0.  0.
         23    2    1    2    0    0 -0.65723883792E+02  0.45497622793E+02 -0.42440990845E+02  0.12886311251E+03  0.91732227059E+02 0.  0.
        -11    1    3    3    0    0  0.10479769513E+02  0.29359808824E+02  0.36016623006E+02  0.47634242683E+02  0.00000000000E+00 0. -1.
         11    1    3    3    0    0  0.28823417899E+02 -0.67689026379E+02  0.51107132617E+02  0.89579756172E+02  0.00000000000E+00 0.  1.
        -11    1    4    4    0    0 -0.50061412303E+02  0.19777895053E+01 -0.61077727932E+02  0.78997123381E+02  0.00000000000E+00 0.  1.
         11    1    4    4    0    0 -0.15662471489E+02  0.43519833288E+02  0.18636737087E+02  0.49865989129E+02  0.00000000000E+00 0. -1.
          2    1    1    2  501    0  0.26420696381E+02 -0.71684052376E+01 -0.37645528230E+02  0.46547019524E+02  0.00000000000E+00 0. -1.
<scales pt_clust_5="13000.00000" pt_clust_6="13000.00000" pt_clust_7="13000.00000" pt_clust_8="13000.00000" pt_clust_9="27.37589"></scales>
<clustering>
<clus scale="   27.376">  2  9  1 -1</clus>
<clus scale="   90.682">  5  6 -1 -1</clus>
<clus scale="   91.732">  7  8 -1 -1</clus>
<clus scale="  108.948">  1  5  2 -1</clus>
<clus scale="   27.376">  2  5  1 -1</clus>
</clustering>
</event>
<event>
 9    1  0.1445593E-005  0.2199797E+03  0.7546771E-02  0.1133962E+00
         21   -1    0    0  501  502  0.00000000000E+00  0.00000000000E+00  0.58823250192E+03  0.58823250192E+03  0.00000000000E+00 0. -1.
          2   -1    0    0  502    0 -0.00000000000E+00 -0.00000000000E+00 -0.50721801139E+03  0.50721801139E+03  0.00000000000E+00 0. -1.
         23    2    1    2    0    0 -0.19976239520E+03  0.59533149294E+02 -0.43973040730E+03  0.49537049459E+03  0.92627670845E+02 0.  0.
         23    2    1    2    0    0  0.77648098143E+02 -0.11186798363E+03  0.26202209489E+03  0.30923929738E+03  0.91813353736E+02 0.  0.
        -11    1    4    4    0    0  0.38248152988E+02  0.12819098109E+01  0.32008117641E+02  0.49890721529E+02  0.00000000000E+00 0.  1.
         11    1    4    4    0    0  0.39399945155E+02 -0.11314989344E+03  0.23001397725E+03  0.25934857585E+03  0.00000000000E+00 0. -1.
        -13    1    3    3    0    0 -0.16887295533E+03  0.79144844740E+02 -0.32227753244E+03  0.37235035841E+03  0.00000000000E+00 0. -1.
         13    1    3    3    0    0 -0.30889439870E+02 -0.19611695446E+02 -0.11745287486E+03  0.12302013618E+03  0.00000000000E+00 0.  1.
          2    1    1    2  501    0  0.12211429705E+03  0.52334834336E+02  0.25872280294E+03  0.29084072134E+03  0.00000000000E+00 0. -1.
<scales pt_clust_5="13000.00000" pt_clust_6="13000.00000" pt_clust_7="13000.00000" pt_clust_8="13000.00000" pt_clust_9="132.85645"></scales>
<clustering>
<clus scale="   91.813">  5  6 -1 -1</clus>
<clus scale="   92.628">  7  8 -1 -1</clus>
<clus scale="  132.856">  1  9  2 -1</clus>
<clus scale="  219.638">  1  5  2 -1</clus>
<clus scale="  132.856">  1  5  2 -1</clus>
</clustering>
</event>
<event>
 9    1  0.1445593E-005  0.1029623E+03  0.7546771E-02  0.1274506E+00
         -2   -1    0    0    0  501 -0.00000000000E+00  0.00000000000E+00  0.17611695362E+03  0.17611695362E+03  0.00000000000E+00 0.  1.
         21   -1    0    0  501  502  0.00000000000E+00 -0.00000000000E+00 -0.13184142029E+03  0.13184142029E+03  0.00000000000E+00 0.  1.
         23    2    1    2    0    0  0.35784665233E+02  0.97105011217E+00  0.52080176044E+02  0.11071259814E+03  0.90903517237E+02 0.  0.
         23    2    1    2    0    0 -0.58630128996E+02  0.14176177326E+02  0.59349346685E+02  0.12471294178E+03  0.91610680958E+02 0.  0.
        -13    1    3    3    0    0  0.87204282777E+01 -0.33546426386E+02 -0.87205782310E+01  0.35741531547E+02  0.00000000000E+00 0.  1.
         13    1    3    3    0    0  0.27064236956E+02  0.34517476498E+02  0.60800754275E+02  0.74971066594E+02  0.00000000000E+00 0. -1.
        -13    1    4    4    0    0  0.13173783045E+02  0.15603919686E+02 -0.11827549076E+02  0.23599190377E+02  0.00000000000E+00 0. -1.
         13    1    4    4    0    0 -0.71803912041E+02 -0.14277423597E+01  0.71176895761E+02  0.10111375140E+03  0.00000000000E+00 0.  1.
         -2    1    1    2    0  502  0.22845463762E+02 -0.15147227439E+02 -0.67153989402E+02  0.72532833987E+02  0.00000000000E+00 0.  1.
<scales pt_clust_5="13000.00000" pt_clust_6="13000.00000" pt_clust_7="13000.00000" pt_clust_8="13000.00000" pt_clust_9="27.41083"></scales>
<clustering>
<clus scale="   27.411">  2  9  1 -1</clus>
<clus scale="   90.904">  5  6 -1 -1</clus>
<clus scale="   91.611">  7  8 -1 -1</clus>
<clus scale="  102.334">  1  5  2 -1</clus>
<clus scale="   27.411">  2  5  1 -1</clus>
</clustering>
</event>
<event>
 9    1  0.1445593E-005  0.1749086E+03  0.7546771E-02  0.1174045E+00
          1   -1    0    0  502    0 -0.00000000000E+00  0.00000000000E+00  0.66162116295E+03  0.66162116295E+03  0.00000000000E+00 0. -1.
         21   -1    0    0  501  502  0.00000000000E+00 -0.00000000000E+00 -0.17258436141E+03  0.17258436141E+03  0.00000000000E+00 0.  1.
         23    2    1    2    0    0 -0.13401562434E+03 -0.50701426519E+02  0.55961461137E+03  0.58577821516E+03  0.97143100046E+02 0.  0.
         23    2    1    2    0    0  0.14233742093E+03  0.82539374313E+02 -0.19564003779E+02  0.18772050870E+03  0.88224426528E+02 0.  0.
        -13    1    4    4    0    0  0.77127347678E+02  0.46040343244E+02  0.33714662432E+02  0.95942792479E+02  0.00000000000E+00 0. -1.
         13    1    4    4    0    0  0.65210073247E+02  0.36499031070E+02 -0.53278666212E+02  0.91777716224E+02  0.00000000000E+00 0.  1.
        -13    1    3    3    0    0 -0.27246132343E+01 -0.40195835930E+02  0.16114259477E+03  0.16610257250E+03  0.00000000000E+00 0.  1.
         13    1    3    3    0    0 -0.13129101110E+03 -0.10505590589E+02  0.39847201660E+03  0.41967564266E+03  0.00000000000E+00 0. -1.
          1    1    1    2  501    0 -0.83217965896E+01 -0.31837947794E+02 -0.51013806045E+02  0.60706800487E+02  0.00000000000E+00 0. -1.
<scales pt_clust_5="13000.00000" pt_clust_6="13000.00000" pt_clust_7="13000.00000" pt_clust_8="13000.00000" pt_clust_9="32.90756"></scales>
<clustering>
<clus scale="   32.908">  2  9  1 -1</clus>
<clus scale="   88.224">  5  6 -1 -1</clus>
<clus scale="   97.143">  7  8 -1 -1</clus>
<clus scale="  170.117">  2  5  1 -1</clus>
<clus scale="   32.908">  2  5  1 -1</clus>
</clustering>
</event>
<event>
 9    1  0.1445593E-005  0.1010917E+03  0.7546771E-02  0.1278511E+00
         21   -1    0    0  501  502  0.00000000000E+00  0.00000000000E+00  0.68678657974E+03  0.68678657974E+03  0.00000000000E+00 0.  1.
         -2   -1    0    0    0  501 -0.00000000000E+00 -0.00000000000E+00 -0.22474544510E+02  0.22474544510E+02  0.00000000000E+00 0.  1.
         23    2    1    2    0    0 -0.43693645530E+02  0.14954659977E+02  0.16906032438E+03  0.19805709122E+03  0.92262893893E+02 0.  0.
         23    2    1    2    0    0  0.35152057771E+02  0.11001936690E+02  0.35877376032E+03  0.37201734325E+03  0.91222709912E+02 0.  0.
        -11    1    3    3    0    0 -0.58740136091E+02  0.36538033636E+02  0.82912475516E+02  0.10798106355E+03  0.00000000000E+00 0.  1.
         11    1    3    3    0    0  0.15046490561E+02 -0.21583373659E+02  0.86147848865E+02  0.90076027670E+02  0.00000000000E+00 0. -1.
        -11    1    4    4    0    0  0.27446092852E+02  0.50566897972E+02  0.19156033017E+03  0.20001414770E+03  0.00000000000E+00 0.  1.
         11    1    4    4    0    0  0.77059649192E+01 -0.39564961282E+02  0.16721343015E+03  0.17200319555E+03  0.00000000000E+00 0. -1.
         -2    1    1    2    0  502  0.85415877586E+01 -0.25956596667E+02  0.13647795052E+03  0.13918668978E+03  0.00000000000E+00 0.  1.
<scales pt_clust_5="13000.00000" pt_clust_6="13000.00000" pt_clust_7="13000.00000" pt_clust_8="13000.00000" pt_clust_9="27.32588"></scales>
<clustering>
<clus scale="   27.326">  1  9  2 -1</clus>
<clus scale="   91.223">  7  8 -1 -1</clus>
<clus scale="   92.263">  5  6 -1 -1</clus>
<clus scale="  100.143">  1  7  2 -1</clus>
<clus scale="   27.326">  1  5  2 -1</clus>
</clustering>
</event>
<event>
 9    1  0.1445593E-005  0.4625543E+03  0.7546771E-02  0.1024070E+00
         21   -1    0    0  501  502  0.00000000000E+00  0.00000000000E+00  0.73585708728E+03  0.73585708728E+03  0.00000000000E+00 0. -1.
          2   -1    0    0  502    0 -0.00000000000E+00 -0.00000000000E+00 -0.50806243038E+03  0.50806243038E+03  0.00000000000E+00 0. -1.
         23    2    1    2    0    0  0.44029238070E+03 -0.21096340105E+03 -0.16553517308E+03  0.52374904606E+03  0.92456652718E+02 0.  0.
         23    2    1    2    0    0 -0.34435098192E+03  0.10140081553E+03  0.43254336451E+03  0.56935133013E+03  0.90594982177E+02 0.  0.
        -11    1    4    4    0    0 -0.20637992122E+03  0.94177238802E+02  0.22113346956E+03  0.31679967732E+03  0.00000000000E+00 0.  1.
         11    1    4    4    0    0 -0.13797106070E+03  0.72235767242E+01  0.21140989495E+03  0.25255165280E+03  0.00000000000E+00 0. -1.
        -13    1    3    3    0    0  0.48229770389E+02  0.48047705836E+01 -0.25907804067E+02  0.54958264926E+02  0.00000000000E+00 0.  1.
         13    1    3    3    0    0  0.39206261031E+03 -0.21576817163E+03 -0.13962736901E+03  0.46879078113E+03  0.00000000000E+00 0. -1.
          2    1    1    2  501    0 -0.95941398786E+02  0.10956258552E+03 -0.39213534532E+02  0.15081914148E+03  0.00000000000E+00 0. -1.
<scales pt_clust_5="13000.00000" pt_clust_6="13000.00000" pt_clust_7="13000.00000" pt_clust_8="13000.00000" pt_clust_9="145.63219"></scales>
<clustering>
<clus scale="   90.595">  5  6 -1 -1</clus>
<clus scale="   92.457">  7  8 -1 -1</clus>
<clus scale="  145.632">  1  9  2 -1</clus>
<clus scale="  462.186">  1  5  2 -1</clus>
<clus scale="  145.632">  1  5  2 -1</clus>
</clustering>
</event>
<event>
 9    1  0.1445593E-005  0.2552412E+03  0.7546771E-02  0.1141753E+00
          1   -1    0    0  502    0 -0.00000000000E+00  0.00000000000E+00  0.89607339709E+03  0.89607339709E+03  0.00000000000E+00 0. -1.
         21   -1    0    0  501  502  0.00000000000E+00 -0.00000000000E+00 -0.11852173645E+03  0.11852173645E+03  0.00000000000E+00 0. -1.
         23    2    1    2    0    0 -0.31131618765E+02  0.65543807182E+02  0.12750321271E+03  0.17266588458E+03  0.91056411629E+02 0.  0.
         23    2    1    2    0    0  0.66761514521E+02  0.18470724570E+03  0.50429532582E+03  0.55014328024E+03  0.98843243137E+02 0.  0.
        -11    1    3    3    0    0 -0.53057464970E+02  0.12550095390E+02  0.86181028014E+02  0.10197925805E+03  0.00000000000E+00 0. -1.
         11    1    3    3    0    0  0.21925846205E+02  0.52993711793E+02  0.41322184693E+02  0.70686626523E+02  0.00000000000E+00 0.  1.
        -11    1    4    4    0    0  0.55810673554E+02  0.48752502409E+02  0.25995675351E+03  0.27031306197E+03  0.00000000000E+00 0. -1.
         11    1    4    4    0    0  0.10950840967E+02  0.13595474329E+03  0.24433857231E+03  0.27983021827E+03  0.00000000000E+00 0.  1.
          1    1    1    2  501    0 -0.35629895756E+02 -0.25025105288E+03  0.14575312211E+03  0.29178596872E+03  0.00000000000E+00 0. -1.
<scales pt_clust_5="13000.00000" pt_clust_6="13000.00000" pt_clust_7="13000.00000" pt_clust_8="13000.00000" pt_clust_9="235.32551"></scales>
<clustering>
<clus scale="   91.056">  5  6 -1 -1</clus>
<clus scale="   98.843">  7  8 -1 -1</clus>
<clus scale="  116.432">  1  5  2 -1</clus>
<clus scale="  235.326">  2  9  1 -1</clus>
<clus scale="  235.326">  2  5  1 -1</clus>
</clustering>
</event>
<event>
 9    1  0.1445593E-005  0.1052220E+03  0.7546771E-02  0.1274437E+00
         21   -1    0    0  501  502  0.00000000000E+00  0.00000000000E+00  0.51260453838E+03  0.51260453838E+03  0.00000000000E+00 0. -1.
          1   -1    0    0  502    0 -0.00000000000E+00 -0.00000000000E+00 -0.44902816412E+02  0.44902816412E+02  0.00000000000E+00 0. -1.
         23    2    1    2    0    0 -0.30587358454E+02  0.59274378140E+00  0.38430733469E+02  0.10151634608E+03  0.88840921905E+02 0.  0.
         23    2    1    2    0    0  0.58937606127E+02 -0.77434244496E+01  0.26257882737E+03  0.28675405837E+03  0.98725110138E+02 0.  0.
        -11    1    4    4    0    0 -0.23802308758E+02 -0.10513825337E+02  0.29123300756E+02  0.39054539715E+02  0.00000000000E+00 0.  1.
         11    1    4    4    0    0  0.82739914886E+02  0.27704008874E+01  0.23345552661E+03  0.24769951865E+03  0.00000000000E+00 0. -1.
        -13    1    3    3    0    0 -0.48189356683E+02  0.14048936561E+02  0.54539933374E+02  0.74122810582E+02  0.00000000000E+00 0. -1.
         13    1    3    3    0    0  0.17601998228E+02 -0.13456192780E+02 -0.16109199905E+02  0.27393535503E+02  0.00000000000E+00 0.  1.
          1    1    1    2  501    0 -0.28350247673E+02  0.71506806682E+01  0.16669216114E+03  0.16923695034E+03  0.00000000000E+00 0. -1.
<scales pt_clust_5="13000.00000" pt_clust_6="13000.00000" pt_clust_7="13000.00000" pt_clust_8="13000.00000" pt_clust_9="29.23814"></scales>
<clustering>
<clus scale="   29.238">  1  9  2 -1</clus>
<clus scale="   88.841">  7  8 -1 -1</clus>
<clus scale="   96.009">  2  7  1 -1</clus>
<clus scale="   98.725">  5  6 -1 -1</clus>
<clus scale="   29.238">  1  5  2 -1</clus>
</clustering>
</event>
<event>
 9    1  0.1445593E-005  0.1014517E+03  0.7546771E-02  0.1282387E+00
         21   -1    0    0  501  502  0.00000000000E+00  0.00000000000E+00  0.23663918152E+03  0.23663918152E+03  0.00000000000E+00 0. -1.
         -1   -1    0    0    0  501 -0.00000000000E+00 -0.00000000000E+00 -0.12681998605E+03  0.12681998605E+03  0.00000000000E+00 0.  1.
         23    2    1    2    0    0  0.16672206970E+02 -0.10951288898E+02 -0.81013015554E+02  0.13033746241E+03  0.10013417101E+03 0.  0.
         23    2    1    2    0    0 -0.40505232163E+01 -0.24963130418E+02  0.15198829634E+03  0.17873418709E+03  0.90586438225E+02 0.  0.
        -11    1    4    4    0    0 -0.35603472303E+02 -0.35195542654E+02  0.47140927051E+02  0.68764819973E+02  0.00000000000E+00 0.  1.
         11    1    4    4    0    0  0.31552949086E+02  0.10232412236E+02  0.10484736929E+03  0.10996936711E+03  0.00000000000E+00 0. -1.
        -11    1    3    3    0    0 -0.10363221885E+02  0.28765806950E+02  0.57955939061E+01  0.31120040586E+02  0.00000000000E+00 0.  1.
         11    1    3    3    0    0  0.27035428856E+02 -0.39717095848E+02 -0.86808609460E+02  0.99217421819E+02  0.00000000000E+00 0. -1.
         -1    1    1    2    0  502 -0.12621683754E+02  0.35914419315E+02  0.38843914684E+02  0.54387518086E+02  0.00000000000E+00 0.  1.
<scales pt_clust_5="13000.00000" pt_clust_6="13000.00000" pt_clust_7="13000.00000" pt_clust_8="13000.00000" pt_clust_9="38.06773"></scales>
<clustering>
<clus scale="   38.068">  1  9  2 -1</clus>
<clus scale="   90.586">  5  6 -1 -1</clus>
<clus scale="   92.041">  1  5  2 -1</clus>
<clus scale="  100.134">  7  8 -1 -1</clus>
<clus scale="   38.068">  1  5  2 -1</clus>
</clustering>
</event>
<event>
 9    1  0.1445593E-005  0.1308327E+03  0.7546771E-02  0.1227455E+00
         -4   -1    0    0    0  501 -0.00000000000E+00  0.00000000000E+00  0.22523617520E+03  0.22523617520E+03  0.00000000000E+00 0.  1.
         21   -1    0    0  501  502  0.00000000000E+00 -0.00000000000E+00 -0.13839711417E+03  0.13839711417E+03  0.00000000000E+00 0.  1.
         23    2    1    2    0    0  0.76334857010E+02 -0.62742502520E+02  0.13260603137E+03  0.18847786305E+03  0.90420756935E+02 0.  0.
         23    2    1    2    0    0 -0.55920276137E+02  0.44690521336E+02  0.33237106471E+01  0.11900808358E+03  0.95013456546E+02 0.  0.
        -11    1    4    4    0    0 -0.12265551168E+02 -0.15910020021E+02  0.33005992774E+02  0.38638944623E+02  0.00000000000E+00 0.  1.
         11    1    4    4    0    0 -0.43654724969E+02  0.60600541357E+02 -0.29682282127E+02  0.80369138959E+02  0.00000000000E+00 0. -1.
        -13    1    3    3    0    0  0.61803450677E+02 -0.39168411214E+02  0.14157782861E+03  0.15936785280E+03  0.00000000000E+00 0.  1.
         13    1    3    3    0    0  0.14531406333E+02 -0.23574091306E+02 -0.89717972350E+01  0.29110010246E+02  0.00000000000E+00 0. -1.
         -4    1    1    2    0  502 -0.20414580873E+02  0.18051981185E+02 -0.49090680991E+02  0.56147342743E+02  0.00000000000E+00 0.  1.
<scales pt_clust_5="13000.00000" pt_clust_6="13000.00000" pt_clust_7="13000.00000" pt_clust_8="13000.00000" pt_clust_9="27.25122"></scales>
<clustering>
<clus scale="   27.251">  2  9  1 -1</clus>
<clus scale="   90.421">  7  8 -1 -1</clus>
<clus scale="   95.013">  5  6 -1 -1</clus>
<clus scale="  127.536">  1  7  2 -1</clus>
<clus scale="   27.251">  2  5  1 -1</clus>
</clustering>
</event>
<event>
 9    1  0.1518853E-005  0.1064019E+03  0.7546771E-02  0.1268966E+00
          3   -1    0    0  502    0 -0.00000000000E+00  0.00000000000E+00  0.14291297101E+03  0.14291297101E+03  0.00000000000E+00 0. -1.
         21   -1    0    0  501  502  0.00000000000E+00 -0.00000000000E+00 -0.29443974968E+03  0.29443974968E+03  0.00000000000E+00 0. -1.
         23    2    1    2    0    0 -0.18052668089E+02  0.35663102202E+02  0.59032968388E+02  0.11544330689E+03  0.90799284495E+02 0.  0.
         23    2    1    2    0    0  0.46187306337E+02 -0.53562367572E+02 -0.97957851675E+01  0.11839501637E+03  0.94441664577E+02 0.  0.
        -11    1    4    4    0    0 -0.13643526911E+02  0.15457109182E+02 -0.17065651669E+02  0.26763865897E+02  0.00000000000E+00 0.  1.
         11    1    4    4    0    0  0.59830833248E+02 -0.69019476753E+02  0.72698665018E+01  0.91631150475E+02  0.00000000000E+00 0. -1.
        -11    1    3    3    0    0 -0.32492251130E+02 -0.14660355741E+02 -0.11629871580E+01  0.35665458823E+02  0.00000000000E+00 0. -1.
         11    1    3    3    0    0  0.14439583041E+02  0.50323457943E+02  0.60195955546E+02  0.79777848065E+02  0.00000000000E+00 0.  1.
          3    1    1    2  501    0 -0.28134638248E+02  0.17899265369E+02 -0.20076396189E+03  0.20351439743E+03  0.00000000000E+00 0. -1.
<scales pt_clust_5="13000.00000" pt_clust_6="13000.00000" pt_clust_7="13000.00000" pt_clust_8="13000.00000" pt_clust_9="33.34579"></scales>
<clustering>
<clus scale="   33.346">  2  9  1 -1</clus>
<clus scale="   90.799">  7  8 -1 -1</clus>
<clus scale="   94.442">  5  6 -1 -1</clus>
<clus scale="  103.183">  1  7  2 -1</clus>
<clus scale="   33.346">  2  5  1 -1</clus>
</clustering>
</event>
<event>
 9    1  0.1445593E-005  0.9759870E+02  0.7546771E-02  0.1287933E+00
          4   -1    0    0  502    0 -0.00000000000E+00  0.00000000000E+00  0.11071172423E+03  0.11071172423E+03  0.00000000000E+00 0. -1.
         21   -1    0    0  501  502  0.00000000000E+00 -0.00000000000E+00 -0.13996844543E+03  0.13996844543E+03  0.00000000000E+00 0.  1.
         23    2    1    2    0    0 -0.38916121137E+02  0.29053744954E+02  0.34105681892E+02  0.10747489463E+03  0.89605082764E+02 0.  0.
         23    2    1    2    0    0  0.10880374263E+01 -0.24649985781E+02 -0.55811272847E+02  0.10438032713E+03  0.84684998025E+02 0.  0.
        -11    1    3    3    0    0 -0.31810023403E+02  0.58567295985E+02  0.38237178786E+02  0.76838060812E+02  0.00000000000E+00 0. -1.
         11    1    3    3    0    0 -0.71060977346E+01 -0.29513551032E+02 -0.41314968937E+01  0.30636833813E+02  0.00000000000E+00 0.  1.
        -11    1    4    4    0    0  0.30566592644E+02  0.18662527921E+02 -0.22494300212E+02  0.42291844087E+02  0.00000000000E+00 0. -1.
         11    1    4    4    0    0 -0.29478555218E+02 -0.43312513702E+02 -0.33316972634E+02  0.62088483042E+02  0.00000000000E+00 0.  1.
          4    1    1    2  501    0  0.37828083711E+02 -0.44037591725E+01 -0.75511302445E+01  0.38824947908E+02  0.00000000000E+00 0. -1.
<scales pt_clust_5="13000.00000" pt_clust_6="13000.00000" pt_clust_7="13000.00000" pt_clust_8="13000.00000" pt_clust_9="38.08355"></scales>
<clustering>
<clus scale="   38.084">  2  9  1 -1</clus>
<clus scale="   84.685">  7  8 -1 -1</clus>
<clus scale="   89.605">  5  6 -1 -1</clus>
<clus scale="   93.102">  2  7  1 -1</clus>
<clus scale="   38.084">  2  5  1 -1</clus>
</clustering>
</event>
<event>
 9    1  0.1445593E-005  0.1029655E+03  0.7546771E-02  0.1275046E+00
          1   -1    0    0  502    0 -0.00000000000E+00  0.00000000000E+00  0.43440959362E+03  0.43440959362E+03  0.00000000000E+00 0. -1.
         21   -1    0    0  501  502  0.00000000000E+00 -0.00000000000E+00 -0.34016446237E+03  0.34016446237E+03  0.00000000000E+00 0. -1.
         23    2    1    2    0    0  0.91368217537E+01 -0.42350833505E+02  0.21623924564E+03  0.23809758899E+03  0.89743946420E+02 0.  0.
         23    2    1    2    0    0 -0.50527652035E+02  0.33338493735E+02  0.19116017404E+03  0.22047008817E+03  0.91653417023E+02 0.  0.
        -13    1    3    3    0    0 -0.44406004679E+01 -0.65402483745E+02  0.18843865118E+03  0.19951523519E+03  0.00000000000E+00 0.  1.
         13    1    3    3    0    0  0.13577422222E+02  0.23051650240E+02  0.27800594458E+02  0.38582353806E+02  0.00000000000E+00 0. -1.
        -13    1    4    4    0    0  0.44800595237E+01  0.41024277209E+02  0.13626826012E+03  0.14238012843E+03  0.00000000000E+00 0.  1.
         13    1    4    4    0    0 -0.55007711559E+02 -0.76857834738E+01  0.54891913918E+02  0.78089959739E+02  0.00000000000E+00 0. -1.
          1    1    1    2  501    0  0.41390830282E+02  0.90123397702E+01 -0.31315428843E+03  0.31600637883E+03  0.00000000000E+00 0. -1.
<scales pt_clust_5="13000.00000" pt_clust_6="13000.00000" pt_clust_7="13000.00000" pt_clust_8="13000.00000" pt_clust_9="42.36063"></scales>
<clustering>
<clus scale="   42.361">  2  9  1 -1</clus>
<clus scale="   89.744">  5  6 -1 -1</clus>
<clus scale="   91.653">  7  8 -1 -1</clus>
<clus scale="  101.270">  1  5  2 -1</clus>
<clus scale="   42.361">  2  5  1 -1</clus>
</clustering>
</event>
<event>
 9    1  0.1445593E-005  0.9581971E+02  0.7546771E-02  0.1290204E+00
         -1   -1    0    0    0  501 -0.00000000000E+00  0.00000000000E+00  0.59323134407E+02  0.59323134407E+02  0.00000000000E+00 0.  1.
         21   -1    0    0  501  502  0.00000000000E+00 -0.00000000000E+00 -0.48210112255E+03  0.48210112255E+03  0.00000000000E+00 0.  1.
         23    2    1    2    0    0 -0.37671168916E+01 -0.42564222747E+02 -0.52171633416E+02  0.11460459689E+03  0.92662991900E+02 0.  0.
         23    2    1    2    0    0 -0.49504459759E+02 -0.38016969878E+02 -0.15259976913E+03  0.18837037647E+03  0.91108329244E+02 0.  0.
        -11    1    3    3    0    0  0.90538040170E+01 -0.63557379086E+02 -0.88769208887E+01  0.64809810430E+02  0.00000000000E+00 0.  1.
         11    1    3    3    0    0 -0.12820920909E+02  0.20993156339E+02 -0.43294712527E+02  0.49794786462E+02  0.00000000000E+00 0. -1.
        -13    1    4    4    0    0 -0.72026704694E+02 -0.34446213617E+02 -0.83159822637E+02  0.11528201908E+03  0.00000000000E+00 0.  1.
         13    1    4    4    0    0  0.22522244935E+02 -0.35707562613E+01 -0.69439946492E+02  0.73088357390E+02  0.00000000000E+00 0. -1.
         -1    1    1    2    0  502  0.53271576650E+02  0.80581192625E+02 -0.21800658560E+03  0.23844928360E+03  0.00000000000E+00 0.  1.
<scales pt_clust_5="13000.00000" pt_clust_6="13000.00000" pt_clust_7="13000.00000" pt_clust_8="13000.00000" pt_clust_9="96.59808"></scales>
<clustering>
<clus scale="   91.108">  7  8 -1 -1</clus>
<clus scale="   92.663">  5  6 -1 -1</clus>
<clus scale="   96.598">  2  9  1 -1</clus>
<clus scale="   96.598">  2  7  1 -1</clus>
<clus scale="   95.820">  2  5  1 -1</clus>
</clustering>
</event>
<event>
 9    1  0.1445593E-005  0.1230911E+03  0.7546771E-02  0.1240539E+00
         21   -1    0    0  501  502  0.00000000000E+00  0.00000000000E+00  0.16498927943E+03  0.16498927943E+03  0.00000000000E+00 0. -1.
         -2   -1    0    0    0  501 -0.00000000000E+00 -0.00000000000E+00 -0.37194778090E+03  0.37194778090E+03  0.00000000000E+00 0.  1.
         23    2    1    2    0    0  0.65740591913E+02 -0.56295608172E+02 -0.30039415107E+03  0.32320233400E+03  0.82049264387E+02 0.  0.
         23    2    1    2    0    0 -0.46012526847E+02  0.52220048939E+02 -0.40775127709E+01  0.11416252352E+03  0.90401158891E+02 0.  0.
        -11    1    3    3    0    0 -0.12374244690E+02 -0.24578331211E+02 -0.13252134616E+03  0.13534815657E+03  0.00000000000E+00 0.  1.
         11    1    3    3    0    0  0.78114836602E+02 -0.31717276960E+02 -0.16787280490E+03  0.18785417744E+03  0.00000000000E+00 0. -1.
        -13    1    4    4    0    0  0.15564283528E+02 -0.14229948606E+02 -0.10071326200E+02  0.23370279641E+02  0.00000000000E+00 0.  1.
         13    1    4    4    0    0 -0.61576810375E+02  0.66449997546E+02  0.59938134294E+01  0.90792243882E+02  0.00000000000E+00 0. -1.
         -2    1    1    2    0  502 -0.19728065066E+02  0.40755592327E+01  0.97513162376E+02  0.99572202802E+02  0.00000000000E+00 0.  1.
<scales pt_clust_5="13000.00000" pt_clust_6="13000.00000" pt_clust_7="13000.00000" pt_clust_8="13000.00000" pt_clust_9="20.14465"></scales>
<clustering>
<clus scale="   20.145">  1  9  2 -1</clus>
<clus scale="   82.049">  5  6 -1 -1</clus>
<clus scale="   90.401">  7  8 -1 -1</clus>
<clus scale="  117.094">  2  5  1 -1</clus>
<clus scale="   20.145">  1  5  2 -1</clus>
</clustering>
</event>
<event>
 9    1  0.1445593E-005  0.1309045E+03  0.7546771E-02  0.1226147E+00
         -3   -1    0    0    0  501 -0.00000000000E+00  0.00000000000E+00  0.52513910136E+03  0.52513910136E+03  0.00000000000E+00 0.  1.
         21   -1    0    0  501  502  0.00000000000E+00 -0.00000000000E+00 -0.68740381495E+02  0.68740381495E+02  0.00000000000E+00 0. -1.
         23    2    1    2    0    0 -0.10898969779E+03 -0.39780470588E+02  0.34853660532E+03  0.37861373000E+03  0.91702514856E+02 0.  0.
         23    2    1    2    0    0  0.61076912075E+02 -0.82659839796E+00  0.10539440191E+03  0.15241148735E+03  0.91598084414E+02 0.  0.
        -13    1    3    3    0    0 -0.62344134784E+02 -0.30145814809E+02  0.30914099400E+03  0.31680232869E+03  0.00000000000E+00 0.  1.
         13    1    3    3    0    0 -0.46645563008E+02 -0.96346557793E+01  0.39395611315E+02  0.61811401304E+02  0.00000000000E+00 0. -1.
        -13    1    4    4    0    0  0.85011638604E+02 -0.66489534345E+01  0.85432443155E+02  0.12070579780E+03  0.00000000000E+00 0.  1.
         13    1    4    4    0    0 -0.23934726529E+02  0.58223550365E+01  0.19961958758E+02  0.31705689547E+02  0.00000000000E+00 0. -1.
         -3    1    1    2    0  502  0.47912785717E+02  0.40607068986E+02  0.24677126333E+01  0.62854265507E+02  0.00000000000E+00 0.  1.
<scales pt_clust_5="13000.00000" pt_clust_6="13000.00000" pt_clust_7="13000.00000" pt_clust_8="13000.00000" pt_clust_9="62.80580"></scales>
<clustering>
<clus scale="   62.806">  2  9  1 -1</clus>
<clus scale="   91.598">  7  8 -1 -1</clus>
<clus scale="   91.703">  5  6 -1 -1</clus>
<clus scale="  130.831">  2  7  1 -1</clus>
<clus scale="   62.806">  2  5  1 -1</clus>
</clustering>
</event>
<event>
 9    1  0.1445593E-005  0.9432209E+02  0.7546771E-02  0.1293229E+00
         21   -1    0    0  501  502  0.00000000000E+00  0.00000000000E+00  0.74487574859E+03  0.74487574859E+03  0.00000000000E+00 0.  1.
         -3   -1    0    0    0  501 -0.00000000000E+00 -0.00000000000E+00 -0.26112941668E+02  0.26112941668E+02  0.00000000000E+00 0.  1.
         23    2    1    2    0    0 -0.28797807293E+02 -0.27611136135E+02  0.17640443954E+03  0.20306290043E+03  0.92327280364E+02 0.  0.
         23    2    1    2    0    0 -0.32465873268E+02 -0.27187632739E+01  0.36983797116E+03  0.38235524134E+03  0.91400115233E+02 0.  0.
        -11    1    3    3    0    0 -0.54984312594E+02  0.20540225247E+01  0.13504204503E+03  0.14582128639E+03  0.00000000000E+00 0.  1.
         11    1    3    3    0    0  0.26186505301E+02 -0.29665158660E+02  0.41362394512E+02  0.57241614041E+02  0.00000000000E+00 0. -1.
        -13    1    4    4    0    0 -0.34935554064E+02  0.37818724102E+02  0.26439886961E+03  0.26936501458E+03  0.00000000000E+00 0.  1.
         13    1    4    4    0    0  0.24696807967E+01 -0.40537487375E+02  0.10543910155E+03  0.11299022675E+03  0.00000000000E+00 0. -1.
         -3    1    1    2    0  502  0.61263680560E+02  0.30329899409E+02  0.17252039622E+03  0.18557054849E+03  0.00000000000E+00 0.  1.
<scales pt_clust_5="13000.00000" pt_clust_6="13000.00000" pt_clust_7="13000.00000" pt_clust_8="13000.00000" pt_clust_9="68.36041"></scales>
<clustering>
<clus scale="   68.360">  1  9  2 -1</clus>
<clus scale="   91.400">  7  8 -1 -1</clus>
<clus scale="   92.327">  5  6 -1 -1</clus>
<clus scale="   93.415">  1  7  2 -1</clus>
<clus scale="   68.360">  1  5  2 -1</clus>
</clustering>
</event>
<event>
 9    1  0.1445593E-005  0.1046851E+03  0.7546771E-02  0.1270755E+00
          2   -1    0    0  502    0 -0.00000000000E+00  0.00000000000E+00  0.52216746770E+03  0.52216746770E+03  0.00000000000E+00 0. -1.
         21   -1    0    0  501  502  0.00000000000E+00 -0.00000000000E+00 -0.37840430118E+02  0.37840430118E+02  0.00000000000E+00 0.  1.
         23    2    1    2    0    0 -0.13293707462E+02  0.28178058654E+02  0.28211516705E+03  0.29933515413E+03  0.95088597472E+02 0.  0.
         23    2    1    2    0    0  0.38878699264E+02 -0.57631388687E+02  0.18181145542E+03  0.21664698541E+03  0.95118771787E+02 0.  0.
        -11    1    3    3    0    0  0.18615316406E+02  0.54352524397E+02  0.13947234707E+03  0.15084184602E+03  0.00000000000E+00 0.  1.
         11    1    3    3    0    0 -0.31909023868E+02 -0.26174465743E+02  0.14264281998E+03  0.14849330811E+03  0.00000000000E+00 0. -1.
        -11    1    4    4    0    0  0.64693614822E+02 -0.64043185637E+02  0.13547044860E+03  0.16321469256E+03  0.00000000000E+00 0.  1.
         11    1    4    4    0    0 -0.25814915558E+02  0.64117969501E+01  0.46341006821E+02  0.53432292845E+02  0.00000000000E+00 0. -1.
          2    1    1    2  501    0 -0.25584991802E+02  0.29453330033E+02  0.20400415112E+02  0.44025758282E+02  0.00000000000E+00 0. -1.
<scales pt_clust_5="13000.00000" pt_clust_6="13000.00000" pt_clust_7="13000.00000" pt_clust_8="13000.00000" pt_clust_9="39.01398"></scales>
<clustering>
<clus scale="   39.014">  2  9  1 -1</clus>
<clus scale="   95.089">  5  6 -1 -1</clus>
<clus scale="   95.119">  7  8 -1 -1</clus>
<clus scale="  104.658">  1  5  2 -1</clus>
<clus scale="   39.014">  2  5  1 -1</clus>
</clustering>
</event>
<event>
 9    1  0.1445593E-005  0.1044163E+03  0.7546771E-02  0.1273945E+00
         21   -1    0    0  501  502  0.00000000000E+00  0.00000000000E+00  0.33770740384E+02  0.33770740384E+02  0.00000000000E+00 0.  1.
         -1   -1    0    0    0  501 -0.00000000000E+00 -0.00000000000E+00 -0.52364262242E+03  0.52364262242E+03  0.00000000000E+00 0.  1.
         23    2    1    2    0    0  0.25259973931E+02  0.51656025096E+02 -0.35297982545E+03  0.36916927840E+03  0.91568486541E+02 0.  0.
         23    2    1    2    0    0 -0.35217159393E+02 -0.18800362394E+02 -0.10730401786E+03  0.14292199101E+03  0.85550226908E+02 0.  0.
        -11    1    4    4    0    0 -0.57433676125E+02 -0.62724811575E+01 -0.38201371377E+02  0.69262659119E+02  0.00000000000E+00 0.  1.
         11    1    4    4    0    0  0.22216516733E+02 -0.12527881237E+02 -0.69102646480E+02  0.73659331891E+02  0.00000000000E+00 0. -1.
        -13    1    3    3    0    0 -0.24822714684E+02  0.41390522931E+02 -0.24486856073E+03  0.24957955562E+03  0.00000000000E+00 0.  1.
         13    1    3    3    0    0  0.50082688615E+02  0.10265502165E+02 -0.10811126473E+03  0.11958972278E+03  0.00000000000E+00 0. -1.
         -1    1    1    2    0  502  0.99571854618E+01 -0.32855662702E+02 -0.29588038726E+02  0.45322093393E+02  0.00000000000E+00 0.  1.
<scales pt_clust_5="13000.00000" pt_clust_6="13000.00000" pt_clust_7="13000.00000" pt_clust_8="13000.00000" pt_clust_9="34.33133"></scales>
<clustering>
<clus scale="   34.331">  1  9  2 -1</clus>
<clus scale="   85.550">  5  6 -1 -1</clus>
<clus scale="   91.568">  7  8 -1 -1</clus>
<clus scale="   99.181">  1  5  2 -1</clus>
<clus scale="   34.331">  1  5  2 -1</clus>
</clustering>
</event>
<event>
 9    1  0.1445593E-005  0.9223438E+02  0.7546771E-02  0.1299459E+00
         -2   -1    0    0    0  501 -0.00000000000E+00  0.00000000000E+00  0.32372957411E+03  0.32372957411E+03  0.00000000000E+00 0.  1.
         21   -1    0    0  501  502  0.00000000000E+00 -0.00000000000E+00 -0.61048386417E+02  0.61048386417E+02  0.00000000000E+00 0. -1.
         23    2    1    2    0    0 -0.95476451679E+01  0.13739486709E+02  0.25264281917E+03  0.26790902467E+03  0.87560952469E+02 0.  0.
         23    2    1    2    0    0 -0.11740745402E+02 -0.19582553968E+02  0.30694439123E+01  0.93719358790E+02  0.90843685546E+02 0.  0.
        -11    1    3    3    0    0  0.31094405212E+02  0.13250734695E+02  0.19169204678E+03  0.19464913256E+03  0.00000000000E+00 0.  1.
         11    1    3    3    0    0 -0.40642050380E+02  0.48875201476E+00  0.60950772390E+02  0.73259892114E+02  0.00000000000E+00 0. -1.
        -13    1    4    4    0    0  0.35670566519E+02  0.10867573398E+02  0.18893139576E-01  0.37289325876E+02  0.00000000000E+00 0.  1.
         13    1    4    4    0    0 -0.47411311921E+02 -0.30450127366E+02  0.30505507727E+01  0.56430032914E+02  0.00000000000E+00 0. -1.
         -2    1    1    2    0  502  0.21288390570E+02  0.58430672585E+01  0.69689246058E+01  0.23149577063E+02  0.00000000000E+00 0.  1.
<scales pt_clust_5="13000.00000" pt_clust_6="13000.00000" pt_clust_7="13000.00000" pt_clust_8="13000.00000" pt_clust_9="22.07571"></scales>
<clustering>
<clus scale="   22.076">  2  9  1 -1</clus>
<clus scale="   87.561">  5  6 -1 -1</clus>
<clus scale="   89.003">  1  5  2 -1</clus>
<clus scale="   90.844">  7  8 -1 -1</clus>
<clus scale="   22.076">  2  5  1 -1</clus>
</clustering>
</event>
<event>
 9    1  0.1445593E-005  0.9373942E+02  0.7546771E-02  0.1296166E+00
         21   -1    0    0  501  502  0.00000000000E+00  0.00000000000E+00  0.11216989766E+03  0.11216989766E+03  0.00000000000E+00 0.  1.
          3   -1    0    0  502    0 -0.00000000000E+00 -0.00000000000E+00 -0.10278343505E+03  0.10278343505E+03  0.00000000000E+00 0. -1.
         23    2    1    2    0    0  0.24807427660E+01  0.90817987057E+01 -0.92914543052E+00  0.88198337863E+02  0.87689510992E+02 0.  0.
         23    2    1    2    0    0  0.89733624441E+01 -0.34746552828E+02  0.90165930419E+01  0.98620255281E+02  0.91415598420E+02 0.  0.
        -11    1    4    4    0    0  0.22338467462E+02 -0.62900255144E+02  0.25890426240E+01  0.66799344065E+02  0.00000000000E+00 0. -1.
         11    1    4    4    0    0 -0.13365105018E+02  0.28153702316E+02  0.64275504179E+01  0.31820911216E+02  0.00000000000E+00 0.  1.
        -11    1    3    3    0    0  0.18645694248E+02  0.26825956897E+02 -0.34119372993E+02  0.47237966625E+02  0.00000000000E+00 0. -1.
         11    1    3    3    0    0 -0.16164951482E+02 -0.17744158191E+02  0.33190227562E+02  0.40960371238E+02  0.00000000000E+00 0.  1.
          3    1    1    2  501    0 -0.11454105210E+02  0.25664754122E+02  0.12990149979E+01  0.28134739563E+02  0.00000000000E+00 0. -1.
<scales pt_clust_5="13000.00000" pt_clust_6="13000.00000" pt_clust_7="13000.00000" pt_clust_8="13000.00000" pt_clust_9="28.10474"></scales>
<clustering>
<clus scale="   28.105">  1  9  2 -1</clus>
<clus scale="   87.690">  7  8 -1 -1</clus>
<clus scale="   90.109">  2  7  1 -1</clus>
<clus scale="   91.416">  5  6 -1 -1</clus>
<clus scale="   28.105">  1  5  2 -1</clus>
</clustering>
</event>
<event>
 9    1  0.1445593E-005  0.9733241E+02  0.7546771E-02  0.1289786E+00
         21   -1    0    0  501  502  0.00000000000E+00  0.00000000000E+00  0.21498931499E+03  0.21498931499E+03  0.00000000000E+00 0.  1.
         -1   -1    0    0    0  501 -0.00000000000E+00 -0.00000000000E+00 -0.21763691650E+03  0.21763691650E+03  0.00000000000E+00 0.  1.
         23    2    1    2    0    0  0.48468466957E+00 -0.34871863238E+02 -0.18286804555E+03  0.20725126048E+03  0.91082825627E+02 0.  0.
         23    2    1    2    0    0 -0.37488600871E+02  0.26123874597E+02  0.11153618813E+03  0.14686800234E+03  0.83916844734E+02 0.  0.
        -11    1    4    4    0    0 -0.34934288558E+02 -0.14096792003E+02  0.12086799548E+02  0.39562795466E+02  0.00000000000E+00 0.  1.
         11    1    4    4    0    0 -0.25543123134E+01  0.40220666600E+02  0.99449388582E+02  0.10730520687E+03  0.00000000000E+00 0. -1.
        -11    1    3    3    0    0  0.26285970137E+02 -0.50712394014E+02 -0.69762786679E+02  0.90163992469E+02  0.00000000000E+00 0.  1.
         11    1    3    3    0    0 -0.25801285468E+02  0.15840530776E+02 -0.11310525887E+03  0.11708726801E+03  0.00000000000E+00 0. -1.
         -1    1    1    2    0  502  0.37003916202E+02  0.87479886415E+01  0.68684255913E+02  0.78506968671E+02  0.00000000000E+00 0.  1.
<scales pt_clust_5="13000.00000" pt_clust_6="13000.00000" pt_clust_7="13000.00000" pt_clust_8="13000.00000" pt_clust_9="38.02390"></scales>
<clustering>
<clus scale="   38.024">  1  9  2 -1</clus>
<clus scale="   83.917">  5  6 -1 -1</clus>
<clus scale="   90.662">  1  5  2 -1</clus>
<clus scale="   91.083">  7  8 -1 -1</clus>
<clus scale="   38.024">  1  5  2 -1</clus>
</clustering>
</event>
<event>
 9    1  0.1445593E-005  0.1122210E+03  0.7546771E-02  0.1256920E+00
         -3   -1    0    0    0  501 -0.00000000000E+00  0.00000000000E+00  0.12037770620E+03  0.12037770620E+03  0.00000000000E+00 0.  1.
         21   -1    0    0  501  502  0.00000000000E+00 -0.00000000000E+00 -0.16944777051E+03  0.16944777051E+03  0.00000000000E+00 0. -1.
         23    2    1    2    0    0  0.29497548867E+02  0.53923548048E+02  0.41954170515E+02  0.11889374750E+03  0.92723871506E+02 0.  0.
         23    2    1    2    0    0 -0.83840199510E+01 -0.71500009552E+02 -0.79918608386E+02  0.14129985379E+03  0.91630352828E+02 0.  0.
        -11    1    3    3    0    0 -0.14612842448E+02 -0.19210626023E+02  0.18246357067E+02  0.30257443098E+02  0.00000000000E+00 0. -1.
         11    1    3    3    0    0  0.44110391315E+02  0.73134174072E+02  0.23707813448E+02  0.88636304399E+02  0.00000000000E+00 0.  1.
        -13    1    4    4    0    0  0.84597404413E+01 -0.51870670909E+02  0.47483778472E+01  0.52770074863E+02  0.00000000000E+00 0.  1.
         13    1    4    4    0    0 -0.16843760392E+02 -0.19629338643E+02 -0.84666986233E+02  0.88529778931E+02  0.00000000000E+00 0. -1.
         -3    1    1    2    0  502 -0.21113528916E+02  0.17576461503E+02 -0.11105626433E+02  0.29631875417E+02  0.00000000000E+00 0.  1.
<scales pt_clust_5="13000.00000" pt_clust_6="13000.00000" pt_clust_7="13000.00000" pt_clust_8="13000.00000" pt_clust_9="27.47204"></scales>
<clustering>
<clus scale="   27.472">  2  9  1 -1</clus>
<clus scale="   91.630">  7  8 -1 -1</clus>
<clus scale="   92.724">  5  6 -1 -1</clus>
<clus scale="  111.319">  2  7  1 -1</clus>
<clus scale="   27.472">  2  5  1 -1</clus>
</clustering>
</event>
<event>
 9    1  0.1445593E-005  0.1412481E+03  0.7546771E-02  0.1211862E+00
         -1   -1    0    0    0  501 -0.00000000000E+00  0.00000000000E+00  0.86321521758E+02  0.86321521758E+02  0.00000000000E+00 0.  1.
         21   -1    0    0  501  502  0.00000000000E+00 -0.00000000000E+00 -0.35785978630E+03  0.35785978630E+03  0.00000000000E+00 0.  1.
         23    2    1    2    0    0 -0.40827152752E+02  0.78033062114E+02 -0.71936278347E+02  0.14538879058E+03  0.90592809306E+02 0.  0.
         23    2    1    2    0    0  0.69463489838E+02 -0.11555764121E+03 -0.10729005763E+03  0.19511211435E+03  0.91535981102E+02 0.  0.
        -13    1    3    3    0    0  0.26789064504E+02  0.94208061537E+01 -0.71012532230E+01  0.29271716091E+02  0.00000000000E+00 0.  1.
         13    1    3    3    0    0 -0.67616217256E+02  0.68612255961E+02 -0.64835025124E+02  0.11611707448E+03  0.00000000000E+00 0. -1.
        -13    1    4    4    0    0  0.46520618077E+02 -0.85799937247E+02 -0.12069314555E+03  0.15521801609E+03  0.00000000000E+00 0.  1.
         13    1    4    4    0    0  0.22942871761E+02 -0.29757703968E+02  0.13403087916E+02  0.39894098257E+02  0.00000000000E+00 0. -1.
         -1    1    1    2    0  502 -0.28636337085E+02  0.37524579100E+02 -0.92311928559E+02  0.10368040313E+03  0.00000000000E+00 0.  1.
<scales pt_clust_5="13000.00000" pt_clust_6="13000.00000" pt_clust_7="13000.00000" pt_clust_8="13000.00000" pt_clust_9="47.20311"></scales>
<clustering>
<clus scale="   47.203">  2  9  1 -1</clus>
<clus scale="   90.593">  5  6 -1 -1</clus>
<clus scale="   91.536">  7  8 -1 -1</clus>
<clus scale="  140.639">  1  5  2 -1</clus>
<clus scale="   47.203">  2  5  1 -1</clus>
</clustering>
</event>
<event>
 9    1  0.1445593E-005  0.9224938E+02  0.7546771E-02  0.1299179E+00
          1   -1    0    0  502    0 -0.00000000000E+00  0.00000000000E+00  0.19959436675E+03  0.19959436675E+03  0.00000000000E+00 0. -1.
         21   -1    0    0  501  502  0.00000000000E+00 -0.00000000000E+00 -0.67671407720E+02  0.67671407720E+02  0.00000000000E+00 0.  1.
         23    2    1    2    0    0 -0.67838272123E+01  0.33562933308E+02  0.78637811000E+02  0.12480514942E+03  0.90663825197E+02 0.  0.
         23    2    1    2    0    0 -0.77686266969E+01 -0.36011460044E-01  0.58159361071E+02  0.10558805590E+03  0.87783673940E+02 0.  0.
        -11    1    4    4    0    0 -0.36918209613E+02 -0.23592690538E+01  0.65691456454E+02  0.75391563205E+02  0.00000000000E+00 0. -1.
         11    1    4    4    0    0  0.29149582916E+02  0.23232575937E+01 -0.75320953835E+01  0.30196492692E+02  0.00000000000E+00 0.  1.
        -13    1    3    3    0    0 -0.49849925501E+01 -0.27676794716E+02  0.49573387411E+02  0.56994524788E+02  0.00000000000E+00 0. -1.
         13    1    3    3    0    0 -0.17988346622E+01  0.61239728023E+02  0.29064423589E+02  0.67810624633E+02  0.00000000000E+00 0.  1.
          1    1    1    2  501    0  0.14552453909E+02 -0.33526921848E+02 -0.48742130365E+01  0.36872569155E+02  0.00000000000E+00 0. -1.
<scales pt_clust_5="13000.00000" pt_clust_6="13000.00000" pt_clust_7="13000.00000" pt_clust_8="13000.00000" pt_clust_9="36.54899"></scales>
<clustering>
<clus scale="   36.549">  2  9  1 -1</clus>
<clus scale="   87.784">  5  6 -1 -1</clus>
<clus scale="   89.420">  2  5  1 -1</clus>
<clus scale="   90.664">  7  8 -1 -1</clus>
<clus scale="   36.549">  2  5  1 -1</clus>
</clustering>
</event>
<event>
 9    1  0.1445593E-005  0.1177087E+03  0.7546771E-02  0.1248023E+00
          1   -1    0    0  502    0 -0.00000000000E+00  0.00000000000E+00  0.11132183316E+04  0.11132183316E+04  0.00000000000E+00 0. -1.
         21   -1    0    0  501  502  0.00000000000E+00 -0.00000000000E+00 -0.21555407590E+02  0.21555407590E+02  0.00000000000E+00 0. -1.
         23    2    1    2    0    0  0.26784411952E+02  0.63458068531E+02  0.57622407233E+03  0.58715994376E+03  0.89321256368E+02 0.  0.
         23    2    1    2    0    0  0.32948959931E+01 -0.82282973707E+02  0.48587044374E+03  0.50142469966E+03  0.92602900728E+02 0.  0.
        -11    1    4    4    0    0  0.23225138411E+02  0.12710983210E+02  0.88782119882E+02  0.92645782198E+02  0.00000000000E+00 0.  1.
         11    1    4    4    0    0 -0.19930242418E+02 -0.94993956917E+02  0.39708832386E+03  0.40877891746E+03  0.00000000000E+00 0. -1.
        -11    1    3    3    0    0 -0.17123500087E+02 -0.15061984672E+02  0.12173199140E+03  0.12384972898E+03  0.00000000000E+00 0.  1.
         11    1    3    3    0    0  0.43907912039E+02  0.78520053203E+02  0.45449208093E+03  0.46331021478E+03  0.00000000000E+00 0. -1.
          1    1    1    2  501    0 -0.30079307945E+02  0.18824905176E+02  0.29568407972E+02  0.46189095805E+02  0.00000000000E+00 0. -1.
<scales pt_clust_5="13000.00000" pt_clust_6="13000.00000" pt_clust_7="13000.00000" pt_clust_8="13000.00000" pt_clust_9="35.48439"></scales>
<clustering>
<clus scale="   35.484">  2  9  1 -1</clus>
<clus scale="   89.321">  7  8 -1 -1</clus>
<clus scale="   92.603">  5  6 -1 -1</clus>
<clus scale="  115.145">  1  7  2 -1</clus>
<clus scale="   35.484">  2  5  1 -1</clus>
</clustering>
</event>
<event>
 9    1  0.1445593E-005  0.1085150E+03  0.7546771E-02  0.1263499E+00
         -3   -1    0    0    0  501 -0.00000000000E+00  0.00000000000E+00  0.22426836283E+03  0.22426836283E+03  0.00000000000E+00 0.  1.
         21   -1    0    0  501  502  0.00000000000E+00 -0.00000000000E+00 -0.18543504288E+03  0.18543504288E+03  0.00000000000E+00 0. -1.
         23    2    1    2    0    0  0.23331426188E+01  0.56807971931E+02  0.17217482416E+03  0.20301453859E+03  0.91313435893E+02 0.  0.
         23    2    1    2    0    0 -0.83334663037E+01 -0.77015258058E+02 -0.14051286157E+03  0.18442304885E+03  0.90924144456E+02 0.  0.
        -13    1    4    4    0    0  0.23920923468E+02 -0.71554974360E+02 -0.56476475366E+02  0.94243923969E+02  0.00000000000E+00 0. -1.
         13    1    4    4    0    0 -0.32254389771E+02 -0.54602836976E+01 -0.84036386205E+02  0.90179124879E+02  0.00000000000E+00 0.  1.
        -13    1    3    3    0    0 -0.35700137924E+02  0.23241055899E+01  0.93052561507E+02  0.99692931132E+02  0.00000000000E+00 0.  1.
         13    1    3    3    0    0  0.38033280543E+02  0.54483866341E+02  0.79122262657E+02  0.10332160746E+03  0.00000000000E+00 0. -1.
         -3    1    1    2    0  502  0.60003236849E+01  0.20207286126E+02  0.71713573512E+01  0.22265818269E+02  0.00000000000E+00 0.  1.
<scales pt_clust_5="13000.00000" pt_clust_6="13000.00000" pt_clust_7="13000.00000" pt_clust_8="13000.00000" pt_clust_9="21.07934"></scales>
<clustering>
<clus scale="   21.079">  2  9  1 -1</clus>
<clus scale="   90.924">  5  6 -1 -1</clus>
<clus scale="   91.313">  7  8 -1 -1</clus>
<clus scale="  108.188">  2  5  1 -1</clus>
<clus scale="   21.079">  2  5  1 -1</clus>
</clustering>
</event>
<event>
 9    1  0.1445593E-005  0.1040860E+03  0.7546771E-02  0.1274664E+00
         21   -1    0    0  501  502  0.00000000000E+00  0.00000000000E+00  0.35859077288E+02  0.35859077288E+02  0.00000000000E+00 0.  1.
          1   -1    0    0  502    0 -0.00000000000E+00 -0.00000000000E+00 -0.68091092861E+03  0.68091092861E+03  0.00000000000E+00 0. -1.
         23    2    1    2    0    0 -0.12674839285E+02  0.10520622879E+02 -0.24678698258E+03  0.26378961420E+03  0.91705020219E+02 0.  0.
         23    2    1    2    0    0 -0.21049042500E+02 -0.66739352356E+02 -0.35427547834E+03  0.37403159681E+03  0.97423393062E+02 0.  0.
        -11    1    3    3    0    0 -0.29073903178E+02 -0.24036177953E+02 -0.19917514809E+03  0.20271598189E+03  0.00000000000E+00 0. -1.
         11    1    3    3    0    0  0.16399063893E+02  0.34556800832E+02 -0.47611834486E+02  0.61073632309E+02  0.00000000000E+00 0.  1.
        -13    1    4    4    0    0  0.29175978473E+02 -0.52473003872E+02 -0.25374468516E+03  0.26075087555E+03  0.00000000000E+00 0.  1.
         13    1    4    4    0    0 -0.50225020973E+02 -0.14266348484E+02 -0.10053079318E+03  0.11328072126E+03  0.00000000000E+00 0. -1.
          1    1    1    2  501    0  0.33723881786E+02  0.56218729477E+02 -0.43989390410E+02  0.78948794894E+02  0.00000000000E+00 0. -1.
<scales pt_clust_5="13000.00000" pt_clust_6="13000.00000" pt_clust_7="13000.00000" pt_clust_8="13000.00000" pt_clust_9="65.55796"></scales>
<clustering>
<clus scale="   65.558">  1  9  2 -1</clus>
<clus scale="   91.705">  5  6 -1 -1</clus>
<clus scale="   97.423">  7  8 -1 -1</clus>
<clus scale="   98.754">  2  5  1 -1</clus>
<clus scale="   65.558">  1  5  2 -1</clus>
</clustering>
</event>
<event>
 9    1  0.1445593E-005  0.1152918E+03  0.7546771E-02  0.1264066E+00
         21   -1    0    0  501  502  0.00000000000E+00  0.00000000000E+00  0.12151881396E+03  0.12151881396E+03  0.00000000000E+00 0. -1.
         -3   -1    0    0    0  501 -0.00000000000E+00 -0.00000000000E+00 -0.12696069406E+03  0.12696069406E+03  0.00000000000E+00 0.  1.
         23    2    1    2    0    0 -0.48696802150E+02 -0.15502103644E+01 -0.38473363166E+02  0.12467633484E+03  0.10812126111E+03 0.  0.
         23    2    1    2    0    0  0.27210188142E+02 -0.21416451213E+02  0.17282398331E+02  0.88629663332E+02  0.79733789631E+02 0.  0.
        -11    1    3    3    0    0 -0.18753337820E+02 -0.34653005893E+02  0.25306311341E+02  0.46828707974E+02  0.00000000000E+00 0. -1.
         11    1    3    3    0    0 -0.29943464330E+02  0.33102795529E+02 -0.63779674507E+02  0.77847626862E+02  0.00000000000E+00 0.  1.
        -13    1    4    4    0    0 -0.24956813017E+02  0.61394825952E+01 -0.37958704286E+01  0.25979691969E+02  0.00000000000E+00 0.  1.
         13    1    4    4    0    0  0.52167001158E+02 -0.27555933808E+02  0.21078268759E+02  0.62649971363E+02  0.00000000000E+00 0. -1.
         -3    1    1    2    0  502  0.21486614009E+02  0.22966661578E+02  0.15749084734E+02  0.35173509855E+02  0.00000000000E+00 0.  1.
<scales pt_clust_5="13000.00000" pt_clust_6="13000.00000" pt_clust_7="13000.00000" pt_clust_8="13000.00000" pt_clust_9="31.45063"></scales>
<clustering>
<clus scale="   31.451">  1  9  2 -1</clus>
<clus scale="   79.734">  7  8 -1 -1</clus>
<clus scale="   89.216">  1  7  2 -1</clus>
<clus scale="  108.121">  5  6 -1 -1</clus>
<clus scale="   31.451">  1  5  2 -1</clus>
</clustering>
</event>
<event>
 9    1  0.1445593E-005  0.9621127E+02  0.7546771E-02  0.1291520E+00
          1   -1    0    0  502    0 -0.00000000000E+00  0.00000000000E+00  0.21055564108E+03  0.21055564108E+03  0.00000000000E+00 0. -1.
         21   -1    0    0  501  502  0.00000000000E+00 -0.00000000000E+00 -0.75019094992E+02  0.75019094992E+02  0.00000000000E+00 0. -1.
         23    2    1    2    0    0 -0.13001938387E+02 -0.35679626542E+02  0.89404649110E+02  0.13149031292E+03  0.88625193687E+02 0.  0.
         23    2    1    2    0    0 -0.94536565404E+01 -0.30593006651E+00  0.56842348756E+02  0.11033596255E+03  0.94093075219E+02 0.  0.
        -13    1    4    4    0    0 -0.28191961794E+01  0.21905378914E+02  0.76697450611E+02  0.79814111677E+02  0.00000000000E+00 0.  1.
         13    1    4    4    0    0 -0.66344603610E+01 -0.22211308981E+02 -0.19855101856E+02  0.30521850872E+02  0.00000000000E+00 0. -1.
        -13    1    3    3    0    0 -0.33707569546E+02  0.18413854219E+02  0.38419232766E+02  0.54325939645E+02  0.00000000000E+00 0.  1.
         13    1    3    3    0    0  0.20705631159E+02 -0.54093480761E+02  0.50985416344E+02  0.77164373271E+02  0.00000000000E+00 0. -1.
          1    1    1    2  501    0  0.22455594928E+02  0.35985556608E+02 -0.10710451781E+02  0.43748460605E+02  0.00000000000E+00 0. -1.
<scales pt_clust_5="13000.00000" pt_clust_6="13000.00000" pt_clust_7="13000.00000" pt_clust_8="13000.00000" pt_clust_9="42.41714"></scales>
<clustering>
<clus scale="   42.417">  2  9  1 -1</clus>
<clus scale="   88.625">  7  8 -1 -1</clus>
<clus scale="   90.871">  1  7  2 -1</clus>
<clus scale="   94.093">  5  6 -1 -1</clus>
<clus scale="   42.417">  2  5  1 -1</clus>
</clustering>
</event>
<event>
 9    1  0.1445593E-005  0.9448897E+02  0.7546771E-02  0.1296833E+00
         21   -1    0    0  501  502  0.00000000000E+00  0.00000000000E+00  0.34029719592E+03  0.34029719592E+03  0.00000000000E+00 0. -1.
          3   -1    0    0  502    0 -0.00000000000E+00 -0.00000000000E+00 -0.91705632951E+02  0.91705632951E+02  0.00000000000E+00 0. -1.
         23    2    1    2    0    0  0.23442104785E+02  0.54806284141E+02 -0.64379778502E-01  0.10180122901E+03  0.82524087541E+02 0.  0.
         23    2    1    2    0    0 -0.24555837403E+01  0.12877230746E+02  0.23838415393E+02  0.94480551041E+02  0.90479011452E+02 0.  0.
        -11    1    4    4    0    0  0.38834208254E+01  0.48130978418E+02 -0.49307355034E+01  0.48538481572E+02  0.00000000000E+00 0.  1.
         11    1    4    4    0    0 -0.63390045657E+01 -0.35253747671E+02  0.28769150896E+02  0.45942069468E+02  0.00000000000E+00 0. -1.
        -13    1    3    3    0    0  0.37960082932E+02  0.35035964739E+02  0.32501533019E+02  0.61031437554E+02  0.00000000000E+00 0.  1.
         13    1    3    3    0    0 -0.14517978147E+02  0.19770319402E+02 -0.32565912797E+02  0.40769791452E+02  0.00000000000E+00 0. -1.
          3    1    1    2  501    0 -0.20986521044E+02 -0.67683514887E+02  0.22481752736E+03  0.23572104883E+03  0.00000000000E+00 0. -1.
<scales pt_clust_5="13000.00000" pt_clust_6="13000.00000" pt_clust_7="13000.00000" pt_clust_8="13000.00000" pt_clust_9="70.86249"></scales>
<clustering>
<clus scale="   70.862">  1  9  2 -1</clus>
<clus scale="   82.524">  7  8 -1 -1</clus>
<clus scale="   86.902">  2  7  1 -1</clus>
<clus scale="   90.479">  5  6 -1 -1</clus>
<clus scale="   70.862">  1  5  2 -1</clus>
</clustering>
</event>
<event>
 9    1  0.1445593E-005  0.2720367E+03  0.7546771E-02  0.1140747E+00
          3   -1    0    0  502    0 -0.00000000000E+00  0.00000000000E+00  0.25318967168E+03  0.25318967168E+03  0.00000000000E+00 0. -1.
         21   -1    0    0  501  502  0.00000000000E+00 -0.00000000000E+00 -0.46939627039E+03  0.46939627039E+03  0.00000000000E+00 0.  1.
         23    2    1    2    0    0 -0.18054010584E+02 -0.31806479279E+02 -0.57613674078E+02  0.11413508582E+03  0.91487064403E+02 0.  0.
         23    2    1    2    0    0 -0.53637558935E+02  0.26089030524E+03 -0.22545645328E+03  0.35927258287E+03  0.85471851365E+02 0.  0.
        -11    1    4    4    0    0  0.68175237246E+01  0.16907716028E+03 -0.12525892361E+03  0.21053114426E+03  0.00000000000E+00 0. -1.
         11    1    4    4    0    0 -0.60455082660E+02  0.91813144960E+02 -0.10019752968E+03  0.14874143861E+03  0.00000000000E+00 0.  1.
        -11    1    3    3    0    0 -0.39467954638E+02  0.11231714219E+01 -0.63139165074E+02  0.74468349811E+02  0.00000000000E+00 0. -1.
         11    1    3    3    0    0  0.21413944054E+02 -0.32929650700E+02  0.55254909954E+01  0.39666736013E+02  0.00000000000E+00 0.  1.
          3    1    1    2  501    0  0.71691569519E+02 -0.22908382597E+03  0.66863528652E+02  0.24917827338E+03  0.00000000000E+00 0. -1.
<scales pt_clust_5="13000.00000" pt_clust_6="13000.00000" pt_clust_7="13000.00000" pt_clust_8="13000.00000" pt_clust_9="258.26067"></scales>
<clustering>
<clus scale="   85.472">  5  6 -1 -1</clus>
<clus scale="   91.487">  7  8 -1 -1</clus>
<clus scale="   98.527">  1  7  2 -1</clus>
<clus scale="  258.261">  2  9  1 -1</clus>
<clus scale="  258.261">  2  5  1 -1</clus>
</clustering>
</event>
<event>
 9    1  0.1445593E-005  0.1559747E+03  0.7546771E-02  0.1193364E+00
          2   -1    0    0  502    0 -0.00000000000E+00  0.00000000000E+00  0.65423772233E+03  0.65423772233E+03  0.00000000000E+00 0. -1.
         21   -1    0    0  501  502  0.00000000000E+00 -0.00000000000E+00 -0.54492256490E+02  0.54492256490E+02  0.00000000000E+00 0.  1.
         23    2    1    2    0    0  0.13353458238E+03  0.32386524490E+02  0.43511273695E+03  0.46527447334E+03  0.90977304974E+02 0.  0.
         23    2    1    2    0    0 -0.10218465404E+03 -0.34466066388E+02  0.15730672623E+03  0.21119387477E+03  0.90707405268E+02 0.  0.
        -11    1    3    3    0    0  0.96122314482E+02  0.49661647731E+02  0.20802900163E+03  0.23448207632E+03  0.00000000000E+00 0.  1.
         11    1    3    3    0    0  0.37412267899E+02 -0.17275123241E+02  0.22708373532E+03  0.23079239701E+03  0.00000000000E+00 0. -1.
        -11    1    4    4    0    0 -0.43601916990E+02 -0.45015794423E+02  0.13275535804E+03  0.14680440729E+03  0.00000000000E+00 0. -1.
         11    1    4    4    0    0 -0.58582737053E+02  0.10549728035E+02  0.24551368191E+02  0.64389467479E+02  0.00000000000E+00 0.  1.
          2    1    1    2  501    0 -0.31349928337E+02  0.20795418972E+01  0.73260026590E+01  0.32261630712E+02  0.00000000000E+00 0. -1.
<scales pt_clust_5="13000.00000" pt_clust_6="13000.00000" pt_clust_7="13000.00000" pt_clust_8="13000.00000" pt_clust_9="31.41882"></scales>
<clustering>
<clus scale="   31.419">  2  9  1 -1</clus>
<clus scale="   90.707">  7  8 -1 -1</clus>
<clus scale="   90.977">  5  6 -1 -1</clus>
<clus scale="  155.817">  2  7  1 -1</clus>
<clus scale="   31.419">  2  5  1 -1</clus>
</clustering>
</event>
<event>
 9    1  0.1445593E-005  0.1124476E+03  0.7546771E-02  0.1257191E+00
         21   -1    0    0  501  502  0.00000000000E+00  0.00000000000E+00  0.62163932255E+02  0.62163932255E+02  0.00000000000E+00 0.  1.
          1   -1    0    0  502    0 -0.00000000000E+00 -0.00000000000E+00 -0.32298283795E+03  0.32298283795E+03  0.00000000000E+00 0. -1.
         23    2    1    2    0    0  0.49945193621E+02  0.45800697594E+02 -0.16943659219E+03  0.20351679645E+03  0.90100507212E+02 0.  0.
         23    2    1    2    0    0 -0.30269909667E+02 -0.50082177085E+02 -0.10907305329E+03  0.15482679970E+03  0.93004919530E+02 0.  0.
        -13    1    3    3    0    0  0.65815970452E+02  0.10562396067E+02 -0.69177635730E+02  0.96066911382E+02  0.00000000000E+00 0. -1.
         13    1    3    3    0    0 -0.15870776831E+02  0.35238301526E+02 -0.10025895646E+03  0.10744988507E+03  0.00000000000E+00 0.  1.
        -13    1    4    4    0    0 -0.26230803573E+02 -0.21122459336E+02  0.76172843479E+01  0.34528775902E+02  0.00000000000E+00 0.  1.
         13    1    4    4    0    0 -0.40391060949E+01 -0.28959717749E+02 -0.11669033764E+03  0.12029802379E+03  0.00000000000E+00 0. -1.
          1    1    1    2  501    0 -0.19675283954E+02  0.42814794916E+01  0.17690739786E+02  0.26803174056E+02  0.00000000000E+00 0. -1.
<scales pt_clust_5="13000.00000" pt_clust_6="13000.00000" pt_clust_7="13000.00000" pt_clust_8="13000.00000" pt_clust_9="20.13574"></scales>
<clustering>
<clus scale="   20.136">  1  9  2 -1</clus>
<clus scale="   90.101">  5  6 -1 -1</clus>
<clus scale="   93.005">  7  8 -1 -1</clus>
<clus scale="  110.057">  2  5  1 -1</clus>
<clus scale="   20.136">  1  5  2 -1</clus>
</clustering>
</event>
<event>
 9    1  0.1445593E-005  0.9226990E+02  0.7546771E-02  0.1299094E+00
         21   -1    0    0  501  502  0.00000000000E+00  0.00000000000E+00  0.21669083921E+03  0.21669083921E+03  0.00000000000E+00 0. -1.
          2   -1    0    0  502    0 -0.00000000000E+00 -0.00000000000E+00 -0.11956374585E+03  0.11956374585E+03  0.00000000000E+00 0. -1.
         23    2    1    2    0    0 -0.53293986845E+01  0.12582264350E+02 -0.34561501478E+02  0.99047993953E+02  0.91811175002E+02 0.  0.
         23    2    1    2    0    0  0.12924886764E+02  0.91215558696E+01 -0.12423257769E+02  0.91271765546E+02  0.89027761811E+02 0.  0.
        -11    1    4    4    0    0  0.21108576561E+02 -0.37052219115E+02  0.44250638548E+00  0.42645454127E+02  0.00000000000E+00 0. -1.
         11    1    4    4    0    0 -0.81836897970E+01  0.46173774985E+02 -0.12865764154E+02  0.48626311420E+02  0.00000000000E+00 0.  1.
        -13    1    3    3    0    0  0.25915503831E+02  0.33898273729E+02 -0.42692707365E+02  0.60360364170E+02  0.00000000000E+00 0.  1.
         13    1    3    3    0    0 -0.31244902515E+02 -0.21316009380E+02  0.81312058864E+01  0.38687629783E+02  0.00000000000E+00 0. -1.
          2    1    1    2  501    0 -0.75954880793E+01 -0.21703820219E+02  0.14411185261E+03  0.14593482557E+03  0.00000000000E+00 0. -1.
<scales pt_clust_5="13000.00000" pt_clust_6="13000.00000" pt_clust_7="13000.00000" pt_clust_8="13000.00000" pt_clust_9="22.99450"></scales>
<clustering>
<clus scale="   22.995">  1  9  2 -1</clus>
<clus scale="   89.028">  5  6 -1 -1</clus>
<clus scale="   89.501">  1  5  2 -1</clus>
<clus scale="   91.811">  7  8 -1 -1</clus>
<clus scale="   22.995">  1  5  2 -1</clus>
</clustering>
</event>
<event>
 9    1  0.1445593E-005  0.1050826E+03  0.7546771E-02  0.1270659E+00
         -1   -1    0    0    0  501 -0.00000000000E+00  0.00000000000E+00  0.41352025788E+03  0.41352025788E+03  0.00000000000E+00 0.  1.
         21   -1    0    0  501  502  0.00000000000E+00 -0.00000000000E+00 -0.59888796310E+02  0.59888796310E+02  0.00000000000E+00 0.  1.
         23    2    1    2    0    0 -0.44748832952E+02  0.55408444444E+02  0.27958131458E+03  0.30266437083E+03  0.91473800306E+02 0.  0.
         23    2    1    2    0    0  0.60180203903E+01 -0.75776225748E+01  0.57161476240E+02  0.10692391431E+03  0.89842373921E+02 0.  0.
        -11    1    3    3    0    0 -0.42836413526E+02  0.79047925563E+02  0.24267393023E+03  0.25879368090E+03  0.00000000000E+00 0.  1.
         11    1    3    3    0    0 -0.19124194258E+01 -0.23639481119E+02  0.36907384342E+02  0.43870689926E+02  0.00000000000E+00 0. -1.
        -13    1    4    4    0    0 -0.11751339475E+02 -0.33806313227E+02 -0.59738633799E+01  0.36285642300E+02  0.00000000000E+00 0.  1.
         13    1    4    4    0    0  0.17769359865E+02  0.26228690652E+02  0.63135339620E+02  0.70638272008E+02  0.00000000000E+00 0. -1.
         -1    1    1    2    0  502  0.38730812562E+02 -0.47830821870E+02  0.16888670752E+02  0.63820769050E+02  0.00000000000E+00 0.  1.
<scales pt_clust_5="13000.00000" pt_clust_6="13000.00000" pt_clust_7="13000.00000" pt_clust_8="13000.00000" pt_clust_9="61.54562"></scales>
<clustering>
<clus scale="   61.546">  2  9  1 -1</clus>
<clus scale="   89.842">  7  8 -1 -1</clus>
<clus scale="   91.474">  5  6 -1 -1</clus>
<clus scale="  103.666">  2  7  1 -1</clus>
<clus scale="   61.546">  2  5  1 -1</clus>
</clustering>
</event>
<event>
 9    1  0.1445593E-005  0.2006745E+03  0.7546771E-02  0.1150070E+00
          1   -1    0    0  502    0 -0.00000000000E+00  0.00000000000E+00  0.48299399173E+03  0.48299399173E+03  0.00000000000E+00 0. -1.
         21   -1    0    0  501  502  0.00000000000E+00 -0.00000000000E+00 -0.10541706012E+03  0.10541706012E+03  0.00000000000E+00 0.  1.
         23    2    1    2    0    0 -0.16112638542E+03  0.42948954129E+02  0.18564359111E+03  0.26227866332E+03  0.80747938527E+02 0.  0.
         23    2    1    2    0    0  0.18475667660E+03 -0.75172924621E+02  0.13760382552E+03  0.25869003436E+03  0.90552321543E+02 0.  0.
        -11    1    3    3    0    0 -0.11049787847E+03  0.65299788574E+02  0.14479933189E+03  0.19349596908E+03  0.00000000000E+00 0. -1.
         11    1    3    3    0    0 -0.50628506956E+02 -0.22350834444E+02  0.40844259214E+02  0.68782694246E+02  0.00000000000E+00 0.  1.
        -11    1    4    4    0    0  0.26107426355E+02 -0.51737653795E+02  0.27389049879E+02  0.64097914041E+02  0.00000000000E+00 0. -1.
         11    1    4    4    0    0  0.15864925024E+03 -0.23435270825E+02  0.11021477564E+03  0.19459212032E+03  0.00000000000E+00 0.  1.
          1    1    1    2  501    0 -0.23630291176E+02  0.32223970491E+02  0.54329514998E+02  0.67442354164E+02  0.00000000000E+00 0. -1.
<scales pt_clust_5="13000.00000" pt_clust_6="13000.00000" pt_clust_7="13000.00000" pt_clust_8="13000.00000" pt_clust_9="39.95969"></scales>
<clustering>
<clus scale="   39.960">  2  9  1 -1</clus>
<clus scale="   80.748">  5  6 -1 -1</clus>
<clus scale="   90.552">  7  8 -1 -1</clus>
<clus scale="  196.445">  1  5  2 -1</clus>
<clus scale="   39.960">  2  5  1 -1</clus>
</clustering>
</event>
<event>
 9    1  0.1445593E-005  0.9914669E+02  0.7546771E-02  0.1282570E+00
         21   -1    0    0  501  502  0.00000000000E+00  0.00000000000E+00  0.71764161421E+02  0.71764161421E+02  0.00000000000E+00 0. -1.
         -3   -1    0    0    0  501 -0.00000000000E+00 -0.00000000000E+00 -0.24188147501E+03  0.24188147501E+03  0.00000000000E+00 0.  1.
         23    2    1    2    0    0  0.21358809085E+02  0.23737125933E+02 -0.70702006971E+02  0.12027590188E+03  0.91912289225E+02 0.  0.
         23    2    1    2    0    0 -0.51257590824E+02  0.24733260947E+02 -0.65728578672E+02  0.12720243754E+03  0.92850090187E+02 0.  0.
        -11    1    4    4    0    0 -0.34454008070E+02 -0.18716041386E+02  0.79735300240E+01  0.40011823981E+02  0.00000000000E+00 0. -1.
         11    1    4    4    0    0 -0.16803582755E+02  0.43449302333E+02 -0.73702108696E+02  0.87190613560E+02  0.00000000000E+00 0.  1.
        -13    1    3    3    0    0  0.57673625759E+02  0.15690107323E+02 -0.38669254836E+02  0.71188045665E+02  0.00000000000E+00 0.  1.
         13    1    3    3    0    0 -0.36314816674E+02  0.80470186106E+01 -0.32032752134E+02  0.49087856216E+02  0.00000000000E+00 0. -1.
         -3    1    1    2    0  502  0.29898781740E+02 -0.48470386880E+02 -0.33686727947E+02  0.66167297010E+02  0.00000000000E+00 0.  1.
<scales pt_clust_5="13000.00000" pt_clust_6="13000.00000" pt_clust_7="13000.00000" pt_clust_8="13000.00000" pt_clust_9="56.95011"></scales>
<clustering>
<clus scale="   56.950">  1  9  2 -1</clus>
<clus scale="   91.912">  7  8 -1 -1</clus>
<clus scale="   92.850">  5  6 -1 -1</clus>
<clus scale="   98.269">  2  7  1 -1</clus>
<clus scale="   56.950">  1  5  2 -1</clus>
</clustering>
</event>
<event>
 9    1  0.1445593E-005  0.9674755E+02  0.7546771E-02  0.1287422E+00
          1   -1    0    0  502    0 -0.00000000000E+00  0.00000000000E+00  0.65555382556E+03  0.65555382556E+03  0.00000000000E+00 0. -1.
         21   -1    0    0  501  502  0.00000000000E+00 -0.00000000000E+00 -0.29770109966E+02  0.29770109966E+02  0.00000000000E+00 0. -1.
         23    2    1    2    0    0 -0.65912329767E+01  0.44327292603E+00  0.19913898440E+03  0.21889580625E+03  0.90638832978E+02 0.  0.
         23    2    1    2    0    0 -0.58739233979E+01 -0.71615587597E+02  0.27673578710E+03  0.30001427764E+03  0.90898710434E+02 0.  0.
        -11    1    3    3    0    0  0.15317856952E+02  0.40191808596E+02  0.12242747412E+03  0.12976326383E+03  0.00000000000E+00 0. -1.
         11    1    3    3    0    0 -0.21909089929E+02 -0.39748535670E+02  0.76711510273E+02  0.89132542417E+02  0.00000000000E+00 0.  1.
        -11    1    4    4    0    0  0.36542864325E+02 -0.48494601517E+02  0.20279801337E+03  0.21169350849E+03  0.00000000000E+00 0. -1.
         11    1    4    4    0    0 -0.42416787722E+02 -0.23120986080E+02  0.73937773729E+02  0.88320769143E+02  0.00000000000E+00 0.  1.
          1    1    1    2  501    0  0.12465156375E+02  0.71172314671E+02  0.14990894409E+03  0.16641385164E+03  0.00000000000E+00 0. -1.
<scales pt_clust_5="13000.00000" pt_clust_6="13000.00000" pt_clust_7="13000.00000" pt_clust_8="13000.00000" pt_clust_9="72.25565"></scales>
<clustering>
<clus scale="   72.256">  2  9  1 -1</clus>
<clus scale="   90.639">  5  6 -1 -1</clus>
<clus scale="   90.899">  7  8 -1 -1</clus>
<clus scale="   96.503">  1  5  2 -1</clus>
<clus scale="   72.256">  2  5  1 -1</clus>
</clustering>
</event>
<event>
 9    1  0.1445593E-005  0.1028462E+03  0.7546771E-02  0.1274508E+00
          1   -1    0    0  502    0 -0.00000000000E+00  0.00000000000E+00  0.59622067394E+03  0.59622067394E+03  0.00000000000E+00 0. -1.
         21   -1    0    0  501  502  0.00000000000E+00 -0.00000000000E+00 -0.60698516999E+02  0.60698516999E+02  0.00000000000E+00 0. -1.
         23    2    1    2    0    0 -0.54040614733E+01  0.60879822826E+02  0.35896665099E+03  0.37609457314E+03  0.94098430964E+02 0.  0.
         23    2    1    2    0    0  0.10698381116E+02 -0.14713208787E+02  0.20497638845E+03  0.22635322500E+03  0.94284297581E+02 0.  0.
        -11    1    3    3    0    0 -0.35421230873E+02  0.61463092320E+02  0.31477211196E+03  0.32266679064E+03  0.00000000000E+00 0. -1.
         11    1    3    3    0    0  0.30017169400E+02 -0.58326949402E+00  0.44194539029E+02  0.53427782493E+02  0.00000000000E+00 0.  1.
        -11    1    4    4    0    0  0.39974278428E+02 -0.40036371110E+02  0.10764506095E+03  0.12160720824E+03  0.00000000000E+00 0.  1.
         11    1    4    4    0    0 -0.29275897312E+02  0.25323162323E+02  0.97331327503E+02  0.10474601676E+03  0.00000000000E+00 0. -1.
          1    1    1    2  501    0 -0.52943196430E+01 -0.46166614039E+02 -0.28420882505E+02  0.54471392810E+02  0.00000000000E+00 0. -1.
<scales pt_clust_5="13000.00000" pt_clust_6="13000.00000" pt_clust_7="13000.00000" pt_clust_8="13000.00000" pt_clust_9="46.46919"></scales>
<clustering>
<clus scale="   46.469">  2  9  1 -1</clus>
<clus scale="   94.098">  5  6 -1 -1</clus>
<clus scale="   94.284">  7  8 -1 -1</clus>
<clus scale="  102.676">  1  5  2 -1</clus>
<clus scale="   46.469">  2  5  1 -1</clus>
</clustering>
</event>
<event>
 9    1  0.1445593E-005  0.9715752E+02  0.7546771E-02  0.1289036E+00
          1   -1    0    0  502    0 -0.00000000000E+00  0.00000000000E+00  0.83990194669E+02  0.83990194669E+02  0.00000000000E+00 0. -1.
         21   -1    0    0  501  502  0.00000000000E+00 -0.00000000000E+00 -0.72682495388E+03  0.72682495388E+03  0.00000000000E+00 0.  1.
         23    2    1    2    0    0 -0.22880200252E+02  0.23815478620E+02  0.39773662740E+02  0.99289117172E+02  0.84768531634E+02 0.  0.
         23    2    1    2    0    0  0.23958611846E+02 -0.78062746351E+02 -0.27895791193E+03  0.30424521514E+03  0.89887857145E+02 0.  0.
        -13    1    4    4    0    0  0.22110831644E+02 -0.17344501608E+01 -0.94097444860E+01  0.24092332486E+02  0.00000000000E+00 0. -1.
         13    1    4    4    0    0  0.18477802024E+01 -0.76328296190E+02 -0.26954816744E+03  0.28015288266E+03  0.00000000000E+00 0.  1.
        -13    1    3    3    0    0 -0.36689288849E+02  0.49481160000E+01 -0.14836926627E+02  0.39883858388E+02  0.00000000000E+00 0.  1.
         13    1    3    3    0    0  0.13809088597E+02  0.18867362620E+02  0.54610589367E+02  0.59405258784E+02  0.00000000000E+00 0. -1.
          1    1    1    2  501    0 -0.10784115935E+01  0.54247267731E+02 -0.40365051003E+03  0.40728081623E+03  0.00000000000E+00 0. -1.
<scales pt_clust_5="13000.00000" pt_clust_6="13000.00000" pt_clust_7="13000.00000" pt_clust_8="13000.00000" pt_clust_9="54.25799"></scales>
<clustering>
<clus scale="   54.258">  2  9  1 -1</clus>
<clus scale="   84.769">  7  8 -1 -1</clus>
<clus scale="   89.888">  5  6 -1 -1</clus>
<clus scale="   92.442">  1  7  2 -1</clus>
<clus scale="   54.258">  2  5  1 -1</clus>
</clustering>
</event>
<event>
 9    1  0.1445593E-005  0.1138455E+03  0.7546771E-02  0.1254702E+00
          2   -1    0    0  502    0 -0.00000000000E+00  0.00000000000E+00  0.46151100700E+03  0.46151100700E+03  0.00000000000E+00 0. -1.
         21   -1    0    0  501  502  0.00000000000E+00 -0.00000000000E+00 -0.35941654081E+02  0.35941654081E+02  0.00000000000E+00 0.  1.
         23    2    1    2    0    0  0.50187970003E+02 -0.25316441353E+02  0.19625803363E+03  0.22258200960E+03  0.88689236656E+02 0.  0.
         23    2    1    2    0    0 -0.73626761149E+02  0.39500555625E+02  0.18434557274E+03  0.22221626523E+03  0.91736494882E+02 0.  0.
        -13    1    3    3    0    0  0.28418405118E+02  0.29783772183E+02  0.49909630916E+02  0.64696600321E+02  0.00000000000E+00 0.  1.
         13    1    3    3    0    0  0.21769564885E+02 -0.55100213537E+02  0.14634840272E+03  0.15788540928E+03  0.00000000000E+00 0. -1.
        -13    1    4    4    0    0  0.21679248864E+02  0.24021801928E+01  0.32378887795E+02  0.39040397998E+02  0.00000000000E+00 0.  1.
         13    1    4    4    0    0 -0.95306010013E+02  0.37098375432E+02  0.15196668495E+03  0.18317586724E+03  0.00000000000E+00 0. -1.
          2    1    1    2  501    0  0.23438791146E+02 -0.14184114272E+02  0.44965746542E+02  0.52654386239E+02  0.00000000000E+00 0. -1.
<scales pt_clust_5="13000.00000" pt_clust_6="13000.00000" pt_clust_7="13000.00000" pt_clust_8="13000.00000" pt_clust_9="27.39646"></scales>
<clustering>
<clus scale="   27.396">  2  9  1 -1</clus>
<clus scale="   88.689">  5  6 -1 -1</clus>
<clus scale="   91.736">  7  8 -1 -1</clus>
<clus scale="  111.405">  1  5  2 -1</clus>
<clus scale="   27.396">  2  5  1 -1</clus>
</clustering>
</event>
<event>
 9    1  0.1445593E-005  0.9623270E+02  0.7546771E-02  0.1288804E+00
         21   -1    0    0  501  502  0.00000000000E+00  0.00000000000E+00  0.13320759124E+03  0.13320759124E+03  0.00000000000E+00 0. -1.
          1   -1    0    0  502    0 -0.00000000000E+00 -0.00000000000E+00 -0.26554682047E+03  0.26554682047E+03  0.00000000000E+00 0. -1.
         23    2    1    2    0    0  0.19083943912E+02  0.16597702278E+02 -0.20533853766E+03  0.22639040796E+03  0.91918557058E+02 0.  0.
         23    2    1    2    0    0 -0.21647962534E+02 -0.43404514714E+02  0.99136244987E+01  0.10377112582E+03  0.91200769868E+02 0.  0.
        -11    1    4    4    0    0  0.24156945236E+02  0.78041272963E-01 -0.22297073578E+02  0.32874360583E+02  0.00000000000E+00 0. -1.
         11    1    4    4    0    0 -0.45804907770E+02 -0.43482555987E+02  0.32210698077E+02  0.70896765241E+02  0.00000000000E+00 0.  1.
        -11    1    3    3    0    0  0.69003668146E+01 -0.37573264166E+02 -0.63965539928E+02  0.74504735021E+02  0.00000000000E+00 0.  1.
         11    1    3    3    0    0  0.12183577097E+02  0.54170966444E+02 -0.14137299773E+03  0.15188567294E+03  0.00000000000E+00 0. -1.
          1    1    1    2  501    0  0.25640186220E+01  0.26806812436E+02  0.63085683933E+02  0.68592877923E+02  0.00000000000E+00 0. -1.
<scales pt_clust_5="13000.00000" pt_clust_6="13000.00000" pt_clust_7="13000.00000" pt_clust_8="13000.00000" pt_clust_9="26.92915"></scales>
<clustering>
<clus scale="   26.929">  1  9  2 -1</clus>
<clus scale="   91.201">  5  6 -1 -1</clus>
<clus scale="   91.919">  7  8 -1 -1</clus>
<clus scale="   95.547">  1  5  2 -1</clus>
<clus scale="   26.929">  1  5  2 -1</clus>
</clustering>
</event>
<event>
 9    1  0.1445593E-005  0.9654847E+02  0.7546771E-02  0.1290887E+00
         21   -1    0    0  501  502  0.00000000000E+00  0.00000000000E+00  0.82292252178E+02  0.82292252178E+02  0.00000000000E+00 0. -1.
          3   -1    0    0  502    0 -0.00000000000E+00 -0.00000000000E+00 -0.16828547640E+03  0.16828547640E+03  0.00000000000E+00 0. -1.
         23    2    1    2    0    0  0.20967019725E+01 -0.82457747622E+01 -0.59247911459E+02  0.10866969217E+03  0.90699492959E+02 0.  0.
         23    2    1    2    0    0  0.23546115072E+02 -0.19458081215E+02 -0.13492005065E+02  0.10189918905E+03  0.96272395155E+02 0.  0.
        -11    1    3    3    0    0 -0.26957970275E+02 -0.32977094974E+02 -0.57803065971E+01  0.42984100533E+02  0.00000000000E+00 0. -1.
         11    1    3    3    0    0  0.29054672247E+02  0.24731320212E+02 -0.53467604862E+02  0.65685591635E+02  0.00000000000E+00 0.  1.
        -13    1    4    4    0    0 -0.37078644730E+02 -0.69482554945E+01  0.29845103420E+01  0.37841927163E+02  0.00000000000E+00 0. -1.
         13    1    4    4    0    0  0.60624759802E+02 -0.12509825720E+02 -0.16476515407E+02  0.64057261888E+02  0.00000000000E+00 0.  1.
          3    1    1    2  501    0 -0.25642817045E+02  0.27703855977E+02 -0.13253307697E+02  0.40008847358E+02  0.00000000000E+00 0. -1.
<scales pt_clust_5="13000.00000" pt_clust_6="13000.00000" pt_clust_7="13000.00000" pt_clust_8="13000.00000" pt_clust_9="37.74994"></scales>
<clustering>
<clus scale="   37.750">  1  9  2 -1</clus>
<clus scale="   90.699">  5  6 -1 -1</clus>
<clus scale="   90.992">  2  5  1 -1</clus>
<clus scale="   96.272">  7  8 -1 -1</clus>
<clus scale="   37.750">  1  5  2 -1</clus>
</clustering>
</event>
<event>
 9    1  0.1445593E-005  0.9388589E+02  0.7546771E-02  0.1293728E+00
         21   -1    0    0  501  502  0.00000000000E+00  0.00000000000E+00  0.24992455519E+03  0.24992455519E+03  0.00000000000E+00 0. -1.
         -2   -1    0    0    0  501 -0.00000000000E+00 -0.00000000000E+00 -0.78599059463E+02  0.78599059463E+02  0.00000000000E+00 0.  1.
         23    2    1    2    0    0 -0.16932746125E+02  0.25199066014E+02 -0.18191773499E+02  0.97828836561E+02  0.91202137149E+02 0.  0.
         23    2    1    2    0    0 -0.21854449329E+01  0.11988257017E+01  0.99828971289E+02  0.13526760846E+03  0.91243021860E+02 0.  0.
        -11    1    3    3    0    0 -0.97218422469E+01 -0.33038360559E+02 -0.18609116637E+02  0.39145200308E+02  0.00000000000E+00 0.  1.
         11    1    3    3    0    0 -0.72109038786E+01  0.58237426573E+02  0.41734313778E+00  0.58683636253E+02  0.00000000000E+00 0. -1.
        -11    1    4    4    0    0  0.37523350844E+02  0.32299367050E+01  0.84753691607E+02  0.92744932965E+02  0.00000000000E+00 0. -1.
         11    1    4    4    0    0 -0.39708795777E+02 -0.20311110033E+01  0.15075279682E+02  0.42522675497E+02  0.00000000000E+00 0.  1.
         -2    1    1    2    0  502  0.19118191058E+02 -0.26397891715E+02  0.89688297940E+02  0.95427169631E+02  0.00000000000E+00 0.  1.
<scales pt_clust_5="13000.00000" pt_clust_6="13000.00000" pt_clust_7="13000.00000" pt_clust_8="13000.00000" pt_clust_9="32.59377"></scales>
<clustering>
<clus scale="   32.594">  1  9  2 -1</clus>
<clus scale="   91.202">  5  6 -1 -1</clus>
<clus scale="   91.243">  7  8 -1 -1</clus>
<clus scale="   93.846">  2  5  1 -1</clus>
<clus scale="   32.594">  1  5  2 -1</clus>
</clustering>
</event>
<event>
 9    1  0.1445593E-005  0.1657788E+03  0.7546771E-02  0.1182545E+00
         21   -1    0    0  501  502  0.00000000000E+00  0.00000000000E+00  0.19146817249E+03  0.19146817249E+03  0.00000000000E+00 0. -1.
          3   -1    0    0  502    0 -0.00000000000E+00 -0.00000000000E+00 -0.24840424616E+03  0.24840424616E+03  0.00000000000E+00 0. -1.
         23    2    1    2    0    0 -0.13578050857E+03 -0.66024204621E+02 -0.13224505509E+03  0.22003012398E+03  0.90160738446E+02 0.  0.
         23    2    1    2    0    0  0.76478962818E+02  0.80414523431E+02  0.65104275204E+02  0.15797234532E+03  0.91657885120E+02 0.  0.
        -11    1    4    4    0    0  0.50500901904E+02 -0.57993677813E+00  0.50958164152E+02  0.71745466153E+02  0.00000000000E+00 0.  1.
         11    1    4    4    0    0  0.25978060915E+02  0.80994460209E+02  0.14146111051E+02  0.86226879170E+02  0.00000000000E+00 0. -1.
        -13    1    3    3    0    0  0.88538627070E+01 -0.20144415889E+02 -0.29405595674E+02  0.36727066766E+02  0.00000000000E+00 0.  1.
         13    1    3    3    0    0 -0.14463437128E+03 -0.45879788732E+02 -0.10283945942E+03  0.18330305721E+03  0.00000000000E+00 0. -1.
          3    1    1    2  501    0  0.59301545753E+02 -0.14390318811E+02  0.10204706221E+02  0.61869949355E+02  0.00000000000E+00 0. -1.
<scales pt_clust_5="13000.00000" pt_clust_6="13000.00000" pt_clust_7="13000.00000" pt_clust_8="13000.00000" pt_clust_9="61.02257"></scales>
<clustering>
<clus scale="   61.023">  1  9  2 -1</clus>
<clus scale="   90.161">  7  8 -1 -1</clus>
<clus scale="   91.658">  5  6 -1 -1</clus>
<clus scale="  164.956">  2  7  1 -1</clus>
<clus scale="   61.023">  1  5  2 -1</clus>
</clustering>
</event>
<event>
 9    1  0.1445593E-005  0.9782307E+02  0.7546771E-02  0.1285131E+00
          3   -1    0    0  502    0 -0.00000000000E+00  0.00000000000E+00  0.75177459258E+03  0.75177459258E+03  0.00000000000E+00 0. -1.
         21   -1    0    0  501  502  0.00000000000E+00 -0.00000000000E+00 -0.17642734925E+02  0.17642734925E+02  0.00000000000E+00 0.  1.
         23    2    1    2    0    0 -0.34817017398E+02  0.17747030882E+02  0.37749681133E+03  0.39013484947E+03  0.90411152003E+02 0.  0.
         23    2    1    2    0    0  0.39325075103E+02  0.80919611274E+01  0.31508476859E+03  0.33014591657E+03  0.90033179785E+02 0.  0.
        -11    1    4    4    0    0  0.64844072980E+02  0.12205273013E+02  0.27211676877E+03  0.28000224702E+03  0.00000000000E+00 0. -1.
         11    1    4    4    0    0 -0.25518997877E+02 -0.41133118857E+01  0.42967999825E+02  0.50143669553E+02  0.00000000000E+00 0.  1.
        -13    1    3    3    0    0  0.26450147345E+02 -0.92063000966E+01  0.16455037837E+03  0.16691672558E+03  0.00000000000E+00 0. -1.
         13    1    3    3    0    0 -0.61267164743E+02  0.26953330979E+02  0.21294643296E+03  0.22321812390E+03  0.00000000000E+00 0.  1.
          3    1    1    2  501    0 -0.45080577052E+01 -0.25838992010E+02  0.41550277739E+02  0.49136561465E+02  0.00000000000E+00 0. -1.
<scales pt_clust_5="13000.00000" pt_clust_6="13000.00000" pt_clust_7="13000.00000" pt_clust_8="13000.00000" pt_clust_9="26.22930"></scales>
<clustering>
<clus scale="   26.229">  2  9  1 -1</clus>
<clus scale="   90.033">  5  6 -1 -1</clus>
<clus scale="   90.411">  7  8 -1 -1</clus>
<clus scale="   97.474">  2  5  1 -1</clus>
<clus scale="   26.229">  2  5  1 -1</clus>
</clustering>
</event>
<event>
 9    1  0.1445593E-005  0.1206348E+03  0.7546771E-02  0.1255568E+00
          2   -1    0    0  502    0 -0.00000000000E+00  0.00000000000E+00  0.34259149463E+03  0.34259149463E+03  0.00000000000E+00 0. -1.
         21   -1    0    0  501  502  0.00000000000E+00 -0.00000000000E+00 -0.27218731820E+03  0.27218731820E+03  0.00000000000E+00 0. -1.
         23    2    1    2    0    0 -0.25317098678E+02 -0.55193178482E+02  0.18894773085E+03  0.21501046308E+03  0.82710409290E+02 0.  0.
         23    2    1    2    0    0  0.30091765482E+02 -0.20944721131E+02  0.10781176881E+03  0.16090330510E+03  0.11367629659E+03 0.  0.
        -11    1    4    4    0    0 -0.34780508515E+02 -0.42248029364E+01  0.81891069538E+02  0.89071207484E+02  0.00000000000E+00 0. -1.
         11    1    4    4    0    0  0.64872273998E+02 -0.16719918194E+02  0.25920699269E+02  0.71832097621E+02  0.00000000000E+00 0.  1.
        -13    1    3    3    0    0  0.15961930061E+02 -0.17609158462E+02  0.13602683239E+03  0.13808752587E+03  0.00000000000E+00 0. -1.
         13    1    3    3    0    0 -0.41279028739E+02 -0.37584020020E+02  0.52920898465E+02  0.76922937209E+02  0.00000000000E+00 0.  1.
          2    1    1    2  501    0 -0.47746668044E+01  0.76137899613E+02 -0.22635532323E+03  0.23886504465E+03  0.00000000000E+00 0. -1.
<scales pt_clust_5="13000.00000" pt_clust_6="13000.00000" pt_clust_7="13000.00000" pt_clust_8="13000.00000" pt_clust_9="76.28746"></scales>
<clustering>
<clus scale="   76.287">  2  9  1 -1</clus>
<clus scale="   82.710">  7  8 -1 -1</clus>
<clus scale="   92.041">  1  7  2 -1</clus>
<clus scale="  113.676">  5  6 -1 -1</clus>
<clus scale="   76.287">  2  5  1 -1</clus>
</clustering>
</event>
<event>
 9    1  0.1445593E-005  0.1687375E+03  0.7546771E-02  0.1180408E+00
         21   -1    0    0  501  502  0.00000000000E+00  0.00000000000E+00  0.39857497201E+03  0.39857497201E+03  0.00000000000E+00 0. -1.
         -3   -1    0    0    0  501 -0.00000000000E+00 -0.00000000000E+00 -0.16400434697E+03  0.16400434697E+03  0.00000000000E+00 0.  1.
         23    2    1    2    0    0 -0.12797666069E+03 -0.87226392536E+02 -0.56584901584E+02  0.19142774238E+03  0.97243304282E+02 0.  0.
         23    2    1    2    0    0  0.86891894299E+02  0.59811752430E+02  0.91734405135E+02  0.16570497960E+03  0.88967927675E+02 0.  0.
        -11    1    3    3    0    0 -0.76359541592E+02 -0.10350014546E+03 -0.43130058168E+02  0.13565862162E+03  0.00000000000E+00 0.  1.
         11    1    3    3    0    0 -0.51617119101E+02  0.16273752926E+02 -0.13454843417E+02  0.55769120756E+02  0.00000000000E+00 0. -1.
        -13    1    4    4    0    0  0.98007780114E+02  0.36411822730E+02  0.48388556204E+02  0.11520763069E+03  0.00000000000E+00 0.  1.
         13    1    4    4    0    0 -0.11115885815E+02  0.23399929699E+02  0.43345848931E+02  0.50497348910E+02  0.00000000000E+00 0. -1.
         -3    1    1    2    0  502  0.41084766394E+02  0.27414640107E+02  0.19942112149E+03  0.20544659700E+03  0.00000000000E+00 0.  1.
<scales pt_clust_5="13000.00000" pt_clust_6="13000.00000" pt_clust_7="13000.00000" pt_clust_8="13000.00000" pt_clust_9="49.39150"></scales>
<clustering>
<clus scale="   49.392">  1  9  2 -1</clus>
<clus scale="   88.968">  7  8 -1 -1</clus>
<clus scale="   97.243">  5  6 -1 -1</clus>
<clus scale="  164.108">  1  7  2 -1</clus>
<clus scale="   49.392">  1  5  2 -1</clus>
</clustering>
</event>
<event>
 9    1  0.1445593E-005  0.1120387E+03  0.7546771E-02  0.1256946E+00
         -1   -1    0    0    0  501 -0.00000000000E+00  0.00000000000E+00  0.49049481207E+03  0.49049481207E+03  0.00000000000E+00 0.  1.
         21   -1    0    0  501  502  0.00000000000E+00 -0.00000000000E+00 -0.14747956314E+03  0.14747956314E+03  0.00000000000E+00 0.  1.
         23    2    1    2    0    0  0.33469654402E+01 -0.77125768306E+02  0.33932594353E+03  0.35978543116E+03  0.91344809421E+02 0.  0.
         23    2    1    2    0    0 -0.18807591183E+02  0.40757353915E+02  0.11892582708E+03  0.15636469176E+03  0.91058646470E+02 0.  0.
        -11    1    4    4    0    0  0.10198326421E+02  0.40090930422E+02  0.85536321796E+01  0.42242788584E+02  0.00000000000E+00 0. -1.
         11    1    4    4    0    0 -0.29005917604E+02  0.66642349238E+00  0.11037219490E+03  0.11412190317E+03  0.00000000000E+00 0.  1.
        -11    1    3    3    0    0  0.19111811351E+02 -0.91913452251E+02  0.23144004093E+03  0.24975555366E+03  0.00000000000E+00 0.  1.
         11    1    3    3    0    0 -0.15764845910E+02  0.14787683946E+02  0.10788590260E+03  0.11002987751E+03  0.00000000000E+00 0. -1.
         -1    1    1    2    0  502  0.15460625743E+02  0.36368414391E+02 -0.11523652169E+03  0.12182425228E+03  0.00000000000E+00 0.  1.
<scales pt_clust_5="13000.00000" pt_clust_6="13000.00000" pt_clust_7="13000.00000" pt_clust_8="13000.00000" pt_clust_9="39.51826"></scales>
<clustering>
<clus scale="   39.518">  2  9  1 -1</clus>
<clus scale="   91.059">  5  6 -1 -1</clus>
<clus scale="   91.345">  7  8 -1 -1</clus>
<clus scale="  111.806">  2  5  1 -1</clus>
<clus scale="   39.518">  2  5  1 -1</clus>
</clustering>
</event>
<event>
 9    1  0.1445593E-005  0.1117107E+03  0.7546771E-02  0.1257808E+00
         21   -1    0    0  501  502  0.00000000000E+00  0.00000000000E+00  0.12072283809E+03  0.12072283809E+03  0.00000000000E+00 0. -1.
          3   -1    0    0  502    0 -0.00000000000E+00 -0.00000000000E+00 -0.35871835325E+03  0.35871835325E+03  0.00000000000E+00 0. -1.
         23    2    1    2    0    0  0.47995475241E+01 -0.57413876532E+02 -0.24413796409E+03  0.26699463133E+03  0.91451619872E+02 0.  0.
         23    2    1    2    0    0  0.42894417801E+02  0.98983491425E+02 -0.23249503276E+02  0.14268529521E+03  0.90448280329E+02 0.  0.
        -11    1    4    4    0    0  0.24026668543E+02  0.10698183246E+03 -0.39485897807E+02  0.11653981896E+03  0.00000000000E+00 0. -1.
         11    1    4    4    0    0  0.18867749259E+02 -0.79983410315E+01  0.16236394531E+02  0.26145476257E+02  0.00000000000E+00 0.  1.
        -13    1    3    3    0    0  0.45183754373E+02 -0.28331414138E+02 -0.16597915952E+03  0.17433680645E+03  0.00000000000E+00 0.  1.
         13    1    3    3    0    0 -0.40384206849E+02 -0.29082462393E+02 -0.78158804564E+02  0.92657824886E+02  0.00000000000E+00 0. -1.
          3    1    1    2  501    0 -0.47693965325E+02 -0.41569614893E+02  0.29391952210E+02  0.69761264793E+02  0.00000000000E+00 0. -1.
<scales pt_clust_5="13000.00000" pt_clust_6="13000.00000" pt_clust_7="13000.00000" pt_clust_8="13000.00000" pt_clust_9="63.26727"></scales>
<clustering>
<clus scale="   63.267">  1  9  2 -1</clus>
<clus scale="   90.448">  5  6 -1 -1</clus>
<clus scale="   91.452">  7  8 -1 -1</clus>
<clus scale="  110.891">  1  5  2 -1</clus>
<clus scale="   63.267">  1  5  2 -1</clus>
</clustering>
</event>
<event>
 9    1  0.1445593E-005  0.1298512E+03  0.7546771E-02  0.1237726E+00
          2   -1    0    0  502    0 -0.00000000000E+00  0.00000000000E+00  0.31868531860E+03  0.31868531860E+03  0.00000000000E+00 0. -1.
         21   -1    0    0  501  502  0.00000000000E+00 -0.00000000000E+00 -0.20418387979E+03  0.20418387979E+03  0.00000000000E+00 0. -1.
         23    2    1    2    0    0 -0.45099434300E+01  0.53384712456E+02  0.24170826758E+03  0.26380270424E+03  0.91097272380E+02 0.  0.
         23    2    1    2    0    0  0.45770872893E+02 -0.46736720330E+02 -0.11110002344E+02  0.13567632759E+03  0.11834415864E+03 0.  0.
        -11    1    3    3    0    0  0.39981588460E+02  0.80996296276E+01  0.74311552787E+02  0.84772273141E+02  0.00000000000E+00 0.  1.
         11    1    3    3    0    0 -0.44491531890E+02  0.45285082828E+02  0.16739671479E+03  0.17903043110E+03  0.00000000000E+00 0. -1.
        -11    1    4    4    0    0 -0.27533744535E+01 -0.50526887486E+02 -0.51668881656E+02  0.72320265220E+02  0.00000000000E+00 0.  1.
         11    1    4    4    0    0  0.48524247347E+02  0.37901671563E+01  0.40558879313E+02  0.63356062368E+02  0.00000000000E+00 0. -1.
          2    1    1    2  501    0 -0.41260929463E+02 -0.66479921259E+01 -0.11609682642E+03  0.12339016656E+03  0.00000000000E+00 0. -1.
<scales pt_clust_5="13000.00000" pt_clust_6="13000.00000" pt_clust_7="13000.00000" pt_clust_8="13000.00000" pt_clust_9="41.79306"></scales>
<clustering>
<clus scale="   41.793">  2  9  1 -1</clus>
<clus scale="   91.097">  5  6 -1 -1</clus>
<clus scale="  105.616">  1  5  2 -1</clus>
<clus scale="  118.344">  7  8 -1 -1</clus>
<clus scale="   41.793">  2  5  1 -1</clus>
</clustering>
</event>
<event>
 9    1  0.1445593E-005  0.1349948E+03  0.7546771E-02  0.1220621E+00
          2   -1    0    0  502    0 -0.00000000000E+00  0.00000000000E+00  0.46767203045E+03  0.46767203045E+03  0.00000000000E+00 0. -1.
         21   -1    0    0  501  502  0.00000000000E+00 -0.00000000000E+00 -0.82036794512E+02  0.82036794512E+02  0.00000000000E+00 0. -1.
         23    2    1    2    0    0  0.65626383333E+02  0.31990454803E+02  0.14641578094E+03  0.18754524813E+03  0.91681120196E+02 0.  0.
         23    2    1    2    0    0 -0.99685721443E+02 -0.11721415127E+03  0.15196478826E+03  0.23552829810E+03  0.93294598010E+02 0.  0.
        -11    1    3    3    0    0  0.55696921302E+02 -0.23429636305E+02  0.84176734972E+02  0.10361861614E+03  0.00000000000E+00 0.  1.
         11    1    3    3    0    0  0.99294620306E+01  0.55420091108E+02  0.62239045969E+02  0.83926631993E+02  0.00000000000E+00 0. -1.
        -11    1    4    4    0    0  0.18157453828E+02 -0.14695724439E+02  0.14783615153E+02  0.27644397684E+02  0.00000000000E+00 0.  1.
         11    1    4    4    0    0 -0.11784317527E+03 -0.10251842683E+03  0.13718117311E+03  0.20788390041E+03  0.00000000000E+00 0. -1.
          2    1    1    2  501    0  0.34059338110E+02  0.85223696464E+02  0.87254666736E+02  0.12663527873E+03  0.00000000000E+00 0. -1.
<scales pt_clust_5="13000.00000" pt_clust_6="13000.00000" pt_clust_7="13000.00000" pt_clust_8="13000.00000" pt_clust_9="91.77754"></scales>
<clustering>
<clus scale="   91.681">  5  6 -1 -1</clus>
<clus scale="   91.778">  2  9  1 -1</clus>
<clus scale="   93.295">  7  8 -1 -1</clus>
<clus scale="  133.885">  1  5  2 -1</clus>
<clus scale="   91.778">  2  5  1 -1</clus>
</clustering>
</event>
<event>
 9    1  0.1445593E-005  0.1205785E+03  0.7546771E-02  0.1242165E+00
         21   -1    0    0  501  502  0.00000000000E+00  0.00000000000E+00  0.32501589089E+03  0.32501589089E+03  0.00000000000E+00 0. -1.
          1   -1    0    0  502    0 -0.00000000000E+00 -0.00000000000E+00 -0.13449990552E+03  0.13449990552E+03  0.00000000000E+00 0. -1.
         23    2    1    2    0    0  0.59131698552E+02 -0.41492936263E+02 -0.67259967449E+02  0.13481922252E+03  0.91837345378E+02 0.  0.
         23    2    1    2    0    0 -0.84600764911E+02  0.62529195435E+02  0.12342242180E+03  0.18634170829E+03  0.91776621967E+02 0.  0.
        -11    1    3    3    0    0  0.42221102352E+02  0.23184129773E+02 -0.40048782712E+02  0.62642081334E+02  0.00000000000E+00 0.  1.
         11    1    3    3    0    0  0.16910596199E+02 -0.64677066036E+02 -0.27211184738E+02  0.72177141185E+02  0.00000000000E+00 0. -1.
        -13    1    4    4    0    0 -0.10236037814E+03  0.48543483683E+02  0.11696057293E+03  0.16283087066E+03  0.00000000000E+00 0.  1.
         13    1    4    4    0    0  0.17759613226E+02  0.13985711752E+02  0.64618488746E+01  0.23510837630E+02  0.00000000000E+00 0. -1.
          1    1    1    2  501    0  0.25469066359E+02 -0.21036259172E+02  0.13435353101E+03  0.13835486560E+03  0.00000000000E+00 0. -1.
<scales pt_clust_5="13000.00000" pt_clust_6="13000.00000" pt_clust_7="13000.00000" pt_clust_8="13000.00000" pt_clust_9="33.03328"></scales>
<clustering>
<clus scale="   33.033">  1  9  2 -1</clus>
<clus scale="   91.777">  7  8 -1 -1</clus>
<clus scale="   91.837">  5  6 -1 -1</clus>
<clus scale="  120.532">  1  7  2 -1</clus>
<clus scale="   33.033">  1  5  2 -1</clus>
</clustering>
</event>
<event>
 9    1  0.1445593E-005  0.1130523E+03  0.7546771E-02  0.1255216E+00
         21   -1    0    0  501  502  0.00000000000E+00  0.00000000000E+00  0.44215539156E+03  0.44215539156E+03  0.00000000000E+00 0. -1.
          2   -1    0    0  502    0 -0.00000000000E+00 -0.00000000000E+00 -0.86237463324E+02  0.86237463324E+02  0.00000000000E+00 0. -1.
         23    2    1    2    0    0 -0.36261021654E+02  0.62267675948E+02  0.37601237877E+02  0.12332738234E+03  0.92755943127E+02 0.  0.
         23    2    1    2    0    0 -0.41751619816E+02 -0.67500167709E+02  0.60949911484E+02  0.13608404183E+03  0.92219869516E+02 0.  0.
        -11    1    4    4    0    0 -0.31988124158E+02 -0.90633355693E+02  0.43446905889E+02  0.10547643757E+03  0.00000000000E+00 0. -1.
         11    1    4    4    0    0 -0.97634956580E+01  0.23133187984E+02  0.17503005595E+02  0.30607604262E+02  0.00000000000E+00 0.  1.
        -13    1    3    3    0    0 -0.49322607776E+02  0.30865194921E+02 -0.15549983143E+02  0.60226089622E+02  0.00000000000E+00 0. -1.
         13    1    3    3    0    0  0.13061586122E+02  0.31402481026E+02  0.53151221020E+02  0.63101292717E+02  0.00000000000E+00 0.  1.
          2    1    1    2  501    0  0.78012641470E+02  0.52324917614E+01  0.25736677887E+03  0.26898143071E+03  0.00000000000E+00 0. -1.
<scales pt_clust_5="13000.00000" pt_clust_6="13000.00000" pt_clust_7="13000.00000" pt_clust_8="13000.00000" pt_clust_9="78.18792"></scales>
<clustering>
<clus scale="   78.188">  1  9  2 -1</clus>
<clus scale="   92.220">  5  6 -1 -1</clus>
<clus scale="   92.756">  7  8 -1 -1</clus>
<clus scale="  112.613">  1  5  2 -1</clus>
<clus scale="   78.188">  1  5  2 -1</clus>
</clustering>
</event>
<event>
 9    1  0.1445593E-005  0.3747725E+03  0.7546771E-02  0.1081476E+00
          3   -1    0    0  502    0 -0.00000000000E+00  0.00000000000E+00  0.14532086867E+04  0.14532086867E+04  0.00000000000E+00 0. -1.
         21   -1    0    0  501  502  0.00000000000E+00 -0.00000000000E+00 -0.18592598295E+03  0.18592598295E+03  0.00000000000E+00 0. -1.
         23    2    1    2    0    0  0.34847508506E+02 -0.13887068448E+03  0.14422420353E+03  0.22308318218E+03  0.92011246217E+02 0.  0.
         23    2    1    2    0    0 -0.37398039692E+03  0.21144194617E+03  0.90644284777E+03  0.10071504665E+04  0.90246285833E+02 0.  0.
        -11    1    4    4    0    0 -0.27101518789E+02 -0.68052726339E+01  0.41530766130E+02  0.50056054496E+02  0.00000000000E+00 0.  1.
         11    1    4    4    0    0 -0.34687887813E+03  0.21824721880E+03  0.86491208164E+03  0.95709441205E+03  0.00000000000E+00 0. -1.
        -13    1    3    3    0    0  0.48003268894E+02 -0.29377865475E+02  0.71458211185E+02  0.90959599549E+02  0.00000000000E+00 0.  1.
         13    1    3    3    0    0 -0.13155760389E+02 -0.10949281901E+03  0.72765992346E+02  0.13212358263E+03  0.00000000000E+00 0. -1.
          3    1    1    2  501    0  0.33913288841E+03 -0.72571261688E+02  0.21661565243E+03  0.40890102092E+03  0.00000000000E+00 0. -1.
<scales pt_clust_5="13000.00000" pt_clust_6="13000.00000" pt_clust_7="13000.00000" pt_clust_8="13000.00000" pt_clust_9="363.74450"></scales>
<clustering>
<clus scale="   90.246">  5  6 -1 -1</clus>
<clus scale="   92.011">  7  8 -1 -1</clus>
<clus scale="  170.193">  1  7  2 -1</clus>
<clus scale="  363.745">  2  9  1 -1</clus>
<clus scale="  363.745">  2  5  1 -1</clus>
</clustering>
</event>
<event>
 9    1  0.1445593E-005  0.1214993E+03  0.7546771E-02  0.1247482E+00
          2   -1    0    0  502    0 -0.00000000000E+00  0.00000000000E+00  0.17933695372E+03  0.17933695372E+03  0.00000000000E+00 0. -1.
         21   -1    0    0  501  502  0.00000000000E+00 -0.00000000000E+00 -0.33297208208E+03  0.33297208208E+03  0.00000000000E+00 0.  1.
         23    2    1    2    0    0 -0.69737580152E+02  0.79769138671E+01  0.10690744210E+03  0.14710887479E+03  0.72697033115E+02 0.  0.
         23    2    1    2    0    0  0.11768953221E+03  0.12699874476E+02 -0.68125727669E+02  0.16582322988E+03  0.94043160267E+02 0.  0.
        -11    1    4    4    0    0  0.19175208449E+02  0.61314491503E+01 -0.63903916357E+02  0.66999953833E+02  0.00000000000E+00 0. -1.
         11    1    4    4    0    0  0.98514323763E+02  0.65684253260E+01 -0.42218113113E+01  0.98823276046E+02  0.00000000000E+00 0.  1.
        -13    1    3    3    0    0 -0.65231192786E+02 -0.21891926872E+02  0.59869825184E+02  0.91207241719E+02  0.00000000000E+00 0. -1.
         13    1    3    3    0    0 -0.45063873659E+01  0.29868840739E+02  0.47037616917E+02  0.55901633066E+02  0.00000000000E+00 0.  1.
          2    1    1    2  501    0 -0.47951952060E+02 -0.20676788343E+02 -0.19241684279E+03  0.19937693114E+03  0.00000000000E+00 0. -1.
<scales pt_clust_5="13000.00000" pt_clust_6="13000.00000" pt_clust_7="13000.00000" pt_clust_8="13000.00000" pt_clust_9="52.21991"></scales>
<clustering>
<clus scale="   52.220">  2  9  1 -1</clus>
<clus scale="   72.697">  7  8 -1 -1</clus>
<clus scale="   94.043">  5  6 -1 -1</clus>
<clus scale="  105.843">  1  7  2 -1</clus>
<clus scale="   52.220">  2  5  1 -1</clus>
</clustering>
</event>
<event>
 9    1  0.1445593E-005  0.1062507E+03  0.7546771E-02  0.1267903E+00
         21   -1    0    0  501  502  0.00000000000E+00  0.00000000000E+00  0.93789353474E+02  0.93789353474E+02  0.00000000000E+00 0. -1.
          2   -1    0    0  502    0 -0.00000000000E+00 -0.00000000000E+00 -0.39553423342E+03  0.39553423342E+03  0.00000000000E+00 0. -1.
         23    2    1    2    0    0 -0.45310829351E+02  0.32062775352E+02 -0.31993493974E+03  0.33725813756E+03  0.91124052059E+02 0.  0.
         23    2    1    2    0    0  0.94560773835E+01 -0.55624569806E+02  0.78141184989E+01  0.10792497409E+03  0.91669130132E+02 0.  0.
        -11    1    3    3    0    0 -0.95765687034E+01  0.60157444666E+02 -0.19614773351E+03  0.20538880733E+03  0.00000000000E+00 0.  1.
         11    1    3    3    0    0 -0.35734260647E+02 -0.28094669314E+02 -0.12378720624E+03  0.13186933023E+03  0.00000000000E+00 0. -1.
        -13    1    4    4    0    0  0.38048562803E+02  0.23207927607E+00 -0.15360525530E+02  0.41032825112E+02  0.00000000000E+00 0.  1.
         13    1    4    4    0    0 -0.28592485419E+02 -0.55856649082E+02  0.23174644029E+02  0.66892148979E+02  0.00000000000E+00 0. -1.
          2    1    1    2  501    0  0.35854751967E+02  0.23561794454E+02  0.10375941299E+02  0.44140475239E+02  0.00000000000E+00 0. -1.
<scales pt_clust_5="13000.00000" pt_clust_6="13000.00000" pt_clust_7="13000.00000" pt_clust_8="13000.00000" pt_clust_9="42.90363"></scales>
<clustering>
<clus scale="   42.904">  1  9  2 -1</clus>
<clus scale="   91.124">  5  6 -1 -1</clus>
<clus scale="   91.669">  7  8 -1 -1</clus>
<clus scale="  105.781">  2  5  1 -1</clus>
<clus scale="   42.904">  1  5  2 -1</clus>
</clustering>
</event>
<event>
 9    1  0.2434228E-005  0.1159530E+03  0.7546771E-02  0.1250187E+00
          1   -1    0    0  502    0 -0.00000000000E+00  0.00000000000E+00  0.68253877364E+03  0.68253877364E+03  0.00000000000E+00 0. -1.
         21   -1    0    0  501  502  0.00000000000E+00 -0.00000000000E+00 -0.56544224458E+02  0.56544224458E+02  0.00000000000E+00 0. -1.
         23    2    1    2    0    0 -0.10287273185E+02 -0.69258159799E+02  0.56056424608E+03  0.57224411642E+03  0.91260802680E+02 0.  0.
         23    2    1    2    0    0 -0.13596701240E+02  0.77138146451E+02  0.32006040940E+02  0.12500923041E+03  0.92020416805E+02 0.  0.
        -11    1    4    4    0    0 -0.63328445970E+01 -0.19072747944E+02 -0.65043392025E+01  0.21122998445E+02  0.00000000000E+00 0.  1.
         11    1    4    4    0    0 -0.72638566434E+01  0.96210894395E+02  0.38510380143E+02  0.10388623197E+03  0.00000000000E+00 0. -1.
        -13    1    3    3    0    0  0.63916795219E+01 -0.88363449804E+02  0.46546050112E+03  0.47381687489E+03  0.00000000000E+00 0. -1.
         13    1    3    3    0    0 -0.16678952707E+02  0.19105290006E+02  0.95103744960E+02  0.98427241529E+02  0.00000000000E+00 0.  1.
          1    1    1    2  501    0  0.23883974426E+02 -0.78799866525E+01  0.33424262162E+02  0.41829651266E+02  0.00000000000E+00 0. -1.
<scales pt_clust_5="13000.00000" pt_clust_6="13000.00000" pt_clust_7="13000.00000" pt_clust_8="13000.00000" pt_clust_9="25.15032"></scales>
<clustering>
<clus scale="   25.150">  2  9  1 -1</clus>
<clus scale="   91.261">  7  8 -1 -1</clus>
<clus scale="   92.020">  5  6 -1 -1</clus>
<clus scale="  115.351">  1  7  2 -1</clus>
<clus scale="   25.150">  2  5  1 -1</clus>
</clustering>
</event>
<event>
 9    1  0.1445593E-005  0.1095947E+03  0.7546771E-02  0.1266283E+00
         -1   -1    0    0    0  501 -0.00000000000E+00  0.00000000000E+00  0.25866642791E+03  0.25866642791E+03  0.00000000000E+00 0.  1.
         21   -1    0    0  501  502  0.00000000000E+00 -0.00000000000E+00 -0.13768741664E+03  0.13768741664E+03  0.00000000000E+00 0.  1.
         23    2    1    2    0    0  0.42846822775E+02 -0.88674725244E+01  0.16835606989E+03  0.19620017872E+03  0.90753851553E+02 0.  0.
         23    2    1    2    0    0 -0.34206907123E+02 -0.11099601207E+02  0.36173575678E+02  0.11381687954E+03  0.10174694516E+03 0.  0.
        -11    1    4    4    0    0 -0.19463520431E+00 -0.41503788521E+02 -0.16026353339E+02  0.44490969261E+02  0.00000000000E+00 0.  1.
         11    1    4    4    0    0 -0.34012271918E+02  0.30404187314E+02  0.52199929017E+02  0.69325910284E+02  0.00000000000E+00 0. -1.
        -13    1    3    3    0    0  0.19588830908E+02 -0.49887244588E+02  0.89128827313E+02  0.10400195828E+03  0.00000000000E+00 0.  1.
         13    1    3    3    0    0  0.23257991867E+02  0.41019772063E+02  0.79227242575E+02  0.92198220437E+02  0.00000000000E+00 0. -1.
         -1    1    1    2    0  502 -0.86399156522E+01  0.19967073732E+02 -0.83550634288E+02  0.86336786284E+02  0.00000000000E+00 0.  1.
<scales pt_clust_5="13000.00000" pt_clust_6="13000.00000" pt_clust_7="13000.00000" pt_clust_8="13000.00000" pt_clust_9="21.75620"></scales>
<clustering>
<clus scale="   21.756">  2  9  1 -1</clus>
<clus scale="   90.754">  7  8 -1 -1</clus>
<clus scale="   99.473">  1  7  2 -1</clus>
<clus scale="  101.747">  5  6 -1 -1</clus>
<clus scale="   21.756">  2  5  1 -1</clus>
</clustering>
</event>
<event>
 9    1  0.1445593E-005  0.9374589E+02  0.7546771E-02  0.1294565E+00
          3   -1    0    0  502    0 -0.00000000000E+00  0.00000000000E+00  0.13510709057E+03  0.13510709057E+03  0.00000000000E+00 0. -1.
         21   -1    0    0  501  502  0.00000000000E+00 -0.00000000000E+00 -0.12595992557E+03  0.12595992557E+03  0.00000000000E+00 0.  1.
         23    2    1    2    0    0  0.83923791760E+01 -0.11302676049E+02  0.63096575943E+02  0.11107290885E+03  0.90320710087E+02 0.  0.
         23    2    1    2    0    0 -0.20758127251E+02  0.31598309385E+02 -0.90777419491E+01  0.99217231296E+02  0.91281436143E+02 0.  0.
        -11    1    3    3    0    0 -0.30904994945E+02  0.23375462073E+02  0.30914496534E+02  0.49570525876E+02  0.00000000000E+00 0.  1.
         11    1    3    3    0    0  0.39297374121E+02 -0.34678138122E+02  0.32182079409E+02  0.61502382974E+02  0.00000000000E+00 0. -1.
        -13    1    4    4    0    0 -0.15510203363E+01  0.61399190231E+02  0.37013915375E+01  0.61530208226E+02  0.00000000000E+00 0.  1.
         13    1    4    4    0    0 -0.19207106914E+02 -0.29800880846E+02 -0.12779133487E+02  0.37687023070E+02  0.00000000000E+00 0. -1.
          3    1    1    2  501    0  0.12365748074E+02 -0.20295633336E+02 -0.44871668989E+02  0.50776875995E+02  0.00000000000E+00 0. -1.
<scales pt_clust_5="13000.00000" pt_clust_6="13000.00000" pt_clust_7="13000.00000" pt_clust_8="13000.00000" pt_clust_9="23.76604"></scales>
<clustering>
<clus scale="   23.766">  2  9  1 -1</clus>
<clus scale="   90.321">  5  6 -1 -1</clus>
<clus scale="   91.281">  7  8 -1 -1</clus>
<clus scale="   92.811">  1  5  2 -1</clus>
<clus scale="   23.766">  2  5  1 -1</clus>
</clustering>
</event>
<event>
 9    1  0.1445593E-005  0.1288172E+03  0.7546771E-02  0.1245676E+00
         21   -1    0    0  501  502  0.00000000000E+00  0.00000000000E+00  0.10911317607E+04  0.10911317607E+04  0.00000000000E+00 0.  1.
         -4   -1    0    0    0  501 -0.00000000000E+00 -0.00000000000E+00 -0.27150585854E+02  0.27150585854E+02  0.00000000000E+00 0.  1.
         23    2    1    2    0    0  0.21645447577E+02  0.15583832622E+02  0.13693980541E+03  0.16502544069E+03  0.88144792979E+02 0.  0.
         23    2    1    2    0    0 -0.46218946239E+02  0.75631943410E+02  0.49590711084E+03  0.51189432978E+03  0.90860114592E+02 0.  0.
        -11    1    4    4    0    0 -0.38771646714E+02 -0.93297280382E+01  0.12074365975E+03  0.12715862450E+03  0.00000000000E+00 0. -1.
         11    1    4    4    0    0 -0.74472995245E+01  0.84961671448E+02  0.37516345109E+03  0.38473570528E+03  0.00000000000E+00 0.  1.
        -13    1    3    3    0    0 -0.13714100413E+01  0.46454500962E+02  0.42263921554E+02  0.62818313335E+02  0.00000000000E+00 0.  1.
         13    1    3    3    0    0  0.23016857619E+02 -0.30870668340E+02  0.94675883858E+02  0.10220712736E+03  0.00000000000E+00 0. -1.
         -4    1    1    2    0  502  0.24573498661E+02 -0.91215776033E+02  0.43113425864E+03  0.44136257613E+03  0.00000000000E+00 0.  1.
<scales pt_clust_5="13000.00000" pt_clust_6="13000.00000" pt_clust_7="13000.00000" pt_clust_8="13000.00000" pt_clust_9="91.31429"></scales>
<clustering>
<clus scale="   88.145">  7  8 -1 -1</clus>
<clus scale="   90.860">  5  6 -1 -1</clus>
<clus scale="   92.092">  2  7  1 -1</clus>
<clus scale="   91.314">  1  9  2 -1</clus>
<clus scale="   91.314">  1  5  2 -1</clus>
</clustering>
</event>
<event>
 9    1  0.1445593E-005  0.9566471E+02  0.7546771E-02  0.1290155E+00
         21   -1    0    0  501  502  0.00000000000E+00  0.00000000000E+00  0.51267565776E+03  0.51267565776E+03  0.00000000000E+00 0. -1.
         -1   -1    0    0    0  501 -0.00000000000E+00 -0.00000000000E+00 -0.88798508417E+02  0.88798508417E+02  0.00000000000E+00 0.  1.
         23    2    1    2    0    0  0.15000630139E+02  0.19041828253E+02 -0.51330131680E+02  0.10741827405E+03  0.91193711706E+02 0.  0.
         23    2    1    2    0    0 -0.35915475765E+02 -0.29074861629E+02  0.29723475621E+03  0.31457800459E+03  0.92062759528E+02 0.  0.
        -11    1    3    3    0    0 -0.25141314956E+02  0.33917442279E+02 -0.22328637172E+01  0.42278413983E+02  0.00000000000E+00 0. -1.
         11    1    3    3    0    0  0.40141945096E+02 -0.14875614026E+02 -0.49097267963E+02  0.65139860071E+02  0.00000000000E+00 0.  1.
        -13    1    4    4    0    0 -0.56514335849E+02 -0.43438169498E+02  0.26053043766E+03  0.27010526406E+03  0.00000000000E+00 0. -1.
         13    1    4    4    0    0  0.20598860083E+02  0.14363307869E+02  0.36704318552E+02  0.44472740528E+02  0.00000000000E+00 0.  1.
         -1    1    1    2    0  502  0.20914845626E+02  0.10033033375E+02  0.17797252481E+03  0.17947788754E+03  0.00000000000E+00 0.  1.
<scales pt_clust_5="13000.00000" pt_clust_6="13000.00000" pt_clust_7="13000.00000" pt_clust_8="13000.00000" pt_clust_9="23.19682"></scales>
<clustering>
<clus scale="   23.197">  1  9  2 -1</clus>
<clus scale="   91.194">  5  6 -1 -1</clus>
<clus scale="   92.063">  7  8 -1 -1</clus>
<clus scale="   94.829">  2  5  1 -1</clus>
<clus scale="   23.197">  1  5  2 -1</clus>
</clustering>
</event>
<event>
 9    1  0.1445593E-005  0.1019861E+03  0.7546771E-02  0.1276911E+00
         21   -1    0    0  501  502  0.00000000000E+00  0.00000000000E+00  0.16550062805E+03  0.16550062805E+03  0.00000000000E+00 0.  1.
         -3   -1    0    0    0  501 -0.00000000000E+00 -0.00000000000E+00 -0.21136916098E+03  0.21136916098E+03  0.00000000000E+00 0.  1.
         23    2    1    2    0    0  0.57448930243E+02 -0.24581275308E+02 -0.11897186034E+03  0.16216612654E+03  0.90768553807E+02 0.  0.
         23    2    1    2    0    0 -0.18296063361E+02  0.15286147014E+02 -0.35499606966E+02  0.98885081297E+02  0.89160669487E+02 0.  0.
        -11    1    3    3    0    0  0.73791570350E+00 -0.26108313600E+02  0.42963031438E+01  0.26469733269E+02  0.00000000000E+00 0. -1.
         11    1    3    3    0    0  0.56711014539E+02  0.15270382921E+01 -0.12326816349E+03  0.13569639327E+03  0.00000000000E+00 0.  1.
        -11    1    4    4    0    0 -0.32192735813E-02 -0.26958156495E+02 -0.44452084566E+02  0.51987787357E+02  0.00000000000E+00 0.  1.
         11    1    4    4    0    0 -0.18292844087E+02  0.42244303509E+02  0.89524776002E+01  0.46897293941E+02  0.00000000000E+00 0. -1.
         -3    1    1    2    0  502 -0.39152866882E+02  0.92951282938E+01  0.10860293438E+03  0.11581858120E+03  0.00000000000E+00 0.  1.
<scales pt_clust_5="13000.00000" pt_clust_6="13000.00000" pt_clust_7="13000.00000" pt_clust_8="13000.00000" pt_clust_9="40.24110"></scales>
<clustering>
<clus scale="   40.241">  1  9  2 -1</clus>
<clus scale="   89.161">  7  8 -1 -1</clus>
<clus scale="   90.769">  5  6 -1 -1</clus>
<clus scale="  100.558">  1  7  2 -1</clus>
<clus scale="   40.241">  1  5  2 -1</clus>
</clustering>
</event>
<event>
 9    1  0.1445593E-005  0.9778027E+02  0.7546771E-02  0.1285255E+00
         21   -1    0    0  501  502  0.00000000000E+00  0.00000000000E+00  0.97861845674E+02  0.97861845674E+02  0.00000000000E+00 0. -1.
          2   -1    0    0  502    0 -0.00000000000E+00 -0.00000000000E+00 -0.44310003534E+03  0.44310003534E+03  0.00000000000E+00 0. -1.
         23    2    1    2    0    0  0.30160633995E+02 -0.39532794576E+02 -0.25106445875E+03  0.27147813802E+03  0.90523539938E+02 0.  0.
         23    2    1    2    0    0  0.89839286585E+00  0.22972245741E+02 -0.16533138437E+03  0.19009654898E+03  0.90959881793E+02 0.  0.
        -13    1    3    3    0    0  0.29822329368E+02  0.88884711639E+01 -0.23974462745E+02  0.39282962114E+02  0.00000000000E+00 0.  1.
         13    1    3    3    0    0  0.33830462638E+00 -0.48421265740E+02 -0.22708999601E+03  0.23219517590E+03  0.00000000000E+00 0. -1.
        -13    1    4    4    0    0 -0.22690003795E+02 -0.25704167434E+01 -0.17955553959E+01  0.22905617950E+02  0.00000000000E+00 0.  1.
         13    1    4    4    0    0  0.23588396661E+02  0.25542662484E+02 -0.16353582897E+03  0.16719093104E+03  0.00000000000E+00 0. -1.
          2    1    1    2  501    0 -0.31059026861E+02  0.16560548835E+02  0.71157653455E+02  0.79387194008E+02  0.00000000000E+00 0. -1.
<scales pt_clust_5="13000.00000" pt_clust_6="13000.00000" pt_clust_7="13000.00000" pt_clust_8="13000.00000" pt_clust_9="35.19822"></scales>
<clustering>
<clus scale="   35.198">  1  9  2 -1</clus>
<clus scale="   90.524">  5  6 -1 -1</clus>
<clus scale="   90.960">  7  8 -1 -1</clus>
<clus scale="   97.374">  2  5  1 -1</clus>
<clus scale="   35.198">  1  5  2 -1</clus>
</clustering>
</event>
<event>
 9    1  0.1445593E-005  0.1512254E+03  0.7546771E-02  0.1199517E+00
          1   -1    0    0  502    0 -0.00000000000E+00  0.00000000000E+00  0.92237172872E+03  0.92237172872E+03  0.00000000000E+00 0. -1.
         21   -1    0    0  501  502  0.00000000000E+00 -0.00000000000E+00 -0.46797324137E+02  0.46797324137E+02  0.00000000000E+00 0.  1.
         23    2    1    2    0    0 -0.10569295758E+03 -0.50891583979E+02  0.55726210700E+03  0.57656230400E+03  0.90122582629E+02 0.  0.
         23    2    1    2    0    0  0.12414214839E+03  0.21195533236E+02  0.32140117580E+03  0.35751017865E+03  0.93028427892E+02 0.  0.
        -11    1    3    3    0    0 -0.11307350664E+03 -0.32021931796E+02  0.52831868778E+03  0.54123161205E+03  0.00000000000E+00 0. -1.
         11    1    3    3    0    0  0.73805490682E+01 -0.18869652183E+02  0.28943419218E+02  0.35330691956E+02  0.00000000000E+00 0.  1.
        -13    1    4    4    0    0  0.78384182766E+02 -0.31823572034E+02  0.20339135199E+03  0.22028359428E+03  0.00000000000E+00 0.  1.
         13    1    4    4    0    0  0.45757965620E+02  0.53019105271E+02  0.11800982381E+03  0.13722658437E+03  0.00000000000E+00 0. -1.
          1    1    1    2  501    0 -0.18449190810E+02  0.29696050743E+02 -0.30888782215E+01  0.35096570202E+02  0.00000000000E+00 0. -1.
<scales pt_clust_5="13000.00000" pt_clust_6="13000.00000" pt_clust_7="13000.00000" pt_clust_8="13000.00000" pt_clust_9="34.96038"></scales>
<clustering>
<clus scale="   34.960">  2  9  1 -1</clus>
<clus scale="   90.123">  5  6 -1 -1</clus>
<clus scale="   93.028">  7  8 -1 -1</clus>
<clus scale="  149.455">  1  5  2 -1</clus>
<clus scale="   34.960">  2  5  1 -1</clus>
</clustering>
</event>
<event>
 9    1  0.1445593E-005  0.9246307E+02  0.7546771E-02  0.1303282E+00
         -1   -1    0    0    0  501 -0.00000000000E+00  0.00000000000E+00  0.22426744895E+03  0.22426744895E+03  0.00000000000E+00 0.  1.
         21   -1    0    0  501  502  0.00000000000E+00 -0.00000000000E+00 -0.73328425636E+02  0.73328425636E+02  0.00000000000E+00 0.  1.
         23    2    1    2    0    0  0.26420141856E+02  0.21930135530E+02  0.11324399332E+03  0.14831084817E+03  0.89403304875E+02 0.  0.
         23    2    1    2    0    0 -0.88282815228E+01 -0.93084226680E+01  0.72751770097E+02  0.10808118906E+03  0.78893206869E+02 0.  0.
        -11    1    4    4    0    0 -0.89118345299E+01  0.32206844851E+02  0.51631984329E+02  0.61502548368E+02  0.00000000000E+00 0.  1.
         11    1    4    4    0    0  0.83553007150E-01 -0.41515267519E+02  0.21119785767E+02  0.46578640696E+02  0.00000000000E+00 0. -1.
        -11    1    3    3    0    0 -0.25237749777E+02  0.16277839320E+02  0.82812619143E+02  0.88089965127E+02  0.00000000000E+00 0.  1.
         11    1    3    3    0    0  0.51657891633E+02  0.56522962099E+01  0.30431374174E+02  0.60220883044E+02  0.00000000000E+00 0. -1.
         -1    1    1    2    0  502 -0.17591860334E+02 -0.12621712862E+02 -0.35056740104E+02  0.41203837349E+02  0.00000000000E+00 0.  1.
<scales pt_clust_5="13000.00000" pt_clust_6="13000.00000" pt_clust_7="13000.00000" pt_clust_8="13000.00000" pt_clust_9="21.65136"></scales>
<clustering>
<clus scale="   21.651">  2  9  1 -1</clus>
<clus scale="   78.893">  5  6 -1 -1</clus>
<clus scale="   82.344">  2  5  1 -1</clus>
<clus scale="   89.403">  7  8 -1 -1</clus>
<clus scale="   21.651">  2  5  1 -1</clus>
</clustering>
</event>
<event>
 9    1  0.1445593E-005  0.1059921E+03  0.7546771E-02  0.1268728E+00
          2   -1    0    0  502    0 -0.00000000000E+00  0.00000000000E+00  0.51669517236E+03  0.51669517236E+03  0.00000000000E+00 0. -1.
         21   -1    0    0  501  502  0.00000000000E+00 -0.00000000000E+00 -0.59932066027E+02  0.59932066027E+02  0.00000000000E+00 0.  1.
         23    2    1    2    0    0  0.18982614202E+02 -0.51038365534E+02  0.26319317046E+03  0.28311778839E+03  0.88993161118E+02 0.  0.
         23    2    1    2    0    0  0.36966636662E+01  0.59342323850E+02  0.22748334610E+03  0.25187503201E+03  0.90317120614E+02 0.  0.
        -11    1    4    4    0    0  0.28005269878E+02  0.73803599869E+02  0.18096416738E+03  0.19743175117E+03  0.00000000000E+00 0.  1.
         11    1    4    4    0    0 -0.24308606212E+02 -0.14461276019E+02  0.46519178719E+02  0.54443280842E+02  0.00000000000E+00 0. -1.
        -13    1    3    3    0    0  0.21446066963E+02  0.17586763945E+02  0.13367201102E+03  0.13651898983E+03  0.00000000000E+00 0.  1.
         13    1    3    3    0    0 -0.24634527605E+01 -0.68625129479E+02  0.12952115944E+03  0.14659879856E+03  0.00000000000E+00 0. -1.
          2    1    1    2  501    0 -0.22679277868E+02 -0.83039583160E+01 -0.33913410224E+02  0.41634417990E+02  0.00000000000E+00 0. -1.
<scales pt_clust_5="13000.00000" pt_clust_6="13000.00000" pt_clust_7="13000.00000" pt_clust_8="13000.00000" pt_clust_9="24.15172"></scales>
<clustering>
<clus scale="   24.152">  2  9  1 -1</clus>
<clus scale="   88.993">  7  8 -1 -1</clus>
<clus scale="   90.317">  5  6 -1 -1</clus>
<clus scale="  104.866">  1  7  2 -1</clus>
<clus scale="   24.152">  2  5  1 -1</clus>
</clustering>
</event>
<event>
 9    1  0.1445593E-005  0.2031458E+03  0.7546771E-02  0.1148689E+00
         -4   -1    0    0    0  501 -0.00000000000E+00  0.00000000000E+00  0.13025512978E+03  0.13025512978E+03  0.00000000000E+00 0.  1.
         21   -1    0    0  501  502  0.00000000000E+00 -0.00000000000E+00 -0.51078636653E+03  0.51078636653E+03  0.00000000000E+00 0.  1.
         23    2    1    2    0    0  0.47805918726E+02  0.13144126510E+03 -0.11113385141E+03  0.20808745944E+03  0.10671197594E+03 0.  0.
         23    2    1    2    0    0 -0.68358058508E+02 -0.19703604208E+03 -0.97465924024E+02  0.24779061551E+03  0.91676369633E+02 0.  0.
        -11    1    4    4    0    0 -0.26272820324E+02 -0.18081384327E+03 -0.78438078666E+02  0.19883772074E+03  0.00000000000E+00 0.  1.
         11    1    4    4    0    0 -0.42085238184E+02 -0.16222198809E+02 -0.19027845358E+02  0.48952894769E+02  0.00000000000E+00 0. -1.
        -13    1    3    3    0    0  0.77959297838E+02  0.93964174384E+02 -0.10207101397E+03  0.15913959306E+03  0.00000000000E+00 0.  1.
         13    1    3    3    0    0 -0.30153379112E+02  0.37477090715E+02 -0.90628374412E+01  0.48947866376E+02  0.00000000000E+00 0. -1.
         -4    1    1    2    0  502  0.20552139782E+02  0.65594776982E+02 -0.17193146131E+03  0.18516342135E+03  0.00000000000E+00 0.  1.
<scales pt_clust_5="13000.00000" pt_clust_6="13000.00000" pt_clust_7="13000.00000" pt_clust_8="13000.00000" pt_clust_9="68.73911"></scales>
<clustering>
<clus scale="   68.739">  2  9  1 -1</clus>
<clus scale="   91.676">  5  6 -1 -1</clus>
<clus scale="  106.712">  7  8 -1 -1</clus>
<clus scale="  195.666">  2  5  1 -1</clus>
<clus scale="   68.739">  2  5  1 -1</clus>
</clustering>
</event>
<event>
 9    1  0.1445593E-005  0.1044846E+03  0.7546771E-02  0.1271447E+00
         -3   -1    0    0    0  501 -0.00000000000E+00  0.00000000000E+00  0.98037225833E+02  0.98037225833E+02  0.00000000000E+00 0.  1.
         21   -1    0    0  501  502  0.00000000000E+00 -0.00000000000E+00 -0.19736046881E+03  0.19736046881E+03  0.00000000000E+00 0. -1.
         23    2    1    2    0    0  0.33142484052E+02  0.26593240094E+02  0.29540221725E+02  0.10620144875E+03  0.92738871839E+02 0.  0.
         23    2    1    2    0    0 -0.54007609515E+02 -0.38282214546E+02 -0.96039173829E+02  0.14858319804E+03  0.92038546241E+02 0.  0.
        -13    1    4    4    0    0  0.10972566887E+01 -0.43083614482E+02 -0.68564117375E+01  0.43639571388E+02  0.00000000000E+00 0.  1.
         13    1    4    4    0    0 -0.55104866204E+02  0.48013999360E+01 -0.89182762091E+02  0.10494362665E+03  0.00000000000E+00 0. -1.
        -13    1    3    3    0    0  0.65513221507E+02  0.22945442181E+02  0.19133814244E+02  0.72004016253E+02  0.00000000000E+00 0.  1.
         13    1    3    3    0    0 -0.32370737455E+02  0.36477979130E+01  0.10406407482E+02  0.34197432501E+02  0.00000000000E+00 0. -1.
         -3    1    1    2    0  502  0.20865125463E+02  0.11688974452E+02 -0.32824290876E+02  0.40613047852E+02  0.00000000000E+00 0.  1.
<scales pt_clust_5="13000.00000" pt_clust_6="13000.00000" pt_clust_7="13000.00000" pt_clust_8="13000.00000" pt_clust_9="23.91622"></scales>
<clustering>
<clus scale="   23.916">  2  9  1 -1</clus>
<clus scale="   92.039">  5  6 -1 -1</clus>
<clus scale="   92.739">  7  8 -1 -1</clus>
<clus scale="  103.864">  2  5  1 -1</clus>
<clus scale="   23.916">  2  5  1 -1</clus>
</clustering>
</event>
<event>
 9    1  0.1445593E-005  0.1010098E+03  0.7546771E-02  0.1278510E+00
          3   -1    0    0  502    0 -0.00000000000E+00  0.00000000000E+00  0.61845410293E+03  0.61845410293E+03  0.00000000000E+00 0. -1.
         21   -1    0    0  501  502  0.00000000000E+00 -0.00000000000E+00 -0.26497176275E+02  0.26497176275E+02  0.00000000000E+00 0. -1.
         23    2    1    2    0    0  0.16982198061E+02 -0.48215681319E+02  0.40530194742E+03  0.41837506001E+03  0.90304348067E+02 0.  0.
         23    2    1    2    0    0 -0.13979411604E+02  0.27388576449E+02  0.18080711087E+03  0.20473628815E+03  0.90995484919E+02 0.  0.
        -13    1    4    4    0    0  0.11278722883E+01  0.58650683992E+02  0.13551495536E+03  0.14766678013E+03  0.00000000000E+00 0.  1.
         13    1    4    4    0    0 -0.15107283892E+02 -0.31262107543E+02  0.45292155515E+02  0.57069508021E+02  0.00000000000E+00 0. -1.
        -13    1    3    3    0    0 -0.69388443565E+01  0.25227691094E+02  0.88021304128E+02  0.91827740576E+02  0.00000000000E+00 0. -1.
         13    1    3    3    0    0  0.23921042417E+02 -0.73443372412E+02  0.31728064329E+03  0.32654731943E+03  0.00000000000E+00 0.  1.
          3    1    1    2  501    0 -0.30027864568E+01  0.20827104869E+02  0.58478683684E+01  0.21839931048E+02  0.00000000000E+00 0. -1.
<scales pt_clust_5="13000.00000" pt_clust_6="13000.00000" pt_clust_7="13000.00000" pt_clust_8="13000.00000" pt_clust_9="21.04246"></scales>
<clustering>
<clus scale="   21.042">  2  9  1 -1</clus>
<clus scale="   90.304">  7  8 -1 -1</clus>
<clus scale="   90.995">  5  6 -1 -1</clus>
<clus scale="  100.388">  1  7  2 -1</clus>
<clus scale="   21.042">  2  5  1 -1</clus>
</clustering>
</event>
<event>
 9    1  0.1445593E-005  0.1189013E+03  0.7546771E-02  0.1248338E+00
          1   -1    0    0  502    0 -0.00000000000E+00  0.00000000000E+00  0.99955916352E+02  0.99955916352E+02  0.00000000000E+00 0. -1.
         21   -1    0    0  501  502  0.00000000000E+00 -0.00000000000E+00 -0.41469237765E+03  0.41469237765E+03  0.00000000000E+00 0. -1.
         23    2    1    2    0    0  0.32834229965E+02 -0.23839131327E+02 -0.19253437657E+02  0.10347009539E+03  0.93214671263E+02 0.  0.
         23    2    1    2    0    0 -0.45509096477E+02  0.78446984724E+02 -0.30337809047E+02  0.14017145568E+03  0.10248242315E+03 0.  0.
        -13    1    4    4    0    0 -0.14820491043E+02 -0.19678789953E+02 -0.28051265490E+02  0.37333299136E+02  0.00000000000E+00 0.  1.
         13    1    4    4    0    0 -0.30688605433E+02  0.98125774677E+02 -0.22865435570E+01  0.10283815654E+03  0.00000000000E+00 0. -1.
        -13    1    3    3    0    0  0.55498329159E+02 -0.43852113367E+02 -0.78953352785E+01  0.71171684716E+02  0.00000000000E+00 0.  1.
         13    1    3    3    0    0 -0.22664099193E+02  0.20012982041E+02 -0.11358102379E+02  0.32298410674E+02  0.00000000000E+00 0. -1.
          1    1    1    2  501    0  0.12674866511E+02 -0.54607853398E+02 -0.26514521459E+03  0.27100674293E+03  0.00000000000E+00 0. -1.
<scales pt_clust_5="13000.00000" pt_clust_6="13000.00000" pt_clust_7="13000.00000" pt_clust_8="13000.00000" pt_clust_9="56.05952"></scales>
<clustering>
<clus scale="   56.060">  2  9  1 -1</clus>
<clus scale="   93.215">  7  8 -1 -1</clus>
<clus scale="  102.482">  5  6 -1 -1</clus>
<clus scale="  111.013">  1  7  2 -1</clus>
<clus scale="   56.060">  2  5  1 -1</clus>
</clustering>
</event>
<event>
 9    1  0.1445593E-005  0.1499552E+03  0.7546771E-02  0.1201061E+00
          1   -1    0    0  502    0 -0.00000000000E+00  0.00000000000E+00  0.10597203243E+04  0.10597203243E+04  0.00000000000E+00 0. -1.
         21   -1    0    0  501  502  0.00000000000E+00 -0.00000000000E+00 -0.50717002413E+02  0.50717002413E+02  0.00000000000E+00 0. -1.
         23    2    1    2    0    0 -0.11760676125E+02 -0.13031336942E+03  0.75829352802E+03  0.77460213547E+03  0.88766580882E+02 0.  0.
         23    2    1    2    0    0  0.91706394035E+01  0.95145494483E+02  0.26620886441E+03  0.29731624908E+03  0.91613463698E+02 0.  0.
        -11    1    3    3    0    0  0.31714873829E+02 -0.99773355498E+02  0.52469666781E+03  0.53503939004E+03  0.00000000000E+00 0. -1.
         11    1    3    3    0    0 -0.43475549954E+02 -0.30540013921E+02  0.23359686021E+03  0.23956274542E+03  0.00000000000E+00 0.  1.
        -11    1    4    4    0    0 -0.34723490088E+02  0.32178407037E+02  0.54867410598E+02  0.72467947322E+02  0.00000000000E+00 0. -1.
         11    1    4    4    0    0  0.43894129492E+02  0.62967087446E+02  0.21134145381E+03  0.22484830176E+03  0.00000000000E+00 0.  1.
          1    1    1    2  501    0  0.25900367218E+01  0.35167874937E+02 -0.15499070542E+02  0.38518942164E+02  0.00000000000E+00 0. -1.
<scales pt_clust_5="13000.00000" pt_clust_6="13000.00000" pt_clust_7="13000.00000" pt_clust_8="13000.00000" pt_clust_9="35.26312"></scales>
<clustering>
<clus scale="   35.263">  2  9  1 -1</clus>
<clus scale="   88.767">  5  6 -1 -1</clus>
<clus scale="   91.613">  7  8 -1 -1</clus>
<clus scale="  148.233">  1  5  2 -1</clus>
<clus scale="   35.263">  2  5  1 -1</clus>
</clustering>
</event>
<event>
 9    1  0.1445593E-005  0.1277655E+03  0.7546771E-02  0.1230984E+00
         21   -1    0    0  501  502  0.00000000000E+00  0.00000000000E+00  0.10894814105E+03  0.10894814105E+03  0.00000000000E+00 0. -1.
         -1   -1    0    0    0  501 -0.00000000000E+00 -0.00000000000E+00 -0.49603566022E+03  0.49603566022E+03  0.00000000000E+00 0.  1.
         23    2    1    2    0    0 -0.83076769140E+02 -0.38057234660E+02 -0.32123332876E+03  0.34618040189E+03  0.91103877346E+02 0.  0.
         23    2    1    2    0    0  0.62301148709E+02  0.65253637551E+02 -0.13238976614E+03  0.18398192137E+03  0.90458978920E+02 0.  0.
        -11    1    3    3    0    0 -0.18177627461E+02 -0.47603222240E+02 -0.70365316936E+02  0.86877907060E+02  0.00000000000E+00 0. -1.
         11    1    3    3    0    0 -0.64899141679E+02  0.95459875799E+01 -0.25086801182E+03  0.25930249483E+03  0.00000000000E+00 0.  1.
        -11    1    4    4    0    0  0.42049655892E+02 -0.47134147350E+01 -0.13247848053E+02  0.44338418072E+02  0.00000000000E+00 0. -1.
         11    1    4    4    0    0  0.20251492817E+02  0.69967052286E+02 -0.11914191809E+03  0.13964350330E+03  0.00000000000E+00 0.  1.
         -1    1    1    2    0  502  0.20775620431E+02 -0.27196402891E+02  0.66535575733E+02  0.74821478017E+02  0.00000000000E+00 0.  1.
<scales pt_clust_5="13000.00000" pt_clust_6="13000.00000" pt_clust_7="13000.00000" pt_clust_8="13000.00000" pt_clust_9="34.22383"></scales>
<clustering>
<clus scale="   34.224">  1  9  2 -1</clus>
<clus scale="   90.459">  7  8 -1 -1</clus>
<clus scale="   91.104">  5  6 -1 -1</clus>
<clus scale="  127.307">  1  7  2 -1</clus>
<clus scale="   34.224">  1  5  2 -1</clus>
</clustering>
</event>
<event>
 9    1  0.1445593E-005  0.1110729E+03  0.7546771E-02  0.1258919E+00
         -3   -1    0    0    0  501 -0.00000000000E+00  0.00000000000E+00  0.54913877291E+03  0.54913877291E+03  0.00000000000E+00 0.  1.
         21   -1    0    0  501  502  0.00000000000E+00 -0.00000000000E+00 -0.51240496043E+02  0.51240496043E+02  0.00000000000E+00 0. -1.
         23    2    1    2    0    0 -0.70707249379E+02  0.96313135218E+01  0.36289053313E+03  0.38078352190E+03  0.90632633202E+02 0.  0.
         23    2    1    2    0    0  0.47292929186E+02 -0.10971349336E+02  0.15657696656E+03  0.18773264207E+03  0.91488834210E+02 0.  0.
        -11    1    4    4    0    0  0.31413138882E+02  0.34516594157E+02  0.11494049663E+03  0.12405441682E+03  0.00000000000E+00 0. -1.
         11    1    4    4    0    0  0.15879790304E+02 -0.45487943493E+02  0.41636469929E+02  0.63678225254E+02  0.00000000000E+00 0.  1.
        -13    1    3    3    0    0 -0.48805571576E+02 -0.28510287112E+02  0.29152012066E+03  0.29694915565E+03  0.00000000000E+00 0.  1.
         13    1    3    3    0    0 -0.21901677803E+02  0.38141600634E+02  0.71370412464E+02  0.83834366252E+02  0.00000000000E+00 0. -1.
         -3    1    1    2    0  502  0.23414320193E+02  0.13400358147E+01 -0.21569222820E+02  0.31863104983E+02  0.00000000000E+00 0.  1.
<scales pt_clust_5="13000.00000" pt_clust_6="13000.00000" pt_clust_7="13000.00000" pt_clust_8="13000.00000" pt_clust_9="23.45263"></scales>
<clustering>
<clus scale="   23.453">  2  9  1 -1</clus>
<clus scale="   90.633">  7  8 -1 -1</clus>
<clus scale="   91.489">  5  6 -1 -1</clus>
<clus scale="  110.369">  1  7  2 -1</clus>
<clus scale="   23.453">  2  5  1 -1</clus>
</clustering>
</event>
<event>
 9    1  0.1445593E-005  0.9551039E+02  0.7546771E-02  0.1290345E+00
          2   -1    0    0  502    0 -0.00000000000E+00  0.00000000000E+00  0.51618270665E+03  0.51618270665E+03  0.00000000000E+00 0. -1.
         21   -1    0    0  501  502  0.00000000000E+00 -0.00000000000E+00 -0.31448538301E+02  0.31448538301E+02  0.00000000000E+00 0.  1.
         23    2    1    2    0    0 -0.36964803571E+02 -0.60436163183E+01  0.24281782846E+03  0.26219225063E+03  0.91549748638E+02 0.  0.
         23    2    1    2    0    0 -0.60368016875E+01  0.32419622698E+02  0.18571614268E+03  0.20991883850E+03  0.92130115572E+02 0.  0.
        -11    1    4    4    0    0  0.29860890111E+02 -0.17226897610E+02  0.88860009589E+02  0.95312853612E+02  0.00000000000E+00 0.  1.
         11    1    4    4    0    0 -0.35897691798E+02  0.49646520308E+02  0.96856133093E+02  0.11460598489E+03  0.00000000000E+00 0. -1.
        -13    1    3    3    0    0  0.56715005008E+01  0.29186582227E+02  0.29740673958E+02  0.42053896222E+02  0.00000000000E+00 0.  1.
         13    1    3    3    0    0 -0.42636304072E+02 -0.35230198545E+02  0.21307715450E+03  0.22013835441E+03  0.00000000000E+00 0. -1.
          2    1    1    2  501    0  0.43001605259E+02 -0.26376006380E+02  0.56200197206E+02  0.75520155809E+02  0.00000000000E+00 0. -1.
<scales pt_clust_5="13000.00000" pt_clust_6="13000.00000" pt_clust_7="13000.00000" pt_clust_8="13000.00000" pt_clust_9="50.44633"></scales>
<clustering>
<clus scale="   50.446">  2  9  1 -1</clus>
<clus scale="   91.550">  7  8 -1 -1</clus>
<clus scale="   92.130">  5  6 -1 -1</clus>
<clus scale="   94.951">  1  7  2 -1</clus>
<clus scale="   50.446">  2  5  1 -1</clus>
</clustering>
</event>
<event>
 9    1  0.1445593E-005  0.1315242E+03  0.7546771E-02  0.1227965E+00
          1   -1    0    0  502    0 -0.00000000000E+00  0.00000000000E+00  0.47650675658E+03  0.47650675658E+03  0.00000000000E+00 0. -1.
         21   -1    0    0  501  502  0.00000000000E+00 -0.00000000000E+00 -0.63365231637E+02  0.63365231637E+02  0.00000000000E+00 0.  1.
         23    2    1    2    0    0  0.39579856358E+02  0.73554590057E+02  0.24211918528E+03  0.27418411532E+03  0.97869231441E+02 0.  0.
         23    2    1    2    0    0 -0.73211206299E+01 -0.10552957926E+03  0.68586737066E+02  0.15363396335E+03  0.87801841028E+02 0.  0.
        -11    1    3    3    0    0 -0.85903026539E+01  0.75122686677E+02  0.18234345333E+03  0.19739895219E+03  0.00000000000E+00 0. -1.
         11    1    3    3    0    0  0.48170159012E+02 -0.15680966194E+01  0.59775731956E+02  0.76785163131E+02  0.00000000000E+00 0.  1.
        -13    1    4    4    0    0 -0.61374603541E+01 -0.36018472062E+02  0.75393312677E+02  0.83780369692E+02  0.00000000000E+00 0. -1.
         13    1    4    4    0    0 -0.11836602758E+01 -0.69511107201E+02 -0.68065756116E+01  0.69853593662E+02  0.00000000000E+00 0.  1.
          1    1    1    2  501    0 -0.32258735728E+02  0.31974989205E+02  0.10243560259E+03  0.11205390954E+03  0.00000000000E+00 0. -1.
<scales pt_clust_5="13000.00000" pt_clust_6="13000.00000" pt_clust_7="13000.00000" pt_clust_8="13000.00000" pt_clust_9="45.42057"></scales>
<clustering>
<clus scale="   45.421">  2  9  1 -1</clus>
<clus scale="   87.802">  7  8 -1 -1</clus>
<clus scale="   97.869">  5  6 -1 -1</clus>
<clus scale="  124.215">  2  7  1 -1</clus>
<clus scale="   45.421">  2  5  1 -1</clus>
</clustering>
</event>
<event>
 9    1  0.1445593E-005  0.1581099E+03  0.7546771E-02  0.1190979E+00
          1   -1    0    0  502    0 -0.00000000000E+00  0.00000000000E+00  0.47075420092E+03  0.47075420092E+03  0.00000000000E+00 0. -1.
         21   -1    0    0  501  502  0.00000000000E+00 -0.00000000000E+00 -0.97175561987E+02  0.97175561987E+02  0.00000000000E+00 0.  1.
         23    2    1    2    0    0 -0.15613083857E+03 -0.65089376015E+02  0.26964987580E+03  0.33107080533E+03  0.91012949634E+02 0.  0.
         23    2    1    2    0    0  0.81142046451E+02  0.14283991060E+02  0.63011556969E+02  0.13746718808E+03  0.90214784733E+02 0.  0.
        -11    1    4    4    0    0  0.95206740193E+02  0.30840140612E+02  0.55773860856E+02  0.11456946018E+03  0.00000000000E+00 0. -1.
         11    1    4    4    0    0 -0.14064693741E+02 -0.16556149552E+02  0.72376961133E+01  0.22897727902E+02  0.00000000000E+00 0.  1.
        -13    1    3    3    0    0 -0.71943603114E+02  0.10935795413E+02  0.14688372794E+03  0.16392163732E+03  0.00000000000E+00 0.  1.
         13    1    3    3    0    0 -0.84187235456E+02 -0.76025171427E+02  0.12276614786E+03  0.16714916800E+03  0.00000000000E+00 0. -1.
          1    1    1    2  501    0  0.74988792118E+02  0.50805384954E+02  0.40917206171E+02  0.99391769501E+02  0.00000000000E+00 0. -1.
<scales pt_clust_5="13000.00000" pt_clust_6="13000.00000" pt_clust_7="13000.00000" pt_clust_8="13000.00000" pt_clust_9="90.57873"></scales>
<clustering>
<clus scale="   90.215">  5  6 -1 -1</clus>
<clus scale="   90.579">  2  9  1 -1</clus>
<clus scale="   91.013">  7  8 -1 -1</clus>
<clus scale="  157.652">  2  5  1 -1</clus>
<clus scale="   90.579">  2  5  1 -1</clus>
</clustering>
</event>
<event>
 9    1  0.1445593E-005  0.9323434E+02  0.7546771E-02  0.1296851E+00
         21   -1    0    0  501  502  0.00000000000E+00  0.00000000000E+00  0.36876320425E+03  0.36876320425E+03  0.00000000000E+00 0. -1.
         -1   -1    0    0    0  501 -0.00000000000E+00 -0.00000000000E+00 -0.83824928259E+02  0.83824928259E+02  0.00000000000E+00 0.  1.
         23    2    1    2    0    0 -0.12441182061E+02  0.17421271265E+02 -0.13485862205E+02  0.94792059883E+02  0.91353064721E+02 0.  0.
         23    2    1    2    0    0  0.31946484810E+02  0.32879403226E+02  0.28539612377E+03  0.30229522714E+03  0.88486291839E+02 0.  0.
        -11    1    3    3    0    0  0.30857855967E+02  0.32205105412E+02 -0.19436441027E+02  0.48653379423E+02  0.00000000000E+00 0. -1.
         11    1    3    3    0    0 -0.43299038028E+02 -0.14783834147E+02  0.59505788221E+01  0.46138680460E+02  0.00000000000E+00 0.  1.
        -11    1    4    4    0    0  0.61267585038E+02  0.34202292481E+02  0.20831694826E+03  0.21981688907E+03  0.00000000000E+00 0. -1.
         11    1    4    4    0    0 -0.29321100228E+02 -0.13228892547E+01  0.77079175504E+02  0.82478338071E+02  0.00000000000E+00 0.  1.
         -1    1    1    2    0  502 -0.19505302749E+02 -0.50300674491E+02  0.13028014431E+02  0.55500845486E+02  0.00000000000E+00 0.  1.
<scales pt_clust_5="13000.00000" pt_clust_6="13000.00000" pt_clust_7="13000.00000" pt_clust_8="13000.00000" pt_clust_9="53.95014"></scales>
<clustering>
<clus scale="   53.950">  1  9  2 -1</clus>
<clus scale="   88.486">  7  8 -1 -1</clus>
<clus scale="   90.427">  1  7  2 -1</clus>
<clus scale="   91.353">  5  6 -1 -1</clus>
<clus scale="   53.950">  1  5  2 -1</clus>
</clustering>
</event>
<event>
 9    1  0.1445593E-005  0.1082726E+03  0.7546771E-02  0.1265319E+00
          1   -1    0    0  502    0 -0.00000000000E+00  0.00000000000E+00  0.57281337683E+03  0.57281337683E+03  0.00000000000E+00 0. -1.
         21   -1    0    0  501  502  0.00000000000E+00 -0.00000000000E+00 -0.29730995242E+02  0.29730995242E+02  0.00000000000E+00 0. -1.
         23    2    1    2    0    0  0.29193333389E+02  0.40902443058E+02  0.36283638626E+03  0.37865989354E+03  0.95957340617E+02 0.  0.
         23    2    1    2    0    0 -0.71544658946E+01 -0.53730719339E+02  0.15014073117E+03  0.18443066652E+03  0.92381031665E+02 0.  0.
        -11    1    3    3    0    0  0.20612439939E+02 -0.16668994619E+02  0.27079735304E+02  0.37895120081E+02  0.00000000000E+00 0. -1.
         11    1    3    3    0    0  0.85808934503E+01  0.57571437677E+02  0.33575665096E+03  0.34076477346E+03  0.00000000000E+00 0.  1.
        -13    1    4    4    0    0  0.10499423792E+02 -0.76911083417E+02  0.11556235922E+03  0.13921282814E+03  0.00000000000E+00 0. -1.
         13    1    4    4    0    0 -0.17653889686E+02  0.23180364078E+02  0.34578371956E+02  0.45217838371E+02  0.00000000000E+00 0.  1.
          1    1    1    2  501    0 -0.22038867494E+02  0.12828276281E+02  0.30105264150E+02  0.39453812013E+02  0.00000000000E+00 0. -1.
<scales pt_clust_5="13000.00000" pt_clust_6="13000.00000" pt_clust_7="13000.00000" pt_clust_8="13000.00000" pt_clust_9="25.50052"></scales>
<clustering>
<clus scale="   25.501">  2  9  1 -1</clus>
<clus scale="   92.381">  7  8 -1 -1</clus>
<clus scale="   95.957">  5  6 -1 -1</clus>
<clus scale="  105.116">  2  7  1 -1</clus>
<clus scale="   25.501">  2  5  1 -1</clus>
</clustering>
</event>
<event>
 9    1  0.1445593E-005  0.1234023E+03  0.7546771E-02  0.1238251E+00
         21   -1    0    0  501  502  0.00000000000E+00  0.00000000000E+00  0.29933150380E+03  0.29933150380E+03  0.00000000000E+00 0. -1.
          1   -1    0    0  502    0 -0.00000000000E+00 -0.00000000000E+00 -0.38215017909E+03  0.38215017909E+03  0.00000000000E+00 0. -1.
         23    2    1    2    0    0  0.70877758331E+02 -0.29142220900E+02 -0.30109143656E+03  0.32357849679E+03  0.90410534503E+02 0.  0.
         23    2    1    2    0    0 -0.10495474226E+03  0.54625334942E+02  0.15898535939E+02  0.15110387030E+03  0.92629320604E+02 0.  0.
        -11    1    3    3    0    0  0.90393600848E+02 -0.16493983755E+02 -0.20396947125E+03  0.22371097375E+03  0.00000000000E+00 0.  1.
         11    1    3    3    0    0 -0.19515842517E+02 -0.12648237144E+02 -0.97121965309E+02  0.99867523037E+02  0.00000000000E+00 0. -1.
        -11    1    4    4    0    0 -0.37140081123E+02  0.28967442479E+02  0.51955006331E+02  0.70127177559E+02  0.00000000000E+00 0.  1.
         11    1    4    4    0    0 -0.67814661136E+02  0.25657892463E+02 -0.36056470392E+02  0.80976692744E+02  0.00000000000E+00 0. -1.
          1    1    1    2  501    0  0.34076983927E+02 -0.25483114042E+02  0.20237422533E+03  0.20679931579E+03  0.00000000000E+00 0. -1.
<scales pt_clust_5="13000.00000" pt_clust_6="13000.00000" pt_clust_7="13000.00000" pt_clust_8="13000.00000" pt_clust_9="42.55150"></scales>
<clustering>
<clus scale="   42.551">  1  9  2 -1</clus>
<clus scale="   90.411">  5  6 -1 -1</clus>
<clus scale="   92.629">  7  8 -1 -1</clus>
<clus scale="  121.746">  2  5  1 -1</clus>
<clus scale="   42.551">  1  5  2 -1</clus>
</clustering>
</event>
<event>
 9    1  0.1445593E-005  0.1234910E+03  0.7546771E-02  0.1239051E+00
          1   -1    0    0  502    0 -0.00000000000E+00  0.00000000000E+00  0.18618973302E+03  0.18618973302E+03  0.00000000000E+00 0. -1.
         21   -1    0    0  501  502  0.00000000000E+00 -0.00000000000E+00 -0.15158210032E+03  0.15158210032E+03  0.00000000000E+00 0.  1.
         23    2    1    2    0    0  0.19466056317E+02  0.75348268654E+02  0.11229485852E+03  0.16499512440E+03  0.92503874990E+02 0.  0.
         23    2    1    2    0    0 -0.18446027149E+02 -0.97104082681E+02 -0.72478335527E+02  0.15038277133E+03  0.87134436364E+02 0.  0.
        -11    1    3    3    0    0  0.37459202249E+02  0.46025110163E+02  0.14165298578E+02  0.61009493380E+02  0.00000000000E+00 0.  1.
         11    1    3    3    0    0 -0.17993145932E+02  0.29323158491E+02  0.98129559943E+02  0.10398563102E+03  0.00000000000E+00 0. -1.
        -11    1    4    4    0    0 -0.43886720100E+02 -0.85897339043E+02 -0.75397469758E+02  0.12243028833E+03  0.00000000000E+00 0.  1.
         11    1    4    4    0    0  0.25440692951E+02 -0.11206743638E+02  0.29191342311E+01  0.27952482992E+02  0.00000000000E+00 0. -1.
          1    1    1    2  501    0 -0.10200291676E+01  0.21755814026E+02 -0.52088902929E+01  0.22393937606E+02  0.00000000000E+00 0. -1.
<scales pt_clust_5="13000.00000" pt_clust_6="13000.00000" pt_clust_7="13000.00000" pt_clust_8="13000.00000" pt_clust_9="21.77971"></scales>
<clustering>
<clus scale="   21.780">  2  9  1 -1</clus>
<clus scale="   87.134">  7  8 -1 -1</clus>
<clus scale="   92.504">  5  6 -1 -1</clus>
<clus scale="  119.522">  2  7  1 -1</clus>
<clus scale="   21.780">  2  5  1 -1</clus>
</clustering>
</event>
<event>
 9    1  0.1445593E-005  0.1101578E+03  0.7546771E-02  0.1260319E+00
         21   -1    0    0  501  502  0.00000000000E+00  0.00000000000E+00  0.48933973041E+02  0.48933973041E+02  0.00000000000E+00 0. -1.
          1   -1    0    0  502    0 -0.00000000000E+00 -0.00000000000E+00 -0.62445499669E+03  0.62445499669E+03  0.00000000000E+00 0. -1.
         23    2    1    2    0    0 -0.73244539671E+02 -0.35357033606E+01 -0.46607313466E+03  0.48052494452E+03  0.91119655774E+02 0.  0.
         23    2    1    2    0    0  0.33114381552E+02 -0.98781890286E+01 -0.11430428993E+03  0.15027357171E+03  0.91227927591E+02 0.  0.
        -13    1    3    3    0    0  0.88726645990E+01  0.26384266456E+02 -0.80710745788E+02  0.85376098407E+02  0.00000000000E+00 0.  1.
         13    1    3    3    0    0 -0.82117204270E+02 -0.29919969816E+02 -0.38536238887E+03  0.39514884612E+03  0.00000000000E+00 0. -1.
        -13    1    4    4    0    0 -0.90658229277E+01  0.28350747800E+02 -0.76104628037E+02  0.81718225965E+02  0.00000000000E+00 0.  1.
         13    1    4    4    0    0  0.42180204480E+02 -0.38228936828E+02 -0.38199661897E+02  0.68555345744E+02  0.00000000000E+00 0. -1.
          1    1    1    2  501    0  0.40130158118E+02  0.13413892389E+02  0.48564009384E+01  0.42590453504E+02  0.00000000000E+00 0. -1.
<scales pt_clust_5="13000.00000" pt_clust_6="13000.00000" pt_clust_7="13000.00000" pt_clust_8="13000.00000" pt_clust_9="42.31267"></scales>
<clustering>
<clus scale="   42.313">  1  9  2 -1</clus>
<clus scale="   91.120">  5  6 -1 -1</clus>
<clus scale="   91.228">  7  8 -1 -1</clus>
<clus scale="  110.068">  2  5  1 -1</clus>
<clus scale="   42.313">  1  5  2 -1</clus>
</clustering>
</event>
<event>
 9    1  0.1445593E-005  0.1357085E+03  0.7546771E-02  0.1219623E+00
         21   -1    0    0  501  502  0.00000000000E+00  0.00000000000E+00  0.25418142251E+03  0.25418142251E+03  0.00000000000E+00 0. -1.
         -1   -1    0    0    0  501 -0.00000000000E+00 -0.00000000000E+00 -0.33627333962E+03  0.33627333962E+03  0.00000000000E+00 0.  1.
         23    2    1    2    0    0  0.83634429846E+02 -0.59440750187E+02 -0.27202144703E+03  0.30409143625E+03  0.89151631046E+02 0.  0.
         23    2    1    2    0    0 -0.31486662523E+02  0.87985247658E+02  0.18555101000E+03  0.22675334846E+03  0.90857525840E+02 0.  0.
        -11    1    3    3    0    0  0.44347505695E+02 -0.57570059126E+02 -0.24701690519E+03  0.25748468774E+03  0.00000000000E+00 0.  1.
         11    1    3    3    0    0  0.39286924151E+02 -0.18706910609E+01 -0.25004541836E+02  0.46606748511E+02  0.00000000000E+00 0. -1.
        -11    1    4    4    0    0 -0.59701913073E+02  0.54416905767E+02  0.14973001421E+03  0.17013111183E+03  0.00000000000E+00 0. -1.
         11    1    4    4    0    0  0.28215250550E+02  0.33568341891E+02  0.35820995790E+02  0.56622236624E+02  0.00000000000E+00 0.  1.
         -1    1    1    2    0  502 -0.52147767323E+02 -0.28544497471E+02  0.43785199123E+01  0.59609977431E+02  0.00000000000E+00 0.  1.
<scales pt_clust_5="13000.00000" pt_clust_6="13000.00000" pt_clust_7="13000.00000" pt_clust_8="13000.00000" pt_clust_9="59.44895"></scales>
<clustering>
<clus scale="   59.449">  1  9  2 -1</clus>
<clus scale="   89.152">  5  6 -1 -1</clus>
<clus scale="   90.858">  7  8 -1 -1</clus>
<clus scale="  134.572">  2  5  1 -1</clus>
<clus scale="   59.449">  1  5  2 -1</clus>
</clustering>
</event>
<event>
 9    1  0.1445593E-005  0.9993572E+02  0.7546771E-02  0.1285501E+00
          2   -1    0    0  502    0 -0.00000000000E+00  0.00000000000E+00  0.17053283176E+03  0.17053283176E+03  0.00000000000E+00 0. -1.
         21   -1    0    0  501  502  0.00000000000E+00 -0.00000000000E+00 -0.93966907755E+02  0.93966907755E+02  0.00000000000E+00 0.  1.
         23    2    1    2    0    0 -0.78851867360E+01 -0.11094709122E+02  0.45468990882E+02  0.10495593846E+03  0.93611169987E+02 0.  0.
         23    2    1    2    0    0  0.44325949473E+02  0.40814118940E+02  0.41769926064E+02  0.11132466287E+03  0.83772738630E+02 0.  0.
        -11    1    3    3    0    0 -0.31191630878E+01  0.39503159425E+02  0.49009067646E+01  0.39928031132E+02  0.00000000000E+00 0. -1.
         11    1    3    3    0    0 -0.47660236481E+01 -0.50597868547E+02  0.40568084118E+02  0.65027907331E+02  0.00000000000E+00 0.  1.
        -13    1    4    4    0    0  0.23023438367E+02  0.96387453704E+01 -0.24549681427E+02  0.35009584184E+02  0.00000000000E+00 0.  1.
         13    1    4    4    0    0  0.21302511106E+02  0.31175373570E+02  0.66319607492E+02  0.76315078683E+02  0.00000000000E+00 0. -1.
          2    1    1    2  501    0 -0.36440762737E+02 -0.29719409819E+02 -0.10672992943E+02  0.48219138184E+02  0.00000000000E+00 0. -1.
<scales pt_clust_5="13000.00000" pt_clust_6="13000.00000" pt_clust_7="13000.00000" pt_clust_8="13000.00000" pt_clust_9="47.02311"></scales>
<clustering>
<clus scale="   47.023">  2  9  1 -1</clus>
<clus scale="   83.773">  7  8 -1 -1</clus>
<clus scale="   90.785">  2  7  1 -1</clus>
<clus scale="   93.611">  5  6 -1 -1</clus>
<clus scale="   47.023">  2  5  1 -1</clus>
</clustering>
</event>
<event>
 9    1  0.1445593E-005  0.1824781E+03  0.7546771E-02  0.1165499E+00
         21   -1    0    0  501  502  0.00000000000E+00  0.00000000000E+00  0.18355402729E+03  0.18355402729E+03  0.00000000000E+00 0.  1.
          1   -1    0    0  502    0 -0.00000000000E+00 -0.00000000000E+00 -0.69002015648E+03  0.69002015648E+03  0.00000000000E+00 0. -1.
         23    2    1    2    0    0  0.75469885808E+02 -0.13009181061E+03 -0.40184450107E+03  0.43862540301E+03  0.91069524355E+02 0.  0.
         23    2    1    2    0    0 -0.22115834655E+03  0.10561654971E+03 -0.13955895218E+02  0.26161545705E+03  0.90454466627E+02 0.  0.
        -11    1    4    4    0    0 -0.96528879090E+02  0.36318276870E+02  0.37901732786E+02  0.10987894740E+03  0.00000000000E+00 0.  1.
         11    1    4    4    0    0 -0.12462946746E+03  0.69298272838E+02 -0.51857628004E+02  0.15173650965E+03  0.00000000000E+00 0. -1.
        -13    1    3    3    0    0  0.35386332352E+02 -0.10741859027E+03 -0.35644796124E+03  0.37396001808E+03  0.00000000000E+00 0. -1.
         13    1    3    3    0    0  0.40083553456E+02 -0.22673220338E+02 -0.45396539836E+02  0.64665384923E+02  0.00000000000E+00 0.  1.
          1    1    1    2  501    0  0.14568846075E+03  0.24475260901E+02 -0.90665732892E+02  0.17333332372E+03  0.00000000000E+00 0. -1.
<scales pt_clust_5="13000.00000" pt_clust_6="13000.00000" pt_clust_7="13000.00000" pt_clust_8="13000.00000" pt_clust_9="147.73004"></scales>
<clustering>
<clus scale="   90.454">  5  6 -1 -1</clus>
<clus scale="   91.070">  7  8 -1 -1</clus>
<clus scale="  147.730">  1  9  2 -1</clus>
<clus scale="  182.172">  1  5  2 -1</clus>
<clus scale="  147.730">  1  5  2 -1</clus>
</clustering>
</event>
<event>
 9    1  0.1445593E-005  0.1918385E+03  0.7546771E-02  0.1158469E+00
         21   -1    0    0  501  502  0.00000000000E+00  0.00000000000E+00  0.88317827994E+03  0.88317827994E+03  0.00000000000E+00 0.  1.
          1   -1    0    0  502    0 -0.00000000000E+00 -0.00000000000E+00 -0.83603675191E+02  0.83603675191E+02  0.00000000000E+00 0. -1.
         23    2    1    2    0    0  0.70197448574E+02  0.11347562044E+03  0.35429880355E+03  0.38881085816E+03  0.88554181183E+02 0.  0.
         23    2    1    2    0    0 -0.17507210448E+03 -0.10669147940E+03  0.40495497652E+03  0.46540783954E+03  0.10287181612E+03 0.  0.
        -11    1    4    4    0    0 -0.90971799354E+02 -0.91411605268E+02  0.31947382163E+03  0.34452209300E+03  0.00000000000E+00 0.  1.
         11    1    4    4    0    0 -0.84100305127E+02 -0.15279874134E+02  0.85481154893E+02  0.12088574655E+03  0.00000000000E+00 0. -1.
        -11    1    3    3    0    0  0.65638679515E+02  0.67448005540E+02  0.31286248688E+03  0.32671180786E+03  0.00000000000E+00 0. -1.
         11    1    3    3    0    0  0.45587690598E+01  0.46027614899E+02  0.41436316671E+02  0.62099050298E+02  0.00000000000E+00 0.  1.
          1    1    1    2  501    0  0.10487465591E+03 -0.67841410369E+01  0.40320824677E+02  0.11256325743E+03  0.00000000000E+00 0. -1.
<scales pt_clust_5="13000.00000" pt_clust_6="13000.00000" pt_clust_7="13000.00000" pt_clust_8="13000.00000" pt_clust_9="105.09391"></scales>
<clustering>
<clus scale="   88.554">  7  8 -1 -1</clus>
<clus scale="  102.872">  5  6 -1 -1</clus>
<clus scale="  105.094">  1  9  2 -1</clus>
<clus scale="  184.557">  2  7  1 -1</clus>
<clus scale="  105.094">  1  5  2 -1</clus>
</clustering>
</event>
<event>
 9    1  0.1445593E-005  0.1468835E+03  0.7546771E-02  0.1204849E+00
          1   -1    0    0  502    0 -0.00000000000E+00  0.00000000000E+00  0.72907383925E+03  0.72907383925E+03  0.00000000000E+00 0. -1.
         21   -1    0    0  501  502  0.00000000000E+00 -0.00000000000E+00 -0.45857497308E+02  0.45857497308E+02  0.00000000000E+00 0.  1.
         23    2    1    2    0    0  0.10397442756E+03 -0.14104366011E+02  0.36670877270E+03  0.39176723908E+03  0.89423883354E+02 0.  0.
         23    2    1    2    0    0 -0.13522589277E+03 -0.24835426841E+02  0.25507376513E+03  0.30399924523E+03  0.91924289162E+02 0.  0.
        -11    1    3    3    0    0  0.42526905336E+02 -0.18058697896E+02  0.45985926287E+02  0.65187112711E+02  0.00000000000E+00 0.  1.
         11    1    3    3    0    0  0.61447522226E+02  0.39543318847E+01  0.32072284641E+03  0.32658012637E+03  0.00000000000E+00 0. -1.
        -13    1    4    4    0    0 -0.20188255773E+02  0.24324214892E+02  0.99299280658E+02  0.10420930976E+03  0.00000000000E+00 0. -1.
         13    1    4    4    0    0 -0.11503763699E+03 -0.49159641733E+02  0.15577448448E+03  0.19978993547E+03  0.00000000000E+00 0.  1.
          1    1    1    2  501    0  0.31251465205E+02  0.38939792852E+02  0.61433804116E+02  0.79164852257E+02  0.00000000000E+00 0. -1.
<scales pt_clust_5="13000.00000" pt_clust_6="13000.00000" pt_clust_7="13000.00000" pt_clust_8="13000.00000" pt_clust_9="49.92957"></scales>
<clustering>
<clus scale="   49.930">  2  9  1 -1</clus>
<clus scale="   89.424">  5  6 -1 -1</clus>
<clus scale="   91.924">  7  8 -1 -1</clus>
<clus scale="  145.332">  1  5  2 -1</clus>
<clus scale="   49.930">  2  5  1 -1</clus>
</clustering>
</event>
<event>
 9    1  0.1445593E-005  0.1078049E+03  0.7546771E-02  0.1264909E+00
          1   -1    0    0  502    0 -0.00000000000E+00  0.00000000000E+00  0.29991670642E+03  0.29991670642E+03  0.00000000000E+00 0. -1.
         21   -1    0    0  501  502  0.00000000000E+00 -0.00000000000E+00 -0.11309423356E+03  0.11309423356E+03  0.00000000000E+00 0. -1.
         23    2    1    2    0    0 -0.58269081218E+02 -0.19851092387E+02  0.24557596724E+03  0.26836977420E+03  0.89024874744E+02 0.  0.
         23    2    1    2    0    0  0.41045388552E+02  0.34210637897E+02 -0.30705728075E+02  0.10873114863E+03  0.89579736987E+02 0.  0.
        -11    1    4    4    0    0  0.67838165672E+02  0.35593989441E+02 -0.16469037662E+02  0.78359287947E+02  0.00000000000E+00 0.  1.
         11    1    4    4    0    0 -0.26792777120E+02 -0.13833515442E+01 -0.14236690412E+02  0.30371860681E+02  0.00000000000E+00 0. -1.
        -13    1    3    3    0    0  0.14439995194E+02  0.19761717450E+02  0.42187256410E+02  0.48772979622E+02  0.00000000000E+00 0.  1.
         13    1    3    3    0    0 -0.72709076412E+02 -0.39612809837E+02  0.20338871083E+03  0.21959679458E+03  0.00000000000E+00 0. -1.
          1    1    1    2  501    0  0.17223692666E+02 -0.14359545510E+02 -0.28047766313E+02  0.35910017146E+02  0.00000000000E+00 0. -1.
<scales pt_clust_5="13000.00000" pt_clust_6="13000.00000" pt_clust_7="13000.00000" pt_clust_8="13000.00000" pt_clust_9="22.42436"></scales>
<clustering>
<clus scale="   22.424">  2  9  1 -1</clus>
<clus scale="   89.025">  7  8 -1 -1</clus>
<clus scale="   89.580">  5  6 -1 -1</clus>
<clus scale="  107.344">  1  7  2 -1</clus>
<clus scale="   22.424">  2  5  1 -1</clus>
</clustering>
</event>
<event>
 9    1  0.1445593E-005  0.1040515E+03  0.7546771E-02  0.1274042E+00
          1   -1    0    0  502    0 -0.00000000000E+00  0.00000000000E+00  0.66684819339E+03  0.66684819339E+03  0.00000000000E+00 0. -1.
         21   -1    0    0  501  502  0.00000000000E+00 -0.00000000000E+00 -0.31912161606E+02  0.31912161606E+02  0.00000000000E+00 0. -1.
         23    2    1    2    0    0 -0.54469572911E+02 -0.17466428190E+01  0.50920681301E+03  0.52048660055E+03  0.92977082130E+02 0.  0.
         23    2    1    2    0    0  0.23845512215E+02  0.45032611528E+01  0.11152111927E+03  0.14440190581E+03  0.88465035727E+02 0.  0.
        -11    1    3    3    0    0 -0.60424652701E+02  0.35431112674E+02  0.34024831895E+03  0.34738367974E+03  0.00000000000E+00 0.  1.
         11    1    3    3    0    0  0.59550797897E+01 -0.37177755493E+02  0.16895849406E+03  0.17310292081E+03  0.00000000000E+00 0. -1.
        -11    1    4    4    0    0  0.56481126254E+02 -0.73936893488E+01  0.71161504208E+02  0.91152311799E+02  0.00000000000E+00 0.  1.
         11    1    4    4    0    0 -0.32635614040E+02  0.11896950502E+02  0.40359615057E+02  0.53249594013E+02  0.00000000000E+00 0. -1.
          1    1    1    2  501    0  0.30624060697E+02 -0.27566183338E+01  0.14208099507E+02  0.33871848633E+02  0.00000000000E+00 0. -1.
<scales pt_clust_5="13000.00000" pt_clust_6="13000.00000" pt_clust_7="13000.00000" pt_clust_8="13000.00000" pt_clust_9="30.74788"></scales>
<clustering>
<clus scale="   30.748">  2  9  1 -1</clus>
<clus scale="   88.465">  7  8 -1 -1</clus>
<clus scale="   92.977">  5  6 -1 -1</clus>
<clus scale="  100.040">  2  7  1 -1</clus>
<clus scale="   30.748">  2  5  1 -1</clus>
</clustering>
</event>
<event>
 9    1  0.1445593E-005  0.1108814E+03  0.7546771E-02  0.1260670E+00
         21   -1    0    0  501  502  0.00000000000E+00  0.00000000000E+00  0.34156606347E+03  0.34156606347E+03  0.00000000000E+00 0.  1.
          2   -1    0    0  502    0 -0.00000000000E+00 -0.00000000000E+00 -0.88388383902E+02  0.88388383902E+02  0.00000000000E+00 0. -1.
         23    2    1    2    0    0 -0.28162932200E+02 -0.51206084034E+02 -0.27741991622E+02  0.11249008047E+03  0.92028182169E+02 0.  0.
         23    2    1    2    0    0  0.50296611954E+02  0.62191476359E+02  0.19654241272E+03  0.22954337754E+03  0.87542636851E+02 0.  0.
        -11    1    3    3    0    0 -0.26653816275E+02 -0.62037594843E+01  0.29118564065E+02  0.39960021608E+02  0.00000000000E+00 0.  1.
         11    1    3    3    0    0 -0.15091159253E+01 -0.45002324549E+02 -0.56860555687E+02  0.72530058864E+02  0.00000000000E+00 0. -1.
        -13    1    4    4    0    0  0.52341899649E+02  0.15937551195E+02  0.44249845923E+02  0.70368521806E+02  0.00000000000E+00 0.  1.
         13    1    4    4    0    0 -0.20452876945E+01  0.46253925164E+02  0.15229256680E+03  0.15917485573E+03  0.00000000000E+00 0. -1.
          2    1    1    2  501    0 -0.22133679754E+02 -0.10985392325E+02  0.84377258461E+02  0.87920989357E+02  0.00000000000E+00 0. -1.
<scales pt_clust_5="13000.00000" pt_clust_6="13000.00000" pt_clust_7="13000.00000" pt_clust_8="13000.00000" pt_clust_9="24.70989"></scales>
<clustering>
<clus scale="   24.710">  1  9  2 -1</clus>
<clus scale="   87.543">  7  8 -1 -1</clus>
<clus scale="   92.028">  5  6 -1 -1</clus>
<clus scale="  107.188">  1  7  2 -1</clus>
<clus scale="   24.710">  1  5  2 -1</clus>
</clustering>
</event>
<event>
 9    1  0.1445593E-005  0.1229095E+03  0.7546771E-02  0.1242656E+00
          1   -1    0    0  502    0 -0.00000000000E+00  0.00000000000E+00  0.44830293764E+03  0.44830293764E+03  0.00000000000E+00 0. -1.
         21   -1    0    0  501  502  0.00000000000E+00 -0.00000000000E+00 -0.87108541512E+02  0.87108541512E+02  0.00000000000E+00 0. -1.
         23    2    1    2    0    0 -0.59477300204E+02 -0.24144676458E+00  0.25350286569E+03  0.27559319719E+03  0.90279011345E+02 0.  0.
         23    2    1    2    0    0  0.85184580378E+02 -0.20811421651E+01  0.15583202877E+03  0.20519442040E+03  0.10276373429E+03 0.  0.
        -11    1    3    3    0    0 -0.74772205897E+01 -0.34459515922E+02  0.40590151635E+02  0.53767345807E+02  0.00000000000E+00 0. -1.
         11    1    3    3    0    0 -0.52000079614E+02  0.34218069157E+02  0.21291271405E+03  0.22182585139E+03  0.00000000000E+00 0.  1.
        -13    1    4    4    0    0  0.49984583492E+02 -0.10698639256E+02  0.16069584132E+03  0.16862998810E+03  0.00000000000E+00 0. -1.
         13    1    4    4    0    0  0.35199996886E+02  0.86174970914E+01 -0.48638125501E+01  0.36564432300E+02  0.00000000000E+00 0.  1.
          1    1    1    2  501    0 -0.25707280174E+02  0.23225889296E+01 -0.48140498326E+02  0.54623861566E+02  0.00000000000E+00 0. -1.
<scales pt_clust_5="13000.00000" pt_clust_6="13000.00000" pt_clust_7="13000.00000" pt_clust_8="13000.00000" pt_clust_9="25.81199"></scales>
<clustering>
<clus scale="   25.812">  2  9  1 -1</clus>
<clus scale="   90.279">  5  6 -1 -1</clus>
<clus scale="  102.764">  7  8 -1 -1</clus>
<clus scale="  112.679">  1  5  2 -1</clus>
<clus scale="   25.812">  2  5  1 -1</clus>
</clustering>
</event>
<event>
 9    1  0.1445593E-005  0.1445445E+03  0.7546771E-02  0.1207481E+00
          2   -1    0    0  502    0 -0.00000000000E+00  0.00000000000E+00  0.32363678363E+03  0.32363678363E+03  0.00000000000E+00 0. -1.
         21   -1    0    0  501  502  0.00000000000E+00 -0.00000000000E+00 -0.92924616763E+02  0.92924616763E+02  0.00000000000E+00 0. -1.
         23    2    1    2    0    0 -0.43729951665E+02 -0.96227850661E+02  0.15319296315E+03  0.20649852421E+03  0.89450816796E+02 0.  0.
         23    2    1    2    0    0  0.78730048451E+02  0.10372056638E+03  0.74008169210E+02  0.17409796374E+03  0.88749734921E+02 0.  0.
        -13    1    3    3    0    0  0.25724703698E+02 -0.15816469823E+02  0.49808215710E+02  0.58247570338E+02  0.00000000000E+00 0.  1.
         13    1    3    3    0    0 -0.69454655363E+02 -0.80411380838E+02  0.10338474744E+03  0.14825095387E+03  0.00000000000E+00 0. -1.
        -13    1    4    4    0    0  0.73178048680E+02  0.73363315875E+02  0.11334840295E+02  0.10423857985E+03  0.00000000000E+00 0. -1.
         13    1    4    4    0    0  0.55519997709E+01  0.30357250504E+02  0.62673328916E+02  0.69859383886E+02  0.00000000000E+00 0.  1.
          2    1    1    2  501    0 -0.35000096786E+02 -0.74927157174E+01  0.35110345007E+01  0.35964912444E+02  0.00000000000E+00 0. -1.
<scales pt_clust_5="13000.00000" pt_clust_6="13000.00000" pt_clust_7="13000.00000" pt_clust_8="13000.00000" pt_clust_9="35.79312"></scales>
<clustering>
<clus scale="   35.793">  2  9  1 -1</clus>
<clus scale="   88.750">  7  8 -1 -1</clus>
<clus scale="   89.451">  5  6 -1 -1</clus>
<clus scale="  144.112">  2  7  1 -1</clus>
<clus scale="   35.793">  2  5  1 -1</clus>
</clustering>
</event>
<event>
 9    1  0.1445593E-005  0.1128903E+03  0.7546771E-02  0.1255493E+00
         21   -1    0    0  501  502  0.00000000000E+00  0.00000000000E+00  0.27276817857E+03  0.27276817857E+03  0.00000000000E+00 0. -1.
         -1   -1    0    0    0  501 -0.00000000000E+00 -0.00000000000E+00 -0.58528366467E+02  0.58528366467E+02  0.00000000000E+00 0.  1.
         23    2    1    2    0    0  0.11122452158E+02  0.51387879083E+02  0.90653966125E+02  0.14066730292E+03  0.93833498699E+02 0.  0.
         23    2    1    2    0    0  0.14431980697E+01 -0.73565993078E+02  0.10314297307E+03  0.15795394015E+03  0.94323571587E+02 0.  0.
        -13    1    3    3    0    0  0.13065331120E+01  0.75047205974E+02  0.42838155675E+02  0.86422784813E+02  0.00000000000E+00 0. -1.
         13    1    3    3    0    0  0.98159190455E+01 -0.23659326891E+02  0.47815810450E+02  0.54244518107E+02  0.00000000000E+00 0.  1.
        -13    1    4    4    0    0  0.29005674959E+02  0.96446123528E+01  0.37853852005E+02  0.48654515092E+02  0.00000000000E+00 0.  1.
         13    1    4    4    0    0 -0.27562476889E+02 -0.83210605431E+02  0.65289121061E+02  0.10929942506E+03  0.00000000000E+00 0. -1.
         -1    1    1    2    0  502 -0.12565650227E+02  0.22178113996E+02  0.20442872915E+02  0.32675301974E+02  0.00000000000E+00 0.  1.
<scales pt_clust_5="13000.00000" pt_clust_6="13000.00000" pt_clust_7="13000.00000" pt_clust_8="13000.00000" pt_clust_9="25.49049"></scales>
<clustering>
<clus scale="   25.490">  1  9  2 -1</clus>
<clus scale="   93.833">  5  6 -1 -1</clus>
<clus scale="   94.324">  7  8 -1 -1</clus>
<clus scale="  112.481">  2  5  1 -1</clus>
<clus scale="   25.490">  1  5  2 -1</clus>
</clustering>
</event>
<event>
 9    1  0.1445593E-005  0.9953143E+02  0.7546771E-02  0.1284484E+00
          1   -1    0    0  502    0 -0.00000000000E+00  0.00000000000E+00  0.15317690653E+03  0.15317690653E+03  0.00000000000E+00 0. -1.
         21   -1    0    0  501  502  0.00000000000E+00 -0.00000000000E+00 -0.10730340671E+03  0.10730340671E+03  0.00000000000E+00 0.  1.
         23    2    1    2    0    0 -0.17552301488E+02 -0.26170780259E+02  0.87068355339E+02  0.12751914899E+03  0.87676917326E+02 0.  0.
         23    2    1    2    0    0  0.39105060849E+02  0.17719601910E+02 -0.34399940812E+02  0.10883411060E+03  0.93905897722E+02 0.  0.
        -11    1    4    4    0    0  0.93983073100E+00 -0.36346009754E+02 -0.61366976322E+01  0.36872411973E+02  0.00000000000E+00 0.  1.
         11    1    4    4    0    0  0.38165230118E+02  0.54065611665E+02 -0.28263243180E+02  0.71961698630E+02  0.00000000000E+00 0. -1.
        -11    1    3    3    0    0  0.18595899784E+02 -0.18209194051E+02 -0.65592784992E+01  0.26840386942E+02  0.00000000000E+00 0.  1.
         11    1    3    3    0    0 -0.36148201272E+02 -0.79615862077E+01  0.93627633838E+02  0.10067876205E+03  0.00000000000E+00 0. -1.
          1    1    1    2  501    0 -0.21552759361E+02  0.84511783483E+01 -0.67949147009E+01  0.24127053640E+02  0.00000000000E+00 0. -1.
<scales pt_clust_5="13000.00000" pt_clust_6="13000.00000" pt_clust_7="13000.00000" pt_clust_8="13000.00000" pt_clust_9="23.15046"></scales>
<clustering>
<clus scale="   23.150">  2  9  1 -1</clus>
<clus scale="   87.677">  7  8 -1 -1</clus>
<clus scale="   93.677">  1  7  2 -1</clus>
<clus scale="   93.906">  5  6 -1 -1</clus>
<clus scale="   23.150">  2  5  1 -1</clus>
</clustering>
</event>
<event>
 9    1  0.1445593E-005  0.1126627E+03  0.7546771E-02  0.1256885E+00
         21   -1    0    0  501  502  0.00000000000E+00  0.00000000000E+00  0.52633414569E+02  0.52633414569E+02  0.00000000000E+00 0.  1.
         -1   -1    0    0    0  501 -0.00000000000E+00 -0.00000000000E+00 -0.63035685462E+03  0.63035685462E+03  0.00000000000E+00 0.  1.
         23    2    1    2    0    0  0.11833532328E+02  0.63908450318E+02 -0.38145844001E+03  0.39710389463E+03  0.89199995311E+02 0.  0.
         23    2    1    2    0    0  0.56385964353E+02 -0.64785361822E+02 -0.17240224030E+03  0.21360843876E+03  0.92355360243E+02 0.  0.
        -11    1    4    4    0    0  0.25141462396E+02 -0.81528348366E+02 -0.14711988689E+03  0.17006829757E+03  0.00000000000E+00 0.  1.
         11    1    4    4    0    0  0.31244501957E+02  0.16742986544E+02 -0.25282353409E+02  0.43540141190E+02  0.00000000000E+00 0. -1.
        -13    1    3    3    0    0  0.36202863647E+02  0.74442418763E+02 -0.26358689926E+03  0.27627952242E+03  0.00000000000E+00 0.  1.
         13    1    3    3    0    0 -0.24369331320E+02 -0.10533968445E+02 -0.11787154076E+03  0.12082437221E+03  0.00000000000E+00 0. -1.
         -1    1    1    2    0  502 -0.68219496680E+02  0.87691150393E+00 -0.23862759735E+02  0.72277935798E+02  0.00000000000E+00 0.  1.
<scales pt_clust_5="13000.00000" pt_clust_6="13000.00000" pt_clust_7="13000.00000" pt_clust_8="13000.00000" pt_clust_9="68.22513"></scales>
<clustering>
<clus scale="   68.225">  1  9  2 -1</clus>
<clus scale="   89.200">  7  8 -1 -1</clus>
<clus scale="   92.355">  5  6 -1 -1</clus>
<clus scale="  110.091">  2  7  1 -1</clus>
<clus scale="   68.225">  1  5  2 -1</clus>
</clustering>
</event>
<event>
 9    1  0.1445593E-005  0.1099902E+03  0.7546771E-02  0.1260684E+00
         21   -1    0    0  501  502  0.00000000000E+00  0.00000000000E+00  0.22047049889E+03  0.22047049889E+03  0.00000000000E+00 0. -1.
          3   -1    0    0  502    0 -0.00000000000E+00 -0.00000000000E+00 -0.17739565503E+03  0.17739565503E+03  0.00000000000E+00 0. -1.
         23    2    1    2    0    0 -0.57053008303E+02 -0.10737082957E+02 -0.10484215548E+03  0.15083236384E+03  0.91587082656E+02 0.  0.
         23    2    1    2    0    0  0.82112103390E+02 -0.49429367589E+02  0.92842205426E+02  0.16170388357E+03  0.91338989212E+02 0.  0.
        -11    1    4    4    0    0  0.37974350132E+02 -0.62313689763E+02  0.20173045301E+02  0.75709966032E+02  0.00000000000E+00 0. -1.
         11    1    4    4    0    0  0.44137753258E+02  0.12884322174E+02  0.72669160125E+02  0.85993917540E+02  0.00000000000E+00 0.  1.
        -13    1    3    3    0    0 -0.32788532216E+02  0.26584533253E+02 -0.96789833520E+02  0.10559402031E+03  0.00000000000E+00 0.  1.
         13    1    3    3    0    0 -0.24264476087E+02 -0.37321616210E+02 -0.80523219624E+01  0.45238343529E+02  0.00000000000E+00 0. -1.
          3    1    1    2  501    0 -0.25059095087E+02  0.60166450546E+02  0.55074793922E+02  0.85329906500E+02  0.00000000000E+00 0. -1.
<scales pt_clust_5="13000.00000" pt_clust_6="13000.00000" pt_clust_7="13000.00000" pt_clust_8="13000.00000" pt_clust_9="65.17638"></scales>
<clustering>
<clus scale="   65.176">  1  9  2 -1</clus>
<clus scale="   91.339">  5  6 -1 -1</clus>
<clus scale="   91.587">  7  8 -1 -1</clus>
<clus scale="  109.784">  1  5  2 -1</clus>
<clus scale="   65.176">  1  5  2 -1</clus>
</clustering>
</event>
<event>
 9    1  0.1445593E-005  0.1067404E+03  0.7546771E-02  0.1266841E+00
         21   -1    0    0  501  502  0.00000000000E+00  0.00000000000E+00  0.42731527768E+02  0.42731527768E+02  0.00000000000E+00 0. -1.
          1   -1    0    0  502    0 -0.00000000000E+00 -0.00000000000E+00 -0.64191568809E+03  0.64191568809E+03  0.00000000000E+00 0. -1.
         23    2    1    2    0    0  0.86442527296E+02  0.27837449700E+02 -0.31509875279E+03  0.34047628398E+03  0.91594987926E+02 0.  0.
         23    2    1    2    0    0 -0.20280286897E+02  0.35355934773E+02 -0.17490385781E+03  0.20172284767E+03  0.91866292151E+02 0.  0.
        -11    1    3    3    0    0  0.16650912251E+02  0.30397793381E+02 -0.26725632157E+02  0.43766861156E+02  0.00000000000E+00 0.  1.
         11    1    3    3    0    0  0.69791615045E+02 -0.25603436809E+01 -0.28837312063E+03  0.29670942283E+03  0.00000000000E+00 0. -1.
        -13    1    4    4    0    0 -0.40304881259E+02  0.51561499818E+02 -0.15771404308E+03  0.17075359762E+03  0.00000000000E+00 0.  1.
         13    1    4    4    0    0  0.20024594363E+02 -0.16205565045E+02 -0.17189814734E+02  0.30969250046E+02  0.00000000000E+00 0. -1.
          1    1    1    2  501    0 -0.66162240399E+02 -0.63193384473E+02 -0.10918154972E+03  0.14244808421E+03  0.00000000000E+00 0. -1.
<scales pt_clust_5="13000.00000" pt_clust_6="13000.00000" pt_clust_7="13000.00000" pt_clust_8="13000.00000" pt_clust_9="91.49233"></scales>
<clustering>
<clus scale="   91.492">  1  9  2 -1</clus>
<clus scale="   91.595">  5  6 -1 -1</clus>
<clus scale="   91.866">  7  8 -1 -1</clus>
<clus scale="  106.507">  2  5  1 -1</clus>
<clus scale="   91.492">  1  5  2 -1</clus>
</clustering>
</event>
<event>
 9    1  0.1445593E-005  0.9235360E+02  0.7546771E-02  0.1298016E+00
          2   -1    0    0  502    0 -0.00000000000E+00  0.00000000000E+00  0.60064034470E+03  0.60064034470E+03  0.00000000000E+00 0. -1.
         21   -1    0    0  501  502  0.00000000000E+00 -0.00000000000E+00 -0.22329271284E+02  0.22329271284E+02  0.00000000000E+00 0.  1.
         23    2    1    2    0    0  0.17372577158E+02 -0.50725530065E+01  0.33405960759E+03  0.34666240488E+03  0.90837570978E+02 0.  0.
         23    2    1    2    0    0  0.15768724349E+02 -0.60417089793E+01  0.16607931227E+03  0.19067568492E+03  0.92139697965E+02 0.  0.
        -11    1    4    4    0    0 -0.19851729685E+02 -0.38235557028E+02  0.56601101730E+02  0.71131805191E+02  0.00000000000E+00 0. -1.
         11    1    4    4    0    0  0.35620454034E+02  0.32193848049E+02  0.10947821054E+03  0.11954387973E+03  0.00000000000E+00 0.  1.
        -11    1    3    3    0    0 -0.27029489899E+02 -0.22787997581E+02  0.71236059624E+02  0.79526488346E+02  0.00000000000E+00 0. -1.
         11    1    3    3    0    0  0.44402067057E+02  0.17715444575E+02  0.26282354797E+03  0.26713591654E+03  0.00000000000E+00 0.  1.
          2    1    1    2  501    0 -0.33141301507E+02  0.11114261986E+02  0.78172153554E+02  0.85631526182E+02  0.00000000000E+00 0. -1.
<scales pt_clust_5="13000.00000" pt_clust_6="13000.00000" pt_clust_7="13000.00000" pt_clust_8="13000.00000" pt_clust_9="34.95530"></scales>
<clustering>
<clus scale="   34.955">  2  9  1 -1</clus>
<clus scale="   90.838">  7  8 -1 -1</clus>
<clus scale="   91.055">  1  7  2 -1</clus>
<clus scale="   92.140">  5  6 -1 -1</clus>
<clus scale="   34.955">  2  5  1 -1</clus>
</clustering>
</event>
<event>
 9    1  0.1445593E-005  0.1086880E+03  0.7546771E-02  0.1264058E+00
          2   -1    0    0  502    0 -0.00000000000E+00  0.00000000000E+00  0.71363547158E+03  0.71363547158E+03  0.00000000000E+00 0. -1.
         21   -1    0    0  501  502  0.00000000000E+00 -0.00000000000E+00 -0.33742859040E+02  0.33742859040E+02  0.00000000000E+00 0. -1.
         23    2    1    2    0    0  0.21663663024E+02 -0.59072472505E+02  0.47801787815E+03  0.49056354213E+03  0.90513124668E+02 0.  0.
         23    2    1    2    0    0  0.40531291523E+01  0.57977305199E+02  0.20538918987E+03  0.23083587033E+03  0.87878802566E+02 0.  0.
        -13    1    4    4    0    0 -0.20791551157E+02 -0.48392861125E+01  0.90238434065E+01  0.23176217108E+02  0.00000000000E+00 0.  1.
         13    1    4    4    0    0  0.24844680309E+02  0.62816591311E+02  0.19636534647E+03  0.20765965322E+03  0.00000000000E+00 0. -1.
        -13    1    3    3    0    0 -0.24542321245E+02  0.10315629775E+02  0.13031955552E+03  0.13301099316E+03  0.00000000000E+00 0.  1.
         13    1    3    3    0    0  0.46205984270E+02 -0.69388102281E+02  0.34769832263E+03  0.35755254898E+03  0.00000000000E+00 0. -1.
          2    1    1    2  501    0 -0.25716792177E+02  0.10951673066E+01 -0.35144554814E+01  0.25978918157E+02  0.00000000000E+00 0. -1.
<scales pt_clust_5="13000.00000" pt_clust_6="13000.00000" pt_clust_7="13000.00000" pt_clust_8="13000.00000" pt_clust_9="25.74010"></scales>
<clustering>
<clus scale="   25.740">  2  9  1 -1</clus>
<clus scale="   87.879">  5  6 -1 -1</clus>
<clus scale="   90.513">  7  8 -1 -1</clus>
<clus scale="  106.504">  2  5  1 -1</clus>
<clus scale="   25.740">  2  5  1 -1</clus>
</clustering>
</event>
<event>
 9    1  0.1445593E-005  0.1012366E+03  0.7546771E-02  0.1277842E+00
         21   -1    0    0  501  502  0.00000000000E+00  0.00000000000E+00  0.31248924335E+03  0.31248924335E+03  0.00000000000E+00 0.  1.
         -1   -1    0    0    0  501 -0.00000000000E+00 -0.00000000000E+00 -0.66770446159E+02  0.66770446159E+02  0.00000000000E+00 0.  1.
         23    2    1    2    0    0 -0.31740303975E+02 -0.33989774820E+02  0.74702554373E+02  0.12724247562E+03  0.91909870429E+02 0.  0.
         23    2    1    2    0    0  0.52851970020E+02 -0.20727552056E+02  0.15867177492E+03  0.19208329869E+03  0.92175372689E+02 0.  0.
        -11    1    4    4    0    0  0.68986193883E+02 -0.41293904380E+02  0.13320575715E+03  0.15558938018E+03  0.00000000000E+00 0.  1.
         11    1    4    4    0    0 -0.16134223863E+02  0.20566352324E+02  0.25466017773E+02  0.36493918518E+02  0.00000000000E+00 0. -1.
        -13    1    3    3    0    0 -0.23609911278E+02  0.26979941366E+02  0.84404247162E+01  0.36831860068E+02  0.00000000000E+00 0. -1.
         13    1    3    3    0    0 -0.81303926977E+01 -0.60969716186E+02  0.66262129657E+02  0.90410615549E+02  0.00000000000E+00 0.  1.
         -1    1    1    2    0  502 -0.21111666044E+02  0.54717326877E+02  0.12344467896E+02  0.59933915201E+02  0.00000000000E+00 0.  1.
<scales pt_clust_5="13000.00000" pt_clust_6="13000.00000" pt_clust_7="13000.00000" pt_clust_8="13000.00000" pt_clust_9="58.64889"></scales>
<clustering>
<clus scale="   58.649">  1  9  2 -1</clus>
<clus scale="   91.910">  7  8 -1 -1</clus>
<clus scale="   92.175">  5  6 -1 -1</clus>
<clus scale="  100.995">  2  7  1 -1</clus>
<clus scale="   58.649">  1  5  2 -1</clus>
</clustering>
</event>
<event>
 9    1  0.1445593E-005  0.1290496E+03  0.7546771E-02  0.1229062E+00
         21   -1    0    0  501  502  0.00000000000E+00  0.00000000000E+00  0.11087272015E+03  0.11087272015E+03  0.00000000000E+00 0.  1.
         -2   -1    0    0    0  501 -0.00000000000E+00 -0.00000000000E+00 -0.19873457534E+03  0.19873457534E+03  0.00000000000E+00 0.  1.
         23    2    1    2    0    0  0.73304919353E+02  0.14936977829E+02 -0.30641326031E+02  0.12180433238E+03  0.91108067801E+02 0.  0.
         23    2    1    2    0    0 -0.10435000919E+03 -0.31777134641E+02 -0.56381794195E+02  0.15247461809E+03  0.90392985026E+02 0.  0.
        -11    1    3    3    0    0  0.87990278057E+02  0.33554969797E+02 -0.24108695331E+02  0.97208303252E+02  0.00000000000E+00 0.  1.
         11    1    3    3    0    0 -0.14685358703E+02 -0.18617991968E+02 -0.65326306995E+01  0.24596029132E+02  0.00000000000E+00 0. -1.
        -13    1    4    4    0    0  0.63581437108E+01 -0.29667841154E+02 -0.65025839101E+01  0.31030475145E+02  0.00000000000E+00 0. -1.
         13    1    4    4    0    0 -0.11070815290E+03 -0.21092934869E+01 -0.49879210285E+02  0.12144414295E+03  0.00000000000E+00 0.  1.
         -2    1    1    2    0  502  0.31045089838E+02  0.16840156812E+02 -0.83873496519E+00  0.35328345006E+02  0.00000000000E+00 0.  1.
<scales pt_clust_5="13000.00000" pt_clust_6="13000.00000" pt_clust_7="13000.00000" pt_clust_8="13000.00000" pt_clust_9="35.31839"></scales>
<clustering>
<clus scale="   35.318">  1  9  2 -1</clus>
<clus scale="   90.393">  7  8 -1 -1</clus>
<clus scale="   91.108">  5  6 -1 -1</clus>
<clus scale="  128.546">  1  7  2 -1</clus>
<clus scale="   35.318">  1  5  2 -1</clus>
</clustering>
</event>
<event>
 9    1  0.1445593E-005  0.1218684E+03  0.7546771E-02  0.1240521E+00
         21   -1    0    0  501  502  0.00000000000E+00  0.00000000000E+00  0.31353820759E+03  0.31353820759E+03  0.00000000000E+00 0. -1.
          1   -1    0    0  502    0 -0.00000000000E+00 -0.00000000000E+00 -0.21521251857E+03  0.21521251857E+03  0.00000000000E+00 0. -1.
         23    2    1    2    0    0  0.21131723004E+01  0.72327887322E+02 -0.14754209900E+03  0.18896104516E+03  0.93283529259E+02 0.  0.
         23    2    1    2    0    0  0.49862762568E+02 -0.10304985123E+03  0.92742334362E+02  0.17519095248E+03  0.94790096107E+02 0.  0.
        -11    1    3    3    0    0  0.43655558299E+01  0.28763235584E+02  0.56871167488E+01  0.29643297656E+02  0.00000000000E+00 0.  1.
         11    1    3    3    0    0 -0.22523835295E+01  0.43564651738E+02 -0.15322921575E+03  0.15931774751E+03  0.00000000000E+00 0. -1.
        -13    1    4    4    0    0  0.33845810047E+02 -0.94375201413E+00  0.56113724968E+02  0.65537620153E+02  0.00000000000E+00 0.  1.
         13    1    4    4    0    0  0.16016952521E+02 -0.10210609922E+03  0.36628609394E+02  0.10965333233E+03  0.00000000000E+00 0. -1.
          1    1    1    2  501    0 -0.51975934868E+02  0.30721963907E+02  0.15312545366E+03  0.16459872852E+03  0.00000000000E+00 0. -1.
<scales pt_clust_5="13000.00000" pt_clust_6="13000.00000" pt_clust_7="13000.00000" pt_clust_8="13000.00000" pt_clust_9="60.37663"></scales>
<clustering>
<clus scale="   60.377">  1  9  2 -1</clus>
<clus scale="   93.284">  5  6 -1 -1</clus>
<clus scale="   94.790">  7  8 -1 -1</clus>
<clus scale="  120.700">  2  5  1 -1</clus>
<clus scale="   60.377">  1  5  2 -1</clus>
</clustering>
</event>
<event>
 9    1  0.1632149E-005  0.1444701E+03  0.7546771E-02  0.1226533E+00
          1   -1    0    0  502    0 -0.00000000000E+00  0.00000000000E+00  0.91449161057E+03  0.91449161057E+03  0.00000000000E+00 0. -1.
         21   -1    0    0  501  502  0.00000000000E+00 -0.00000000000E+00 -0.20041987052E+03  0.20041987052E+03  0.00000000000E+00 0. -1.
         23    2    1    2    0    0  0.27056889108E+02 -0.60824036120E+01  0.34505674791E+03  0.35831037530E+03  0.92482943768E+02 0.  0.
         23    2    1    2    0    0 -0.54388514179E+02  0.11528181522E+03  0.53429671303E+03  0.55662716626E+03  0.90071178888E+02 0.  0.
        -13    1    3    3    0    0  0.24335671428E+02 -0.45155934236E+02  0.13072316888E+03  0.14042731281E+03  0.00000000000E+00 0.  1.
         13    1    3    3    0    0  0.27212176792E+01  0.39073530624E+02  0.21433357904E+03  0.21788306250E+03  0.00000000000E+00 0. -1.
        -13    1    4    4    0    0  0.73520131895E+01  0.87989866423E+02  0.28617660485E+03  0.29948842691E+03  0.00000000000E+00 0. -1.
         13    1    4    4    0    0 -0.61740527369E+02  0.27291948801E+02  0.24812010818E+03  0.25713873935E+03  0.00000000000E+00 0.  1.
          1    1    1    2  501    0  0.27331625072E+02 -0.10919941161E+03 -0.16528172090E+03  0.19997393953E+03  0.00000000000E+00 0. -1.
<scales pt_clust_5="13000.00000" pt_clust_6="13000.00000" pt_clust_7="13000.00000" pt_clust_8="13000.00000" pt_clust_9="112.95480"></scales>
<clustering>
<clus scale="   90.071">  7  8 -1 -1</clus>
<clus scale="   92.483">  5  6 -1 -1</clus>
<clus scale="   96.551">  1  5  2 -1</clus>
<clus scale="  112.955">  2  9  1 -1</clus>
<clus scale="  112.955">  2  5  1 -1</clus>
</clustering>
</event>
<event>
 9    1  0.1445593E-005  0.9891068E+02  0.7546771E-02  0.1283031E+00
         21   -1    0    0  501  502  0.00000000000E+00  0.00000000000E+00  0.18060696625E+03  0.18060696625E+03  0.00000000000E+00 0. -1.
          2   -1    0    0  502    0 -0.00000000000E+00 -0.00000000000E+00 -0.26409253070E+03  0.26409253070E+03  0.00000000000E+00 0. -1.
         23    2    1    2    0    0  0.42598638261E+00 -0.66898695300E+01 -0.92690749950E+02  0.13126149993E+03  0.92698815624E+02 0.  0.
         23    2    1    2    0    0  0.64532816785E+02  0.36287103034E+02 -0.11845284389E+03  0.16717722029E+03  0.91847201757E+02 0.  0.
        -13    1    4    4    0    0  0.57952127552E+02  0.60543677449E+02 -0.11425211481E+03  0.14169520707E+03  0.00000000000E+00 0. -1.
         13    1    4    4    0    0  0.65806892328E+01 -0.24256574415E+02 -0.42007290736E+01  0.25482013222E+02  0.00000000000E+00 0.  1.
        -13    1    3    3    0    0 -0.41955839643E+02 -0.15586945225E+02 -0.68010960850E+02  0.81417050655E+02  0.00000000000E+00 0.  1.
         13    1    3    3    0    0  0.42381826026E+02  0.88970756954E+01 -0.24679789099E+02  0.49844449272E+02  0.00000000000E+00 0. -1.
          2    1    1    2  501    0 -0.64958803168E+02 -0.29597233504E+02  0.12765802939E+03  0.14626077673E+03  0.00000000000E+00 0. -1.
<scales pt_clust_5="13000.00000" pt_clust_6="13000.00000" pt_clust_7="13000.00000" pt_clust_8="13000.00000" pt_clust_9="71.38377"></scales>
<clustering>
<clus scale="   71.384">  1  9  2 -1</clus>
<clus scale="   91.847">  5  6 -1 -1</clus>
<clus scale="   92.699">  7  8 -1 -1</clus>
<clus scale="   98.113">  1  5  2 -1</clus>
<clus scale="   71.384">  1  5  2 -1</clus>
</clustering>
</event>
<event>
 9    1  0.1445593E-005  0.1833393E+03  0.7546771E-02  0.1180277E+00
          2   -1    0    0  502    0 -0.00000000000E+00  0.00000000000E+00  0.49607840162E+03  0.49607840162E+03  0.00000000000E+00 0. -1.
         21   -1    0    0  501  502  0.00000000000E+00 -0.00000000000E+00 -0.13902803935E+03  0.13902803935E+03  0.00000000000E+00 0. -1.
         23    2    1    2    0    0  0.86070919153E+02  0.14891992647E+02  0.72509702791E+02  0.14738430116E+03  0.93992024455E+02 0.  0.
         23    2    1    2    0    0  0.55308533965E+02 -0.64451169798E+02  0.30228961693E+03  0.33686032457E+03  0.12199540380E+03 0.  0.
        -13    1    3    3    0    0  0.91348761895E+02  0.35465437564E+02  0.78229031655E+02  0.12538809734E+03  0.00000000000E+00 0. -1.
         13    1    3    3    0    0 -0.52778427423E+01 -0.20573444917E+02 -0.57193288643E+01  0.21996203819E+02  0.00000000000E+00 0.  1.
        -13    1    4    4    0    0 -0.38853215580E+02 -0.12926572749E+02  0.73283206347E+02  0.83946989085E+02  0.00000000000E+00 0.  1.
         13    1    4    4    0    0  0.94161749546E+02 -0.51524597049E+02  0.22900641059E+03  0.25291333549E+03  0.00000000000E+00 0. -1.
          2    1    1    2  501    0 -0.14137945312E+03  0.49559177151E+02 -0.17748957459E+02  0.15086181523E+03  0.00000000000E+00 0. -1.
<scales pt_clust_5="13000.00000" pt_clust_6="13000.00000" pt_clust_7="13000.00000" pt_clust_8="13000.00000" pt_clust_9="136.85913"></scales>
<clustering>
<clus scale="   93.992">  5  6 -1 -1</clus>
<clus scale="  121.995">  7  8 -1 -1</clus>
<clus scale="  128.314">  1  5  2 -1</clus>
<clus scale="  136.859">  2  9  1 -1</clus>
<clus scale="  136.859">  2  5  1 -1</clus>
</clustering>
</event>
<event>
 9    1  0.1445593E-005  0.1373370E+03  0.7546771E-02  0.1217280E+00
         21   -1    0    0  501  502  0.00000000000E+00  0.00000000000E+00  0.81456409950E+03  0.81456409950E+03  0.00000000000E+00 0. -1.
          3   -1    0    0  502    0 -0.00000000000E+00 -0.00000000000E+00 -0.45319057204E+02  0.45319057204E+02  0.00000000000E+00 0. -1.
         23    2    1    2    0    0  0.11997264313E+03 -0.76068465757E+02  0.22955374442E+03  0.28527987280E+03  0.92248781363E+02 0.  0.
         23    2    1    2    0    0 -0.48470318724E+02  0.18656343327E+02  0.31456841123E+03  0.33152089399E+03  0.90859159487E+02 0.  0.
        -11    1    3    3    0    0  0.12643459630E+02  0.21062085631E+02  0.30685390248E+02  0.39307272829E+02  0.00000000000E+00 0.  1.
         11    1    3    3    0    0  0.10732918350E+03 -0.97130551387E+02  0.19886835417E+03  0.24597259997E+03  0.00000000000E+00 0. -1.
        -13    1    4    4    0    0  0.16373506567E+02  0.33043926317E+02  0.13898384556E+03  0.14379326170E+03  0.00000000000E+00 0. -1.
         13    1    4    4    0    0 -0.64843825291E+02 -0.14387582989E+02  0.17558456568E+03  0.18772763229E+03  0.00000000000E+00 0.  1.
          3    1    1    2  501    0 -0.71502324409E+02  0.57412122429E+02  0.22512288664E+03  0.24308238992E+03  0.00000000000E+00 0. -1.
<scales pt_clust_5="13000.00000" pt_clust_6="13000.00000" pt_clust_7="13000.00000" pt_clust_8="13000.00000" pt_clust_9="91.69915"></scales>
<clustering>
<clus scale="   90.859">  7  8 -1 -1</clus>
<clus scale="   91.699">  1  9  2 -1</clus>
<clus scale="   92.249">  5  6 -1 -1</clus>
<clus scale="  136.408">  1  7  2 -1</clus>
<clus scale="   91.699">  1  5  2 -1</clus>
</clustering>
</event>
<event>
 9    1  0.1445593E-005  0.9753986E+02  0.7546771E-02  0.1285934E+00
         21   -1    0    0  501  502  0.00000000000E+00  0.00000000000E+00  0.14758421354E+03  0.14758421354E+03  0.00000000000E+00 0.  1.
          2   -1    0    0  502    0 -0.00000000000E+00 -0.00000000000E+00 -0.24992087536E+03  0.24992087536E+03  0.00000000000E+00 0.  1.
         23    2    1    2    0    0  0.35212350381E+02 -0.52064291949E+01 -0.19788089268E+03  0.22055811547E+03  0.90675344428E+02 0.  0.
         23    2    1    2    0    0 -0.33143468725E+02  0.27727530108E+02  0.24988456321E+02  0.10285515485E+03  0.89930275687E+02 0.  0.
        -13    1    3    3    0    0  0.14375681658E+02  0.42361234376E+02 -0.78097685709E+02  0.90002127275E+02  0.00000000000E+00 0. -1.
         13    1    3    3    0    0  0.20836668722E+02 -0.47567663571E+02 -0.11978320698E+03  0.13055598820E+03  0.00000000000E+00 0.  1.
        -13    1    4    4    0    0 -0.15530784117E+02  0.15291977343E+02 -0.33811115783E+02  0.40227370991E+02  0.00000000000E+00 0.  1.
         13    1    4    4    0    0 -0.17612684608E+02  0.12435552765E+02  0.58799572104E+02  0.62627783861E+02  0.00000000000E+00 0. -1.
          2    1    1    2  501    0 -0.20688816554E+01 -0.22521100913E+02  0.70555774543E+02  0.74091818570E+02  0.00000000000E+00 0.  1.
<scales pt_clust_5="13000.00000" pt_clust_6="13000.00000" pt_clust_7="13000.00000" pt_clust_8="13000.00000" pt_clust_9="22.61593"></scales>
<clustering>
<clus scale="   22.616">  1  9  2 -1</clus>
<clus scale="   89.930">  7  8 -1 -1</clus>
<clus scale="   90.675">  5  6 -1 -1</clus>
<clus scale="   96.848">  1  7  2 -1</clus>
<clus scale="   22.616">  1  5  2 -1</clus>
</clustering>
</event>
<event>
 9    1  0.1445593E-005  0.1082659E+03  0.7546771E-02  0.1267256E+00
         21   -1    0    0  501  502  0.00000000000E+00  0.00000000000E+00  0.47170487693E+03  0.47170487693E+03  0.00000000000E+00 0. -1.
         -3   -1    0    0    0  501 -0.00000000000E+00 -0.00000000000E+00 -0.50871637154E+02  0.50871637154E+02  0.00000000000E+00 0.  1.
         23    2    1    2    0    0  0.30608523339E+02  0.36611801083E+02  0.84122090417E+02  0.12878056315E+03  0.85032944608E+02 0.  0.
         23    2    1    2    0    0  0.95051047931E+00 -0.88781427088E+02  0.28893598753E+03  0.31633558313E+03  0.93279960321E+02 0.  0.
        -11    1    4    4    0    0  0.27672828162E+02 -0.95200158712E+02  0.19955897509E+03  0.22282872386E+03  0.00000000000E+00 0.  1.
         11    1    4    4    0    0 -0.26722317682E+02  0.64187316235E+01  0.89377012439E+02  0.93506859270E+02  0.00000000000E+00 0. -1.
        -13    1    3    3    0    0  0.46779737477E+02  0.24410730647E+02  0.12332864408E+02  0.54187887518E+02  0.00000000000E+00 0.  1.
         13    1    3    3    0    0 -0.16171214138E+02  0.12201070437E+02  0.71789226009E+02  0.74592675629E+02  0.00000000000E+00 0. -1.
         -3    1    1    2    0  502 -0.31559033819E+02  0.52169626005E+02  0.47775161824E+02  0.77460367804E+02  0.00000000000E+00 0.  1.
<scales pt_clust_5="13000.00000" pt_clust_6="13000.00000" pt_clust_7="13000.00000" pt_clust_8="13000.00000" pt_clust_9="60.97250"></scales>
<clustering>
<clus scale="   60.973">  1  9  2 -1</clus>
<clus scale="   85.033">  7  8 -1 -1</clus>
<clus scale="   93.280">  5  6 -1 -1</clus>
<clus scale="  101.247">  2  7  1 -1</clus>
<clus scale="   60.973">  1  5  2 -1</clus>
</clustering>
</event>
<event>
 9    1  0.1445593E-005  0.9434071E+02  0.7546771E-02  0.1293094E+00
         -1   -1    0    0    0  501 -0.00000000000E+00  0.00000000000E+00  0.40016581055E+03  0.40016581055E+03  0.00000000000E+00 0.  1.
         21   -1    0    0  501  502  0.00000000000E+00 -0.00000000000E+00 -0.40711014429E+02  0.40711014429E+02  0.00000000000E+00 0. -1.
         23    2    1    2    0    0 -0.18509445579E+02 -0.84091524337E+01  0.12068699182E+03  0.15336182338E+03  0.92418534145E+02 0.  0.
         23    2    1    2    0    0 -0.38250898340E+01 -0.44188666783E+02  0.13554268581E+03  0.16952861618E+03  0.91656218789E+02 0.  0.
        -11    1    4    4    0    0  0.37212037349E+02 -0.27071416999E+00  0.77501290503E+02  0.85972431857E+02  0.00000000000E+00 0.  1.
         11    1    4    4    0    0 -0.41037127183E+02 -0.43917952613E+02  0.58041395305E+02  0.83556184320E+02  0.00000000000E+00 0. -1.
        -13    1    3    3    0    0 -0.48655466008E+02  0.65647251538E+01  0.10564033676E+03  0.11649176254E+03  0.00000000000E+00 0.  1.
         13    1    3    3    0    0  0.30146020429E+02 -0.14973877587E+02  0.15046655069E+02  0.36870060842E+02  0.00000000000E+00 0. -1.
         -1    1    1    2    0  502  0.22334535413E+02  0.52597819216E+02  0.10322511849E+03  0.11798638542E+03  0.00000000000E+00 0.  1.
<scales pt_clust_5="13000.00000" pt_clust_6="13000.00000" pt_clust_7="13000.00000" pt_clust_8="13000.00000" pt_clust_9="57.14338"></scales>
<clustering>
<clus scale="   57.143">  2  9  1 -1</clus>
<clus scale="   91.656">  5  6 -1 -1</clus>
<clus scale="   92.419">  7  8 -1 -1</clus>
<clus scale="   93.594">  2  5  1 -1</clus>
<clus scale="   57.143">  2  5  1 -1</clus>
</clustering>
</event>
<event>
 9    1  0.1445593E-005  0.1849274E+03  0.7546771E-02  0.1174990E+00
          1   -1    0    0  502    0 -0.00000000000E+00  0.00000000000E+00  0.94472356593E+03  0.94472356593E+03  0.00000000000E+00 0. -1.
         21   -1    0    0  501  502  0.00000000000E+00 -0.00000000000E+00 -0.39350209935E+03  0.39350209935E+03  0.00000000000E+00 0. -1.
         23    2    1    2    0    0 -0.77060225247E+02 -0.71182721932E+02  0.39573721526E+03  0.42006752929E+03  0.94040030861E+02 0.  0.
         23    2    1    2    0    0  0.15769235616E+03  0.20553955041E+03  0.48255972340E+03  0.55548519472E+03  0.92663525333E+02 0.  0.
        -11    1    3    3    0    0  0.50177178674E+01 -0.47297018490E+02  0.21411469628E+03  0.21933373798E+03  0.00000000000E+00 0.  1.
         11    1    3    3    0    0 -0.82077943114E+02 -0.23885703442E+02  0.18162251898E+03  0.20073379131E+03  0.00000000000E+00 0. -1.
        -13    1    4    4    0    0  0.10252129623E+03  0.16255149085E+03  0.26778760066E+03  0.32961159329E+03  0.00000000000E+00 0. -1.
         13    1    4    4    0    0  0.55171059935E+02  0.42988059554E+02  0.21477212274E+03  0.22587360143E+03  0.00000000000E+00 0.  1.
          1    1    1    2  501    0 -0.80632130918E+02 -0.13435682848E+03 -0.32707547208E+03  0.36267294127E+03  0.00000000000E+00 0. -1.
<scales pt_clust_5="13000.00000" pt_clust_6="13000.00000" pt_clust_7="13000.00000" pt_clust_8="13000.00000" pt_clust_9="160.03631"></scales>
<clustering>
<clus scale="   92.664">  7  8 -1 -1</clus>
<clus scale="   94.040">  5  6 -1 -1</clus>
<clus scale="  140.886">  1  5  2 -1</clus>
<clus scale="  160.036">  2  9  1 -1</clus>
<clus scale="  160.036">  2  5  1 -1</clus>
</clustering>
</event>
<event>
 9    1  0.1445593E-005  0.9423140E+02  0.7546771E-02  0.1294442E+00
          1   -1    0    0  502    0 -0.00000000000E+00  0.00000000000E+00  0.45424071261E+02  0.45424071261E+02  0.00000000000E+00 0. -1.
         21   -1    0    0  501  502  0.00000000000E+00 -0.00000000000E+00 -0.37653526015E+03  0.37653526015E+03  0.00000000000E+00 0. -1.
         23    2    1    2    0    0  0.14763075972E+02  0.32172662120E+02 -0.82228966923E+02  0.12898603513E+03  0.92858848025E+02 0.  0.
         23    2    1    2    0    0  0.35200836216E+01  0.21461025873E+02 -0.18895884230E+03  0.21050113224E+03  0.90179354448E+02 0.  0.
        -13    1    4    4    0    0 -0.38986504873E+00  0.49711967237E+02 -0.16774431213E+03  0.17495595427E+03  0.00000000000E+00 0. -1.
         13    1    4    4    0    0  0.39099486704E+01 -0.28250941364E+02 -0.21214530173E+02  0.35545177971E+02  0.00000000000E+00 0.  1.
        -13    1    3    3    0    0 -0.10426654394E+02 -0.26430021246E+02 -0.50474467593E+01  0.28857197780E+02  0.00000000000E+00 0.  1.
         13    1    3    3    0    0  0.25189730366E+02  0.58602683366E+02 -0.77181520164E+02  0.10012883735E+03  0.00000000000E+00 0. -1.
          1    1    1    2  501    0 -0.18283159594E+02 -0.53633687993E+02 -0.59923379664E+02  0.82472164048E+02  0.00000000000E+00 0. -1.
<scales pt_clust_5="13000.00000" pt_clust_6="13000.00000" pt_clust_7="13000.00000" pt_clust_8="13000.00000" pt_clust_9="56.66436"></scales>
<clustering>
<clus scale="   56.664">  2  9  1 -1</clus>
<clus scale="   90.179">  5  6 -1 -1</clus>
<clus scale="   91.592">  2  5  1 -1</clus>
<clus scale="   92.859">  7  8 -1 -1</clus>
<clus scale="   56.664">  2  5  1 -1</clus>
</clustering>
</event>
<event>
 9    1  0.1445593E-005  0.9833329E+02  0.7546771E-02  0.1284794E+00
          1   -1    0    0  502    0 -0.00000000000E+00  0.00000000000E+00  0.14202353346E+03  0.14202353346E+03  0.00000000000E+00 0. -1.
         21   -1    0    0  501  502  0.00000000000E+00 -0.00000000000E+00 -0.33578137062E+03  0.33578137062E+03  0.00000000000E+00 0. -1.
         23    2    1    2    0    0 -0.36106991379E+02  0.10234780806E+01  0.10073676723E+03  0.14174773497E+03  0.92950318792E+02 0.  0.
         23    2    1    2    0    0 -0.11472194987E+02  0.37113262106E+02 -0.20628683445E+03  0.22882470852E+03  0.91090524643E+02 0.  0.
        -11    1    4    4    0    0  0.50006821003E+01 -0.23074257448E+02 -0.15880261152E+02  0.28453661847E+02  0.00000000000E+00 0.  1.
         11    1    4    4    0    0 -0.16472877087E+02  0.60187519554E+02 -0.19040657329E+03  0.20037104667E+03  0.00000000000E+00 0. -1.
        -13    1    3    3    0    0  0.26304727010E+02 -0.93879485116E+01  0.72401697371E+01  0.28852942625E+02  0.00000000000E+00 0.  1.
         13    1    3    3    0    0 -0.62411718389E+02  0.10411426592E+02  0.93496597494E+02  0.11289479235E+03  0.00000000000E+00 0. -1.
          1    1    1    2  501    0  0.47579186366E+02 -0.38136740186E+02 -0.88207769940E+02  0.10723246059E+03  0.00000000000E+00 0. -1.
<scales pt_clust_5="13000.00000" pt_clust_6="13000.00000" pt_clust_7="13000.00000" pt_clust_8="13000.00000" pt_clust_9="60.97696"></scales>
<clustering>
<clus scale="   60.977">  2  9  1 -1</clus>
<clus scale="   91.091">  5  6 -1 -1</clus>
<clus scale="   92.950">  7  8 -1 -1</clus>
<clus scale="   96.577">  2  5  1 -1</clus>
<clus scale="   60.977">  2  5  1 -1</clus>
</clustering>
</event>
<event>
 9    1  0.1445593E-005  0.1074970E+03  0.7546771E-02  0.1266657E+00
         21   -1    0    0  501  502  0.00000000000E+00  0.00000000000E+00  0.22851380358E+03  0.22851380358E+03  0.00000000000E+00 0.  1.
          1   -1    0    0  502    0 -0.00000000000E+00 -0.00000000000E+00 -0.13951702984E+03  0.13951702984E+03  0.00000000000E+00 0. -1.
         23    2    1    2    0    0  0.48826787531E+02 -0.17780850644E+02 -0.82560424881E+02  0.13149710677E+03  0.88176252488E+02 0.  0.
         23    2    1    2    0    0 -0.80519423386E+02  0.32799224119E+02  0.14671063109E+03  0.19355318887E+03  0.91540488324E+02 0.  0.
        -11    1    3    3    0    0  0.21407449171E+02 -0.22519843520E+02  0.11710865284E+02  0.33204918278E+02  0.00000000000E+00 0.  1.
         11    1    3    3    0    0  0.27419338360E+02  0.47389928763E+01 -0.94271290165E+02  0.98292188495E+02  0.00000000000E+00 0. -1.
        -11    1    4    4    0    0 -0.84556386795E+02  0.59910689779E+01  0.14293532518E+03  0.16618117414E+03  0.00000000000E+00 0.  1.
         11    1    4    4    0    0  0.40369634089E+01  0.26808155141E+02  0.37753059101E+01  0.27372014730E+02  0.00000000000E+00 0. -1.
          1    1    1    2  501    0  0.31692635855E+02 -0.15018373476E+02  0.24846567537E+02  0.42980537778E+02  0.00000000000E+00 0. -1.
<scales pt_clust_5="13000.00000" pt_clust_6="13000.00000" pt_clust_7="13000.00000" pt_clust_8="13000.00000" pt_clust_9="35.07100"></scales>
<clustering>
<clus scale="   35.071">  1  9  2 -1</clus>
<clus scale="   88.176">  5  6 -1 -1</clus>
<clus scale="   91.540">  7  8 -1 -1</clus>
<clus scale="  104.647">  2  5  1 -1</clus>
<clus scale="   35.071">  1  5  2 -1</clus>
</clustering>
</event>
<event>
 9    1  0.1445593E-005  0.9560817E+02  0.7546771E-02  0.1292656E+00
         21   -1    0    0  501  502  0.00000000000E+00  0.00000000000E+00  0.14630608558E+03  0.14630608558E+03  0.00000000000E+00 0. -1.
          1   -1    0    0  502    0 -0.00000000000E+00 -0.00000000000E+00 -0.14116761226E+03  0.14116761226E+03  0.00000000000E+00 0. -1.
         23    2    1    2    0    0  0.33544366328E+02  0.71726365445E+01 -0.54954060721E+02  0.11269226427E+03  0.92211313887E+02 0.  0.
         23    2    1    2    0    0 -0.35397496995E+01 -0.24367027721E+02 -0.15363369459E+02  0.91778316277E+02  0.87068618627E+02 0.  0.
        -13    1    3    3    0    0  0.44438219283E+02  0.42062446013E+02 -0.40552074110E+02  0.73406235514E+02  0.00000000000E+00 0.  1.
         13    1    3    3    0    0 -0.10893852956E+02 -0.34889809468E+02 -0.14401986611E+02  0.39286028755E+02  0.00000000000E+00 0. -1.
        -13    1    4    4    0    0 -0.41163555600E+02  0.50729330514E+01 -0.14692801430E+02  0.44000583783E+02  0.00000000000E+00 0.  1.
         13    1    4    4    0    0  0.37623805901E+02 -0.29439960772E+02 -0.67056802931E+00  0.47777732493E+02  0.00000000000E+00 0. -1.
          1    1    1    2  501    0 -0.30004616628E+02  0.17194391176E+02  0.75455903503E+02  0.83003117293E+02  0.00000000000E+00 0. -1.
<scales pt_clust_5="13000.00000" pt_clust_6="13000.00000" pt_clust_7="13000.00000" pt_clust_8="13000.00000" pt_clust_9="34.58214"></scales>
<clustering>
<clus scale="   34.582">  1  9  2 -1</clus>
<clus scale="   87.069">  7  8 -1 -1</clus>
<clus scale="   90.658">  1  7  2 -1</clus>
<clus scale="   92.211">  5  6 -1 -1</clus>
<clus scale="   34.582">  1  5  2 -1</clus>
</clustering>
</event>
<event>
 9    1  0.1445593E-005  0.9832976E+02  0.7546771E-02  0.1284691E+00
         21   -1    0    0  501  502  0.00000000000E+00  0.00000000000E+00  0.66914615306E+02  0.66914615306E+02  0.00000000000E+00 0. -1.
          2   -1    0    0  502    0 -0.00000000000E+00 -0.00000000000E+00 -0.30890865058E+03  0.30890865058E+03  0.00000000000E+00 0. -1.
         23    2    1    2    0    0  0.48515061415E+02 -0.17758601463E+02 -0.18529562766E+03  0.21242891310E+03  0.90124882122E+02 0.  0.
         23    2    1    2    0    0 -0.73578976616E+01  0.36031447701E+01 -0.72327164769E+02  0.11714992467E+03  0.91791964662E+02 0.  0.
        -11    1    4    4    0    0 -0.28962417789E+02 -0.26443272520E+02 -0.69791606251E+02  0.80055834321E+02  0.00000000000E+00 0.  1.
         11    1    4    4    0    0  0.21604520127E+02  0.30046417290E+02 -0.25355585183E+01  0.37094090350E+02  0.00000000000E+00 0. -1.
        -13    1    3    3    0    0  0.46924473780E+02  0.26730638044E+02 -0.67132771619E+02  0.86158239739E+02  0.00000000000E+00 0. -1.
         13    1    3    3    0    0  0.15905876346E+01 -0.44489239507E+02 -0.11816285605E+03  0.12627067336E+03  0.00000000000E+00 0.  1.
          2    1    1    2  501    0 -0.41157163753E+02  0.14155456693E+02  0.15628757154E+02  0.46244428125E+02  0.00000000000E+00 0. -1.
<scales pt_clust_5="13000.00000" pt_clust_6="13000.00000" pt_clust_7="13000.00000" pt_clust_8="13000.00000" pt_clust_9="43.52343"></scales>
<clustering>
<clus scale="   43.523">  1  9  2 -1</clus>
<clus scale="   90.125">  7  8 -1 -1</clus>
<clus scale="   91.792">  5  6 -1 -1</clus>
<clus scale="   96.775">  2  7  1 -1</clus>
<clus scale="   43.523">  1  5  2 -1</clus>
</clustering>
</event>
<event>
 9    1  0.1445593E-005  0.1180433E+03  0.7546771E-02  0.1249196E+00
          1   -1    0    0  502    0 -0.00000000000E+00  0.00000000000E+00  0.18618433099E+03  0.18618433099E+03  0.00000000000E+00 0. -1.
         21   -1    0    0  501  502  0.00000000000E+00 -0.00000000000E+00 -0.10821859695E+03  0.10821859695E+03  0.00000000000E+00 0.  1.
         23    2    1    2    0    0  0.23350402480E+02  0.71704827456E+02  0.22324881599E+02  0.12049990256E+03  0.91296235416E+02 0.  0.
         23    2    1    2    0    0 -0.55395525723E+02 -0.55701479333E+02  0.80502662945E+01  0.11433910203E+03  0.82687994270E+02 0.  0.
        -11    1    3    3    0    0 -0.11831439570E+02  0.76938897493E+02 -0.12045598775E+01  0.77852603516E+02  0.00000000000E+00 0.  1.
         11    1    3    3    0    0  0.35181842050E+02 -0.52340700374E+01  0.23529441476E+02  0.42647299040E+02  0.00000000000E+00 0. -1.
        -11    1    4    4    0    0  0.21047864866E+02 -0.69275384851E+01 -0.50307520748E+01  0.22722497031E+02  0.00000000000E+00 0. -1.
         11    1    4    4    0    0 -0.76443390589E+02 -0.48773940848E+02  0.13081018369E+02  0.91616605002E+02  0.00000000000E+00 0.  1.
          1    1    1    2  501    0  0.32045123243E+02 -0.16003348123E+02  0.47590586146E+02  0.59563923347E+02  0.00000000000E+00 0. -1.
<scales pt_clust_5="13000.00000" pt_clust_6="13000.00000" pt_clust_7="13000.00000" pt_clust_8="13000.00000" pt_clust_9="35.81897"></scales>
<clustering>
<clus scale="   35.819">  2  9  1 -1</clus>
<clus scale="   82.688">  7  8 -1 -1</clus>
<clus scale="   91.296">  5  6 -1 -1</clus>
<clus scale="  111.519">  2  7  1 -1</clus>
<clus scale="   35.819">  2  5  1 -1</clus>
</clustering>
</event>
<event>
 9    1  0.1445593E-005  0.1268077E+03  0.7546771E-02  0.1232626E+00
         -3   -1    0    0    0  501 -0.00000000000E+00  0.00000000000E+00  0.51640898033E+03  0.51640898033E+03  0.00000000000E+00 0.  1.
         21   -1    0    0  501  502  0.00000000000E+00 -0.00000000000E+00 -0.60984306906E+02  0.60984306906E+02  0.00000000000E+00 0. -1.
         23    2    1    2    0    0  0.81140981803E+02  0.24053950659E+01  0.31970146117E+03  0.34181368566E+03  0.89654484399E+02 0.  0.
         23    2    1    2    0    0 -0.10676846649E+03  0.12631038589E+02  0.14721480201E+03  0.20372180907E+03  0.90946847047E+02 0.  0.
        -11    1    4    4    0    0 -0.54053871396E+02 -0.18368677336E+02  0.16527383827E+02  0.59433860182E+02  0.00000000000E+00 0. -1.
         11    1    4    4    0    0 -0.52714595095E+02  0.30999715925E+02  0.13068741818E+03  0.14428794889E+03  0.00000000000E+00 0.  1.
        -13    1    3    3    0    0  0.27699541889E+02  0.44343373812E+02  0.15786552987E+03  0.16629830109E+03  0.00000000000E+00 0. -1.
         13    1    3    3    0    0  0.53441439915E+02 -0.41937978746E+02  0.16183593130E+03  0.17551538457E+03  0.00000000000E+00 0.  1.
         -3    1    1    2    0  502  0.25627484687E+02 -0.15036433654E+02 -0.11491589756E+02  0.31857792509E+02  0.00000000000E+00 0.  1.
<scales pt_clust_5="13000.00000" pt_clust_6="13000.00000" pt_clust_7="13000.00000" pt_clust_8="13000.00000" pt_clust_9="29.71300"></scales>
<clustering>
<clus scale="   29.713">  2  9  1 -1</clus>
<clus scale="   89.654">  7  8 -1 -1</clus>
<clus scale="   90.947">  5  6 -1 -1</clus>
<clus scale="  125.884">  1  7  2 -1</clus>
<clus scale="   29.713">  2  5  1 -1</clus>
</clustering>
</event>
<event>
 9    1  0.1780080E-005  0.1183658E+03  0.7546771E-02  0.1246369E+00
          1   -1    0    0  502    0 -0.00000000000E+00  0.00000000000E+00  0.47140821999E+03  0.47140821999E+03  0.00000000000E+00 0. -1.
         21   -1    0    0  501  502  0.00000000000E+00 -0.00000000000E+00 -0.17923066516E+03  0.17923066516E+03  0.00000000000E+00 0.  1.
         23    2    1    2    0    0  0.36980015898E+02  0.82108761505E+02  0.35469671952E+03  0.37683441071E+03  0.89916850276E+02 0.  0.
         23    2    1    2    0    0 -0.22511352473E+02 -0.34697612062E+02  0.76433954192E+02  0.12627438071E+03  0.91609959047E+02 0.  0.
        -13    1    4    4    0    0 -0.40492962979E+02 -0.44747314075E+02  0.16011361056E+02  0.62436894947E+02  0.00000000000E+00 0.  1.
         13    1    4    4    0    0  0.17981610506E+02  0.10049702013E+02  0.60422593136E+02  0.63837485761E+02  0.00000000000E+00 0. -1.
        -13    1    3    3    0    0 -0.19059147992E+02  0.10334903843E+02  0.18427504237E+02  0.28454073030E+02  0.00000000000E+00 0.  1.
         13    1    3    3    0    0  0.56039163890E+02  0.71773857662E+02  0.33626921528E+03  0.34838033768E+03  0.00000000000E+00 0. -1.
          1    1    1    2  501    0 -0.14468663425E+02 -0.47411149443E+02 -0.13895311888E+03  0.14753009374E+03  0.00000000000E+00 0. -1.
<scales pt_clust_5="13000.00000" pt_clust_6="13000.00000" pt_clust_7="13000.00000" pt_clust_8="13000.00000" pt_clust_9="49.56974"></scales>
<clustering>
<clus scale="   49.570">  2  9  1 -1</clus>
<clus scale="   89.917">  7  8 -1 -1</clus>
<clus scale="   91.610">  5  6 -1 -1</clus>
<clus scale="  117.060">  1  7  2 -1</clus>
<clus scale="   49.570">  2  5  1 -1</clus>
</clustering>
</event>
<event>
 9    1  0.1445593E-005  0.1939049E+03  0.7546771E-02  0.1155062E+00
         21   -1    0    0  501  502  0.00000000000E+00  0.00000000000E+00  0.65568321896E+03  0.65568321896E+03  0.00000000000E+00 0.  1.
         -2   -1    0    0    0  501 -0.00000000000E+00 -0.00000000000E+00 -0.12087936975E+03  0.12087936975E+03  0.00000000000E+00 0. -1.
         23    2    1    2    0    0  0.13730793699E+03  0.98682133576E+02  0.23859631316E+02  0.19349429167E+03  0.90989701907E+02 0.  0.
         23    2    1    2    0    0 -0.10563212618E+03 -0.15469009991E+03  0.44214358858E+03  0.48886757583E+03  0.91724482447E+02 0.  0.
        -13    1    4    4    0    0 -0.14224081753E+02 -0.60813265388E+02  0.23984158765E+03  0.24783979687E+03  0.00000000000E+00 0. -1.
         13    1    4    4    0    0 -0.91408044422E+02 -0.93876834527E+02  0.20230200093E+03  0.24102777895E+03  0.00000000000E+00 0.  1.
        -13    1    3    3    0    0 -0.67740220068E+00  0.37547366418E+02  0.19945643897E+02  0.42521668701E+02  0.00000000000E+00 0.  1.
         13    1    3    3    0    0  0.13798533919E+03  0.61134767158E+02  0.39139874190E+01  0.15097262297E+03  0.00000000000E+00 0. -1.
         -2    1    1    2    0  502 -0.31675810819E+02  0.56007966339E+02  0.68800629311E+02  0.94200721218E+02  0.00000000000E+00 0. -1.
<scales pt_clust_5="13000.00000" pt_clust_6="13000.00000" pt_clust_7="13000.00000" pt_clust_8="13000.00000" pt_clust_9="64.34477"></scales>
<clustering>
<clus scale="   64.345">  1  9  2 -1</clus>
<clus scale="   90.990">  7  8 -1 -1</clus>
<clus scale="   91.724">  5  6 -1 -1</clus>
<clus scale="  193.558">  2  7  1 -1</clus>
<clus scale="   64.345">  1  5  2 -1</clus>
</clustering>
</event>
<event>
 9    1  0.1445593E-005  0.1089601E+03  0.7546771E-02  0.1262885E+00
          2   -1    0    0  502    0 -0.00000000000E+00  0.00000000000E+00  0.49190255136E+03  0.49190255136E+03  0.00000000000E+00 0. -1.
         21   -1    0    0  501  502  0.00000000000E+00 -0.00000000000E+00 -0.71542869135E+02  0.71542869135E+02  0.00000000000E+00 0. -1.
         23    2    1    2    0    0  0.65179486749E+02 -0.94924158834E+01  0.35963324770E+03  0.37656057959E+03  0.90129494617E+02 0.  0.
         23    2    1    2    0    0 -0.45236599875E+02 -0.15660216171E+02  0.94913239841E+02  0.13999015790E+03  0.91088577077E+02 0.  0.
        -13    1    4    4    0    0 -0.19279714815E+02 -0.23805706645E+02 -0.95143218589E+01  0.32077116339E+02  0.00000000000E+00 0.  1.
         13    1    4    4    0    0 -0.25956885060E+02  0.81454904735E+01  0.10442756170E+03  0.10791304156E+03  0.00000000000E+00 0. -1.
        -13    1    3    3    0    0 -0.37787532032E+01 -0.25574320628E+02  0.30901879928E+02  0.40289589654E+02  0.00000000000E+00 0.  1.
         13    1    3    3    0    0  0.68958239952E+02  0.16081904745E+02  0.32873136777E+03  0.33627098994E+03  0.00000000000E+00 0. -1.
          2    1    1    2  501    0 -0.19942886874E+02  0.25152632055E+02 -0.34186805314E+02  0.46894683000E+02  0.00000000000E+00 0. -1.
<scales pt_clust_5="13000.00000" pt_clust_6="13000.00000" pt_clust_7="13000.00000" pt_clust_8="13000.00000" pt_clust_9="32.09943"></scales>
<clustering>
<clus scale="   32.099">  2  9  1 -1</clus>
<clus scale="   90.129">  7  8 -1 -1</clus>
<clus scale="   91.089">  5  6 -1 -1</clus>
<clus scale="  108.160">  1  7  2 -1</clus>
<clus scale="   32.099">  2  5  1 -1</clus>
</clustering>
</event>
<event>
 9    1  0.1445593E-005  0.1252517E+03  0.7546771E-02  0.1235235E+00
         21   -1    0    0  501  502  0.00000000000E+00  0.00000000000E+00  0.82556559836E+03  0.82556559836E+03  0.00000000000E+00 0. -1.
         -2   -1    0    0    0  501 -0.00000000000E+00 -0.00000000000E+00 -0.75325021743E+02  0.75325021743E+02  0.00000000000E+00 0.  1.
         23    2    1    2    0    0 -0.23742596535E+02 -0.79408599894E+02 -0.28730707840E+01  0.12245829977E+03  0.90101853583E+02 0.  0.
         23    2    1    2    0    0  0.73032780116E+02  0.87183845362E+02  0.58894717851E+03  0.60684966927E+03  0.92048531489E+02 0.  0.
        -11    1    3    3    0    0 -0.55508871134E+02 -0.34036736543E+02 -0.12328663081E+02  0.66270130092E+02  0.00000000000E+00 0.  1.
         11    1    3    3    0    0  0.31766274599E+02 -0.45371863352E+02  0.94555922970E+01  0.56188169677E+02  0.00000000000E+00 0. -1.
        -13    1    4    4    0    0  0.91031227376E+02  0.76822411063E+02  0.54958136456E+03  0.56234157188E+03  0.00000000000E+00 0. -1.
         13    1    4    4    0    0 -0.17998447260E+02  0.10361434299E+02  0.39365813958E+02  0.44508097388E+02  0.00000000000E+00 0.  1.
         -2    1    1    2    0  502 -0.49290183582E+02 -0.77752454672E+01  0.16416646888E+03  0.17158265106E+03  0.00000000000E+00 0.  1.
<scales pt_clust_5="13000.00000" pt_clust_6="13000.00000" pt_clust_7="13000.00000" pt_clust_8="13000.00000" pt_clust_9="49.89967"></scales>
<clustering>
<clus scale="   49.900">  1  9  2 -1</clus>
<clus scale="   90.102">  5  6 -1 -1</clus>
<clus scale="   92.049">  7  8 -1 -1</clus>
<clus scale="  123.828">  2  5  1 -1</clus>
<clus scale="   49.900">  1  5  2 -1</clus>
</clustering>
</event>
<event>
 9    1  0.1445593E-005  0.1104593E+03  0.7546771E-02  0.1263106E+00
         21   -1    0    0  501  502  0.00000000000E+00  0.00000000000E+00  0.86320892623E+02  0.86320892623E+02  0.00000000000E+00 0. -1.
          1   -1    0    0  502    0 -0.00000000000E+00 -0.00000000000E+00 -0.21289459966E+03  0.21289459966E+03  0.00000000000E+00 0. -1.
         23    2    1    2    0    0 -0.42555367518E+02  0.23205998469E+02 -0.60264420583E+02  0.11300653035E+03  0.82396588795E+02 0.  0.
         23    2    1    2    0    0  0.77337596058E+02 -0.21202646179E+02 -0.83519112465E+02  0.14735030840E+03  0.91137342894E+02 0.  0.
        -11    1    3    3    0    0 -0.86164170848E+01 -0.26236970483E+02  0.51655334655E+00  0.27620428868E+02  0.00000000000E+00 0.  1.
         11    1    3    3    0    0 -0.33938950433E+02  0.49442968952E+02 -0.60780973930E+02  0.85386101487E+02  0.00000000000E+00 0. -1.
        -11    1    4    4    0    0  0.26324228044E+02  0.34630513817E+02 -0.17249841423E+02  0.46795240126E+02  0.00000000000E+00 0.  1.
         11    1    4    4    0    0  0.51013368014E+02 -0.55833159996E+02 -0.66269271042E+02  0.10055506827E+03  0.00000000000E+00 0. -1.
          1    1    1    2  501    0 -0.34782228541E+02 -0.20033522903E+01  0.17209826011E+02  0.38858653527E+02  0.00000000000E+00 0. -1.
<scales pt_clust_5="13000.00000" pt_clust_6="13000.00000" pt_clust_7="13000.00000" pt_clust_8="13000.00000" pt_clust_9="34.83987"></scales>
<clustering>
<clus scale="   34.840">  1  9  2 -1</clus>
<clus scale="   82.397">  5  6 -1 -1</clus>
<clus scale="   91.137">  7  8 -1 -1</clus>
<clus scale="  103.366">  2  5  1 -1</clus>
<clus scale="   34.840">  1  5  2 -1</clus>
</clustering>
</event>
<event>
 9    1  0.1445593E-005  0.2399150E+03  0.7546771E-02  0.1120589E+00
         21   -1    0    0  501  502  0.00000000000E+00  0.00000000000E+00  0.69187153344E+02  0.69187153344E+02  0.00000000000E+00 0.  1.
          1   -1    0    0  502    0 -0.00000000000E+00 -0.00000000000E+00 -0.10624278748E+04  0.10624278748E+04  0.00000000000E+00 0. -1.
         23    2    1    2    0    0  0.11096303088E+03 -0.17257902392E+03 -0.55589080681E+03  0.60159458192E+03  0.10394776661E+03 0.  0.
         23    2    1    2    0    0 -0.13548064902E+03  0.19511546887E+03 -0.32733761795E+03  0.41507824172E+03  0.93354047445E+02 0.  0.
        -13    1    3    3    0    0 -0.11424483036E+02 -0.66255516756E+02 -0.14304237074E+03  0.15805515537E+03  0.00000000000E+00 0.  1.
         13    1    3    3    0    0  0.12238751391E+03 -0.10632350716E+03 -0.41284843608E+03  0.44353942655E+03  0.00000000000E+00 0. -1.
        -13    1    4    4    0    0 -0.37270701635E+02  0.94975968270E+02 -0.20489552812E+03  0.22889237032E+03  0.00000000000E+00 0. -1.
         13    1    4    4    0    0 -0.98209947386E+02  0.10013950060E+03 -0.12244208983E+03  0.18618587140E+03  0.00000000000E+00 0.  1.
          1    1    1    2  501    0  0.24517618144E+02 -0.22536444956E+02 -0.11001229672E+03  0.11494220452E+03  0.00000000000E+00 0. -1.
<scales pt_clust_5="13000.00000" pt_clust_6="13000.00000" pt_clust_7="13000.00000" pt_clust_8="13000.00000" pt_clust_9="33.30174"></scales>
<clustering>
<clus scale="   33.302">  1  9  2 -1</clus>
<clus scale="   93.354">  7  8 -1 -1</clus>
<clus scale="  103.948">  5  6 -1 -1</clus>
<clus scale="  235.519">  1  7  2 -1</clus>
<clus scale="   33.302">  1  5  2 -1</clus>
</clustering>
</event>
<event>
 9    1  0.1445593E-005  0.1424522E+03  0.7546771E-02  0.1210122E+00
         21   -1    0    0  501  502  0.00000000000E+00  0.00000000000E+00  0.40334818285E+02  0.40334818285E+02  0.00000000000E+00 0. -1.
          1   -1    0    0  502    0 -0.00000000000E+00 -0.00000000000E+00 -0.99595064659E+03  0.99595064659E+03  0.00000000000E+00 0. -1.
         23    2    1    2    0    0 -0.11831613756E+03 -0.28320851094E+02 -0.58672108621E+03  0.60603329027E+03  0.90741043098E+02 0.  0.
         23    2    1    2    0    0  0.60639063031E+02  0.65717962746E+02 -0.13197898747E+03  0.18356560489E+03  0.91005118387E+02 0.  0.
        -11    1    4    4    0    0  0.63950923372E+02  0.41955217684E+02 -0.13892505286E+03  0.15858792893E+03  0.00000000000E+00 0.  1.
         11    1    4    4    0    0 -0.33118603410E+01  0.23762745062E+02  0.69460653912E+01  0.24977675957E+02  0.00000000000E+00 0. -1.
        -13    1    3    3    0    0 -0.76526253447E+02 -0.61627426380E+02 -0.38917208902E+03  0.40138400818E+03  0.00000000000E+00 0. -1.
         13    1    3    3    0    0 -0.41789884110E+02  0.33306575286E+02 -0.19754899719E+03  0.20464928210E+03  0.00000000000E+00 0.  1.
          1    1    1    2  501    0  0.57677074527E+02 -0.37397111652E+02 -0.23691575463E+03  0.24668656971E+03  0.00000000000E+00 0. -1.
<scales pt_clust_5="13000.00000" pt_clust_6="13000.00000" pt_clust_7="13000.00000" pt_clust_8="13000.00000" pt_clust_9="68.74004"></scales>
<clustering>
<clus scale="   68.740">  1  9  2 -1</clus>
<clus scale="   90.741">  7  8 -1 -1</clus>
<clus scale="   91.005">  5  6 -1 -1</clus>
<clus scale="  142.284">  2  7  1 -1</clus>
<clus scale="   68.740">  1  5  2 -1</clus>
</clustering>
</event>
<event>
 9    1  0.1445593E-005  0.9766463E+02  0.7546771E-02  0.1285387E+00
         21   -1    0    0  501  502  0.00000000000E+00  0.00000000000E+00  0.88971276281E+02  0.88971276281E+02  0.00000000000E+00 0. -1.
          1   -1    0    0  502    0 -0.00000000000E+00 -0.00000000000E+00 -0.61162530262E+03  0.61162530262E+03  0.00000000000E+00 0. -1.
         23    2    1    2    0    0 -0.17754268585E+02 -0.24403905713E+02 -0.55052044177E+03  0.55898633682E+03  0.92098877714E+02 0.  0.
         23    2    1    2    0    0  0.32514929363E+02  0.49484391306E+02  0.20024605843E+02  0.11147053668E+03  0.92297183560E+02 0.  0.
        -11    1    3    3    0    0  0.27030485288E+02 -0.41037749628E+02 -0.28142480304E+03  0.28568280276E+03  0.00000000000E+00 0.  1.
         11    1    3    3    0    0 -0.44784753873E+02  0.16633843914E+02 -0.26909563873E+03  0.27330353406E+03  0.00000000000E+00 0. -1.
        -13    1    4    4    0    0  0.27167022176E+02 -0.17669900750E+02 -0.14808496432E+02  0.35630942354E+02  0.00000000000E+00 0.  1.
         13    1    4    4    0    0  0.53479071866E+01  0.67154292056E+02  0.34833102275E+02  0.75839594322E+02  0.00000000000E+00 0. -1.
          1    1    1    2  501    0 -0.14760660778E+02 -0.25080485593E+02  0.78418095903E+01  0.30139705404E+02  0.00000000000E+00 0. -1.
<scales pt_clust_5="13000.00000" pt_clust_6="13000.00000" pt_clust_7="13000.00000" pt_clust_8="13000.00000" pt_clust_9="29.10168"></scales>
<clustering>
<clus scale="   29.102">  1  9  2 -1</clus>
<clus scale="   92.099">  5  6 -1 -1</clus>
<clus scale="   92.297">  7  8 -1 -1</clus>
<clus scale="   97.477">  2  5  1 -1</clus>
<clus scale="   29.102">  1  5  2 -1</clus>
</clustering>
</event>
<event>
 9    1  0.1445593E-005  0.1151008E+03  0.7546771E-02  0.1252137E+00
         -3   -1    0    0    0  501 -0.00000000000E+00  0.00000000000E+00  0.20069433116E+03  0.20069433116E+03  0.00000000000E+00 0.  1.
         21   -1    0    0  501  502  0.00000000000E+00 -0.00000000000E+00 -0.11439029047E+03  0.11439029047E+03  0.00000000000E+00 0. -1.
         23    2    1    2    0    0  0.67857614665E+02  0.17517998044E+02  0.13042242287E+03  0.17330374841E+03  0.90070220944E+02 0.  0.
         23    2    1    2    0    0 -0.67140337049E+02  0.31399937017E+01 -0.36879693230E+02  0.11987960094E+03  0.92159223782E+02 0.  0.
        -11    1    3    3    0    0  0.38475635276E+02  0.52076132697E+02  0.53448201077E+02  0.83958372453E+02  0.00000000000E+00 0. -1.
         11    1    3    3    0    0  0.29381979388E+02 -0.34558134653E+02  0.76974221796E+02  0.89345375956E+02  0.00000000000E+00 0.  1.
        -13    1    4    4    0    0 -0.67616372273E+02 -0.22972386197E+02  0.38275447295E+01  0.71514714749E+02  0.00000000000E+00 0.  1.
         13    1    4    4    0    0  0.47603522391E+00  0.26112379899E+02 -0.40707237960E+02  0.48364886187E+02  0.00000000000E+00 0. -1.
         -3    1    1    2    0  502 -0.71727761570E+00 -0.20657991745E+02 -0.72386889470E+01  0.21901272287E+02  0.00000000000E+00 0.  1.
<scales pt_clust_5="13000.00000" pt_clust_6="13000.00000" pt_clust_7="13000.00000" pt_clust_8="13000.00000" pt_clust_9="20.67044"></scales>
<clustering>
<clus scale="   20.670">  2  9  1 -1</clus>
<clus scale="   90.070">  5  6 -1 -1</clus>
<clus scale="   92.159">  7  8 -1 -1</clus>
<clus scale="  113.435">  1  5  2 -1</clus>
<clus scale="   20.670">  2  5  1 -1</clus>
</clustering>
</event>
<event>
 9    1  0.1445593E-005  0.1087423E+03  0.7546771E-02  0.1263067E+00
         -3   -1    0    0    0  501 -0.00000000000E+00  0.00000000000E+00  0.18536939044E+03  0.18536939044E+03  0.00000000000E+00 0.  1.
         21   -1    0    0  501  502  0.00000000000E+00 -0.00000000000E+00 -0.27380642778E+03  0.27380642778E+03  0.00000000000E+00 0. -1.
         23    2    1    2    0    0  0.56990957448E+02  0.14360253948E+01  0.14108307616E+03  0.17716767195E+03  0.90740940077E+02 0.  0.
         23    2    1    2    0    0 -0.86346912122E+02 -0.66295036626E+01 -0.14065820706E+03  0.18827884078E+03  0.90357352334E+02 0.  0.
        -11    1    3    3    0    0 -0.20959326323E+02 -0.13205466832E+02  0.17528164888E+02  0.30346569468E+02  0.00000000000E+00 0. -1.
         11    1    3    3    0    0  0.77950283771E+02  0.14641492226E+02  0.12355491128E+03  0.14682110249E+03  0.00000000000E+00 0.  1.
        -11    1    4    4    0    0 -0.71411559287E+02  0.34977309356E+02 -0.10357197050E+03  0.13057632267E+03  0.00000000000E+00 0. -1.
         11    1    4    4    0    0 -0.14935352835E+02 -0.41606813018E+02 -0.37086236560E+02  0.57702518108E+02  0.00000000000E+00 0.  1.
         -3    1    1    2    0  502  0.29355954674E+02  0.51934782678E+01 -0.88861906445E+02  0.93729305494E+02  0.00000000000E+00 0.  1.
<scales pt_clust_5="13000.00000" pt_clust_6="13000.00000" pt_clust_7="13000.00000" pt_clust_8="13000.00000" pt_clust_9="29.81181"></scales>
<clustering>
<clus scale="   29.812">  2  9  1 -1</clus>
<clus scale="   90.357">  7  8 -1 -1</clus>
<clus scale="   90.741">  5  6 -1 -1</clus>
<clus scale="  108.422">  2  7  1 -1</clus>
<clus scale="   29.812">  2  5  1 -1</clus>
</clustering>
</event>
<event>
 9    1  0.1445593E-005  0.1021291E+03  0.7546771E-02  0.1276163E+00
         21   -1    0    0  501  502  0.00000000000E+00  0.00000000000E+00  0.61520335906E+02  0.61520335906E+02  0.00000000000E+00 0.  1.
          1   -1    0    0  502    0 -0.00000000000E+00 -0.00000000000E+00 -0.28532202756E+03  0.28532202756E+03  0.00000000000E+00 0. -1.
         23    2    1    2    0    0 -0.52188955194E+02  0.12872367148E+02 -0.14117186809E+03  0.17647778470E+03  0.91244327349E+02 0.  0.
         23    2    1    2    0    0  0.38114079847E+02  0.16588010364E+02 -0.92756034176E+02  0.13618042892E+03  0.90628815366E+02 0.  0.
        -11    1    3    3    0    0 -0.22658635539E+02  0.51479613282E+02 -0.63272191358E+02  0.84657749482E+02  0.00000000000E+00 0.  1.
         11    1    3    3    0    0 -0.29530319655E+02 -0.38607246134E+02 -0.77899676732E+02  0.91820035221E+02  0.00000000000E+00 0. -1.
        -11    1    4    4    0    0  0.21992422986E+02 -0.36319605838E+02 -0.27268149757E+02  0.50461197253E+02  0.00000000000E+00 0. -1.
         11    1    4    4    0    0  0.16121656861E+02  0.52907616202E+02 -0.65487884418E+02  0.85719231668E+02  0.00000000000E+00 0.  1.
          1    1    1    2  501    0  0.14074875347E+02 -0.29460377513E+02  0.10126210611E+02  0.34184149844E+02  0.00000000000E+00 0. -1.
<scales pt_clust_5="13000.00000" pt_clust_6="13000.00000" pt_clust_7="13000.00000" pt_clust_8="13000.00000" pt_clust_9="32.64990"></scales>
<clustering>
<clus scale="   32.650">  1  9  2 -1</clus>
<clus scale="   90.629">  7  8 -1 -1</clus>
<clus scale="   91.244">  5  6 -1 -1</clus>
<clus scale="  101.580">  1  7  2 -1</clus>
<clus scale="   32.650">  1  5  2 -1</clus>
</clustering>
</event>
<event>
 9    1  0.1445593E-005  0.9751441E+02  0.7546771E-02  0.1287424E+00
         21   -1    0    0  501  502  0.00000000000E+00  0.00000000000E+00  0.46306141703E+02  0.46306141703E+02  0.00000000000E+00 0.  1.
          1   -1    0    0  502    0 -0.00000000000E+00 -0.00000000000E+00 -0.38828799306E+03  0.38828799306E+03  0.00000000000E+00 0. -1.
         23    2    1    2    0    0  0.56225656277E+01  0.27396449955E+02 -0.20137306204E+03  0.22124852947E+03  0.87278994966E+02 0.  0.
         23    2    1    2    0    0 -0.64648061067E+01 -0.60698440272E+02 -0.57054264829E+02  0.12339511619E+03  0.90802374387E+02 0.  0.
        -11    1    4    4    0    0 -0.20157459126E+02 -0.45692734363E+02 -0.79018148114E+02  0.93477360165E+02  0.00000000000E+00 0. -1.
         11    1    4    4    0    0  0.13692653019E+02 -0.15005705909E+02  0.21963883284E+02  0.29917756023E+02  0.00000000000E+00 0.  1.
        -13    1    3    3    0    0  0.42727844911E+02  0.37007531594E+01 -0.64400167674E+02  0.77374064784E+02  0.00000000000E+00 0.  1.
         13    1    3    3    0    0 -0.37105279283E+02  0.23695696796E+02 -0.13697289437E+03  0.14387446469E+03  0.00000000000E+00 0. -1.
          1    1    1    2  501    0  0.84224047906E+00  0.33301990317E+02 -0.83554524484E+02  0.89950489103E+02  0.00000000000E+00 0. -1.
<scales pt_clust_5="13000.00000" pt_clust_6="13000.00000" pt_clust_7="13000.00000" pt_clust_8="13000.00000" pt_clust_9="33.31266"></scales>
<clustering>
<clus scale="   33.313">  1  9  2 -1</clus>
<clus scale="   87.279">  7  8 -1 -1</clus>
<clus scale="   90.802">  5  6 -1 -1</clus>
<clus scale="   94.242">  2  7  1 -1</clus>
<clus scale="   33.313">  1  5  2 -1</clus>
</clustering>
</event>
<event>
 9    1  0.1445593E-005  0.4735080E+03  0.7546771E-02  0.1020941E+00
         21   -1    0    0  501  502  0.00000000000E+00  0.00000000000E+00  0.14357415817E+03  0.14357415817E+03  0.00000000000E+00 0.  1.
          2   -1    0    0  502    0 -0.00000000000E+00 -0.00000000000E+00 -0.19343017816E+04  0.19343017816E+04  0.00000000000E+00 0. -1.
         23    2    1    2    0    0  0.36275279799E+03 -0.28578338644E+03 -0.10499775984E+04  0.11506023251E+04  0.90393678009E+02 0.  0.
         23    2    1    2    0    0 -0.35635795074E+03  0.30509163598E+03 -0.76105235904E+03  0.89853535902E+03  0.89962229895E+02 0.  0.
        -13    1    4    4    0    0 -0.28894285390E+03  0.20053633293E+03 -0.59280000357E+03  0.68928559965E+03  0.00000000000E+00 0. -1.
         13    1    4    4    0    0 -0.67415096843E+02  0.10455530304E+03 -0.16825235547E+03  0.20924975937E+03  0.00000000000E+00 0.  1.
        -13    1    3    3    0    0  0.36078893484E+03 -0.26494501282E+03 -0.97656562261E+03  0.10742648326E+04  0.00000000000E+00 0. -1.
         13    1    3    3    0    0  0.19638631466E+01 -0.20838373625E+02 -0.73411975787E+02  0.76337492510E+02  0.00000000000E+00 0.  1.
          2    1    1    2  501    0 -0.63948472524E+01 -0.19308249536E+02  0.20302333996E+02  0.28738255639E+02  0.00000000000E+00 0. -1.
<scales pt_clust_5="13000.00000" pt_clust_6="13000.00000" pt_clust_7="13000.00000" pt_clust_8="13000.00000" pt_clust_9="20.33968"></scales>
<clustering>
<clus scale="   20.340">  1  9  2 -1</clus>
<clus scale="   89.962">  5  6 -1 -1</clus>
<clus scale="   90.394">  7  8 -1 -1</clus>
<clus scale="  473.426">  1  5  2 -1</clus>
<clus scale="   20.340">  1  5  2 -1</clus>
</clustering>
</event>
<event>
 9    1  0.1445593E-005  0.9461143E+02  0.7546771E-02  0.1296187E+00
         -1   -1    0    0    0  501 -0.00000000000E+00  0.00000000000E+00  0.39842641224E+03  0.39842641224E+03  0.00000000000E+00 0.  1.
         21   -1    0    0  501  502  0.00000000000E+00 -0.00000000000E+00 -0.16323390970E+03  0.16323390970E+03  0.00000000000E+00 0. -1.
         23    2    1    2    0    0  0.52804798229E+01 -0.37143153747E+01  0.28263478811E+03  0.29568807937E+03  0.86644891522E+02 0.  0.
         23    2    1    2    0    0 -0.35434697854E+02  0.11223339907E+02  0.83799922763E+02  0.13110126882E+03  0.93720512483E+02 0.  0.
        -11    1    4    4    0    0  0.26111593348E+02  0.47123185867E+01 -0.48050353615E+00  0.26537749288E+02  0.00000000000E+00 0.  1.
         11    1    4    4    0    0 -0.61546291202E+02  0.65110213206E+01  0.84280426299E+02  0.10456351953E+03  0.00000000000E+00 0. -1.
        -13    1    3    3    0    0 -0.14047843714E+02  0.37571619552E+02  0.10823063871E+03  0.11542460597E+03  0.00000000000E+00 0. -1.
         13    1    3    3    0    0  0.19328323537E+02 -0.41285934926E+02  0.17440414940E+03  0.18026347340E+03  0.00000000000E+00 0.  1.
         -1    1    1    2    0  502  0.30154218031E+02 -0.75090245327E+01 -0.13124220833E+03  0.13487097376E+03  0.00000000000E+00 0.  1.
<scales pt_clust_5="13000.00000" pt_clust_6="13000.00000" pt_clust_7="13000.00000" pt_clust_8="13000.00000" pt_clust_9="31.07511"></scales>
<clustering>
<clus scale="   31.075">  2  9  1 -1</clus>
<clus scale="   86.645">  7  8 -1 -1</clus>
<clus scale="   87.608">  1  7  2 -1</clus>
<clus scale="   93.721">  5  6 -1 -1</clus>
<clus scale="   31.075">  2  5  1 -1</clus>
</clustering>
</event>
<event>
 9    1  0.1445593E-005  0.1119235E+03  0.7546771E-02  0.1257362E+00
         21   -1    0    0  501  502  0.00000000000E+00  0.00000000000E+00  0.49337370350E+02  0.49337370350E+02  0.00000000000E+00 0.  1.
          1   -1    0    0  502    0 -0.00000000000E+00 -0.00000000000E+00 -0.40851325339E+03  0.40851325339E+03  0.00000000000E+00 0. -1.
         23    2    1    2    0    0  0.46706101453E+01 -0.73478455475E+02 -0.27269713999E+03  0.29611619540E+03  0.88882917356E+02 0.  0.
         23    2    1    2    0    0  0.11352115404E+02  0.56676883489E+02 -0.89663035876E+02  0.13830025935E+03  0.88013419933E+02 0.  0.
        -11    1    4    4    0    0 -0.23529307915E+02  0.47914937581E+00  0.37603115359E+01  0.23832705636E+02  0.00000000000E+00 0.  1.
         11    1    4    4    0    0  0.34881423319E+02  0.56197734113E+02 -0.93423347411E+02  0.11446755372E+03  0.00000000000E+00 0. -1.
        -11    1    3    3    0    0 -0.17039789661E+02 -0.31669148569E+02 -0.24564843396E+02  0.43551359724E+02  0.00000000000E+00 0. -1.
         11    1    3    3    0    0  0.21710399806E+02 -0.41809306907E+02 -0.24813229660E+03  0.25256483567E+03  0.00000000000E+00 0.  1.
          1    1    1    2  501    0 -0.16022725549E+02  0.16801571986E+02  0.31842928339E+01  0.23434168987E+02  0.00000000000E+00 0. -1.
<scales pt_clust_5="13000.00000" pt_clust_6="13000.00000" pt_clust_7="13000.00000" pt_clust_8="13000.00000" pt_clust_9="23.21682"></scales>
<clustering>
<clus scale="   23.217">  1  9  2 -1</clus>
<clus scale="   88.013">  5  6 -1 -1</clus>
<clus scale="   88.883">  7  8 -1 -1</clus>
<clus scale="  111.234">  1  5  2 -1</clus>
<clus scale="   23.217">  1  5  2 -1</clus>
</clustering>
</event>
<event>
 9    1  0.1445593E-005  0.1068832E+03  0.7546771E-02  0.1268835E+00
         21   -1    0    0  501  502  0.00000000000E+00  0.00000000000E+00  0.12689046330E+03  0.12689046330E+03  0.00000000000E+00 0. -1.
         -1   -1    0    0    0  501 -0.00000000000E+00 -0.00000000000E+00 -0.13296447424E+03  0.13296447424E+03  0.00000000000E+00 0.  1.
         23    2    1    2    0    0  0.12180012877E+02 -0.57252052445E+02 -0.24578509941E+02  0.11364522111E+03  0.94260187287E+02 0.  0.
         23    2    1    2    0    0 -0.19867667030E+02  0.32237878467E+02  0.47166120334E+02  0.10739866822E+03  0.88745850761E+02 0.  0.
        -11    1    3    3    0    0 -0.85804739652E+01 -0.62883101961E+02  0.17976479079E+02  0.65962586713E+02  0.00000000000E+00 0. -1.
         11    1    3    3    0    0  0.20760486842E+02  0.56310495165E+01 -0.42554989020E+02  0.47682634398E+02  0.00000000000E+00 0.  1.
        -11    1    4    4    0    0  0.30067005956E+02 -0.13203717240E+01  0.34743730342E+02  0.45966237900E+02  0.00000000000E+00 0.  1.
         11    1    4    4    0    0 -0.49934672986E+02  0.33558250191E+02  0.12422389993E+02  0.61432430322E+02  0.00000000000E+00 0. -1.
         -1    1    1    2    0  502  0.76876541532E+01  0.25014173978E+02 -0.28661621329E+02  0.38811048213E+02  0.00000000000E+00 0.  1.
<scales pt_clust_5="13000.00000" pt_clust_6="13000.00000" pt_clust_7="13000.00000" pt_clust_8="13000.00000" pt_clust_9="26.16887"></scales>
<clustering>
<clus scale="   26.169">  1  9  2 -1</clus>
<clus scale="   88.746">  7  8 -1 -1</clus>
<clus scale="   94.260">  5  6 -1 -1</clus>
<clus scale="  102.053">  1  7  2 -1</clus>
<clus scale="   26.169">  1  5  2 -1</clus>
</clustering>
</event>
<event>
 9    1  0.1445593E-005  0.9996389E+02  0.7546771E-02  0.1280539E+00
         21   -1    0    0  501  502  0.00000000000E+00  0.00000000000E+00  0.14752880660E+03  0.14752880660E+03  0.00000000000E+00 0. -1.
         -4   -1    0    0    0  501 -0.00000000000E+00 -0.00000000000E+00 -0.18507186218E+03  0.18507186218E+03  0.00000000000E+00 0.  1.
         23    2    1    2    0    0 -0.55462808119E+02 -0.20449204364E-01 -0.55942172011E+02  0.12112086948E+03  0.92003341856E+02 0.  0.
         23    2    1    2    0    0 -0.17446017511E+02  0.68642307486E+02  0.19547772243E+02  0.11135000503E+03  0.83669458681E+02 0.  0.
        -11    1    3    3    0    0 -0.79529939237E+02  0.11305645151E+02 -0.46946202154E+02  0.93041790309E+02  0.00000000000E+00 0. -1.
         11    1    3    3    0    0  0.24067131118E+02 -0.11326094355E+02 -0.89959698577E+01  0.28079079175E+02  0.00000000000E+00 0.  1.
        -13    1    4    4    0    0 -0.23938066568E+02  0.49182515971E+02 -0.26618093471E+02  0.60831519858E+02  0.00000000000E+00 0.  1.
         13    1    4    4    0    0  0.64920490565E+01  0.19459791515E+02  0.46165865713E+02  0.50518485170E+02  0.00000000000E+00 0. -1.
         -4    1    1    2    0  502  0.72908825630E+02 -0.68621858281E+02 -0.11486558105E+01  0.10012979426E+03  0.00000000000E+00 0.  1.
<scales pt_clust_5="13000.00000" pt_clust_6="13000.00000" pt_clust_7="13000.00000" pt_clust_8="13000.00000" pt_clust_9="100.12321"></scales>
<clustering>
<clus scale="   83.669">  7  8 -1 -1</clus>
<clus scale="   92.003">  5  6 -1 -1</clus>
<clus scale="  100.123">  1  9  2 -1</clus>
<clus scale="  100.123">  1  7  2 -1</clus>
<clus scale="   99.964">  1  5  2 -1</clus>
</clustering>
</event>
<event>
 9    1  0.1445593E-005  0.1545628E+03  0.7546771E-02  0.1196278E+00
         21   -1    0    0  501  502  0.00000000000E+00  0.00000000000E+00  0.62136242549E+03  0.62136242549E+03  0.00000000000E+00 0. -1.
         -1   -1    0    0    0  501 -0.00000000000E+00 -0.00000000000E+00 -0.55779369520E+02  0.55779369520E+02  0.00000000000E+00 0.  1.
         23    2    1    2    0    0  0.95981358105E+02 -0.89774660924E+02  0.18458871004E+03  0.24684160709E+03  0.97907488304E+02 0.  0.
         23    2    1    2    0    0 -0.64860067938E+02  0.87327673474E+02  0.19154533449E+03  0.23829641092E+03  0.90898918175E+02 0.  0.
        -13    1    3    3    0    0  0.40032424549E+02  0.10552118738E+01  0.84680794271E+01  0.40931856256E+02  0.00000000000E+00 0.  1.
         13    1    3    3    0    0  0.55948933556E+02 -0.90829872798E+02  0.17612063062E+03  0.20590975083E+03  0.00000000000E+00 0. -1.
        -13    1    4    4    0    0  0.14858691564E+02  0.52418412633E+02  0.80680206893E+02  0.97353821097E+02  0.00000000000E+00 0.  1.
         13    1    4    4    0    0 -0.79718759501E+02  0.34909260841E+02  0.11086512760E+03  0.14094258982E+03  0.00000000000E+00 0. -1.
         -1    1    1    2    0  502 -0.31121290167E+02  0.24469874507E+01  0.18944901143E+03  0.19200377700E+03  0.00000000000E+00 0.  1.
<scales pt_clust_5="13000.00000" pt_clust_6="13000.00000" pt_clust_7="13000.00000" pt_clust_8="13000.00000" pt_clust_9="31.21734"></scales>
<clustering>
<clus scale="   31.217">  1  9  2 -1</clus>
<clus scale="   90.899">  7  8 -1 -1</clus>
<clus scale="   97.907">  5  6 -1 -1</clus>
<clus scale="  150.221">  1  7  2 -1</clus>
<clus scale="   31.217">  1  5  2 -1</clus>
</clustering>
</event>
<event>
 9    1  0.1445593E-005  0.1161242E+03  0.7546771E-02  0.1251090E+00
         21   -1    0    0  501  502  0.00000000000E+00  0.00000000000E+00  0.70039761844E+02  0.70039761844E+02  0.00000000000E+00 0.  1.
         -2   -1    0    0    0  501 -0.00000000000E+00 -0.00000000000E+00 -0.34771892951E+03  0.34771892951E+03  0.00000000000E+00 0.  1.
         23    2    1    2    0    0 -0.53461319372E+02  0.56363696465E+02 -0.22687958627E+03  0.25661500940E+03  0.91334207380E+02 0.  0.
         23    2    1    2    0    0  0.53658127579E+02 -0.31121154643E+02 -0.71411807209E+02  0.12855398260E+03  0.87056069931E+02 0.  0.
        -11    1    3    3    0    0 -0.34099169651E+02  0.80863988684E+02 -0.15255008779E+03  0.17599223653E+03  0.00000000000E+00 0.  1.
         11    1    3    3    0    0 -0.19362149720E+02 -0.24500292219E+02 -0.74329498478E+02  0.80622772866E+02  0.00000000000E+00 0. -1.
        -11    1    4    4    0    0 -0.19435626073E+02 -0.22433050057E+02 -0.36617894561E+02  0.47136562219E+02  0.00000000000E+00 0. -1.
         11    1    4    4    0    0  0.73093753651E+02 -0.86881045866E+01 -0.34793912647E+02  0.81417420381E+02  0.00000000000E+00 0.  1.
         -2    1    1    2    0  502 -0.19680820671E+00 -0.25242541822E+02  0.20612225809E+02  0.32589699353E+02  0.00000000000E+00 0.  1.
<scales pt_clust_5="13000.00000" pt_clust_6="13000.00000" pt_clust_7="13000.00000" pt_clust_8="13000.00000" pt_clust_9="25.24331"></scales>
<clustering>
<clus scale="   25.243">  1  9  2 -1</clus>
<clus scale="   87.056">  7  8 -1 -1</clus>
<clus scale="   91.334">  5  6 -1 -1</clus>
<clus scale="  112.790">  1  7  2 -1</clus>
<clus scale="   25.243">  1  5  2 -1</clus>
</clustering>
</event>
<event>
 9    1  0.1445593E-005  0.1230687E+03  0.7546771E-02  0.1245194E+00
         -1   -1    0    0    0  501 -0.00000000000E+00  0.00000000000E+00  0.29604450507E+03  0.29604450507E+03  0.00000000000E+00 0.  1.
         21   -1    0    0  501  502  0.00000000000E+00 -0.00000000000E+00 -0.96613573410E+02  0.96613573410E+02  0.00000000000E+00 0.  1.
         23    2    1    2    0    0 -0.60431859453E+02 -0.63329159812E+02  0.14491194767E+03  0.19343339421E+03  0.93565021782E+02 0.  0.
         23    2    1    2    0    0  0.27746360056E+02  0.70687433053E+02  0.99129226917E+02  0.14343436405E+03  0.70570811759E+02 0.  0.
        -11    1    4    4    0    0  0.50920732616E+02  0.52544743582E+02  0.60964469387E+02  0.95239370094E+02  0.00000000000E+00 0. -1.
         11    1    4    4    0    0 -0.23174372560E+02  0.18142689471E+02  0.38164757529E+02  0.48194993952E+02  0.00000000000E+00 0.  1.
        -13    1    3    3    0    0  0.76699537276E+00  0.22611664110E+02  0.25525220456E+02  0.34108833388E+02  0.00000000000E+00 0. -1.
         13    1    3    3    0    0 -0.61198854825E+02 -0.85940823923E+02  0.11938672721E+03  0.15932456083E+03  0.00000000000E+00 0.  1.
         -1    1    1    2    0  502  0.32685499396E+02 -0.73582732401E+01 -0.44610242927E+02  0.55790320217E+02  0.00000000000E+00 0.  1.
<scales pt_clust_5="13000.00000" pt_clust_6="13000.00000" pt_clust_7="13000.00000" pt_clust_8="13000.00000" pt_clust_9="33.50352"></scales>
<clustering>
<clus scale="   33.504">  2  9  1 -1</clus>
<clus scale="   70.571">  5  6 -1 -1</clus>
<clus scale="   93.565">  7  8 -1 -1</clus>
<clus scale="  106.638">  2  5  1 -1</clus>
<clus scale="   33.504">  2  5  1 -1</clus>
</clustering>
</event>
<event>
 9    1  0.1445593E-005  0.1718090E+03  0.7546771E-02  0.1202174E+00
         21   -1    0    0  501  502  0.00000000000E+00  0.00000000000E+00  0.69059403437E+02  0.69059403437E+02  0.00000000000E+00 0. -1.
          1   -1    0    0  502    0 -0.00000000000E+00 -0.00000000000E+00 -0.64531533104E+03  0.64531533104E+03  0.00000000000E+00 0. -1.
         23    2    1    2    0    0  0.15237714055E+02  0.41811754936E+02 -0.17943820169E+03  0.20360398754E+03  0.85300086390E+02 0.  0.
         23    2    1    2    0    0 -0.11905750704E+03  0.70941105891E+02 -0.18568522173E+03  0.24987097429E+03  0.93537007315E+02 0.  0.
        -11    1    3    3    0    0  0.77991094130E+01 -0.25971045856E+02 -0.39185674178E+02  0.47653314588E+02  0.00000000000E+00 0.  1.
         11    1    3    3    0    0  0.74386046421E+01  0.67782800792E+02 -0.14025252751E+03  0.15595067295E+03  0.00000000000E+00 0. -1.
        -13    1    4    4    0    0 -0.11098940520E+03  0.20493236943E+02 -0.14924929313E+03  0.18712020823E+03  0.00000000000E+00 0. -1.
         13    1    4    4    0    0 -0.80681018373E+01  0.50447868948E+02 -0.36435928598E+02  0.62750766063E+02  0.00000000000E+00 0.  1.
          1    1    1    2  501    0  0.10381979299E+03 -0.11275286083E+03 -0.21113250419E+03  0.26089977264E+03  0.00000000000E+00 0. -1.
<scales pt_clust_5="13000.00000" pt_clust_6="13000.00000" pt_clust_7="13000.00000" pt_clust_8="13000.00000" pt_clust_9="144.11511"></scales>
<clustering>
<clus scale="   85.300">  5  6 -1 -1</clus>
<clus scale="   93.537">  7  8 -1 -1</clus>
<clus scale="   96.211">  2  5  1 -1</clus>
<clus scale="  144.115">  1  9  2 -1</clus>
<clus scale="  144.115">  1  5  2 -1</clus>
</clustering>
</event>
<event>
 9    1  0.1445593E-005  0.1389458E+03  0.7546771E-02  0.1215371E+00
          2   -1    0    0  502    0 -0.00000000000E+00  0.00000000000E+00  0.50441732718E+03  0.50441732718E+03  0.00000000000E+00 0. -1.
         21   -1    0    0  501  502  0.00000000000E+00 -0.00000000000E+00 -0.10786169433E+03  0.10786169433E+03  0.00000000000E+00 0. -1.
         23    2    1    2    0    0  0.36830276594E+02  0.10653342966E+03  0.39091841789E+03  0.41708279231E+03  0.91842284841E+02 0.  0.
         23    2    1    2    0    0 -0.43087860459E+02 -0.68573665326E+02  0.55201936200E+02  0.13245260279E+03  0.89092799549E+02 0.  0.
        -11    1    3    3    0    0 -0.25432111325E+02  0.15882628093E+02  0.13914926853E+03  0.14234313855E+03  0.00000000000E+00 0.  1.
         11    1    3    3    0    0  0.62262387919E+02  0.90650801572E+02  0.25176914936E+03  0.27473965375E+03  0.00000000000E+00 0. -1.
        -13    1    4    4    0    0  0.89011183033E+01 -0.18623905338E+02 -0.19669355006E+02  0.28512510999E+02  0.00000000000E+00 0.  1.
         13    1    4    4    0    0 -0.51988978762E+02 -0.49949759988E+02  0.74871291206E+02  0.10394009180E+03  0.00000000000E+00 0. -1.
          2    1    1    2  501    0  0.62575838644E+01 -0.37959764338E+02 -0.49564721237E+02  0.62743626415E+02  0.00000000000E+00 0. -1.
<scales pt_clust_5="13000.00000" pt_clust_6="13000.00000" pt_clust_7="13000.00000" pt_clust_8="13000.00000" pt_clust_9="38.47208"></scales>
<clustering>
<clus scale="   38.472">  2  9  1 -1</clus>
<clus scale="   89.093">  7  8 -1 -1</clus>
<clus scale="   91.842">  5  6 -1 -1</clus>
<clus scale="  137.144">  2  7  1 -1</clus>
<clus scale="   38.472">  2  5  1 -1</clus>
</clustering>
</event>
<event>
 9    1  0.1445593E-005  0.9329901E+02  0.7546771E-02  0.1295521E+00
         21   -1    0    0  501  502  0.00000000000E+00  0.00000000000E+00  0.11757109055E+03  0.11757109055E+03  0.00000000000E+00 0. -1.
          1   -1    0    0  502    0 -0.00000000000E+00 -0.00000000000E+00 -0.27712112961E+03  0.27712112961E+03  0.00000000000E+00 0. -1.
         23    2    1    2    0    0  0.15881734711E+02  0.23751926196E+02 -0.17412815072E+03  0.19866503842E+03  0.91273222370E+02 0.  0.
         23    2    1    2    0    0  0.68792711243E+01  0.11218183935E+02 -0.59910948767E+02  0.11064807356E+03  0.92089643171E+02 0.  0.
        -13    1    4    4    0    0  0.33358487709E+02 -0.29359458236E+02 -0.31627716058E+02  0.54544283964E+02  0.00000000000E+00 0.  1.
         13    1    4    4    0    0 -0.26479216585E+02  0.40577642171E+02 -0.28283232709E+02  0.56103789601E+02  0.00000000000E+00 0. -1.
        -13    1    3    3    0    0  0.46936351073E+02  0.21582754885E+02 -0.54670086524E+02  0.75217383104E+02  0.00000000000E+00 0.  1.
         13    1    3    3    0    0 -0.31054616362E+02  0.21691713113E+01 -0.11945806420E+03  0.12344765532E+03  0.00000000000E+00 0. -1.
          1    1    1    2  501    0 -0.22761005835E+02 -0.34970110131E+02  0.74489060424E+02  0.85379108170E+02  0.00000000000E+00 0. -1.
<scales pt_clust_5="13000.00000" pt_clust_6="13000.00000" pt_clust_7="13000.00000" pt_clust_8="13000.00000" pt_clust_9="41.72496"></scales>
<clustering>
<clus scale="   41.725">  1  9  2 -1</clus>
<clus scale="   91.273">  7  8 -1 -1</clus>
<clus scale="   92.090">  5  6 -1 -1</clus>
<clus scale="   92.493">  2  7  1 -1</clus>
<clus scale="   41.725">  1  5  2 -1</clus>
</clustering>
</event>
<event>
 9    1  0.1445593E-005  0.9888910E+02  0.7546771E-02  0.1282795E+00
          3   -1    0    0  502    0 -0.00000000000E+00  0.00000000000E+00  0.12187055281E+03  0.12187055281E+03  0.00000000000E+00 0. -1.
         21   -1    0    0  501  502  0.00000000000E+00 -0.00000000000E+00 -0.13720357056E+03  0.13720357056E+03  0.00000000000E+00 0. -1.
         23    2    1    2    0    0  0.27529993306E+02  0.22215422750E+02  0.46345710649E+02  0.10784668264E+03  0.90727925804E+02 0.  0.
         23    2    1    2    0    0 -0.17404566700E+02 -0.47054159239E+02 -0.26996321943E+02  0.10738275563E+03  0.91023304510E+02 0.  0.
        -11    1    4    4    0    0  0.26912063906E+02 -0.45232138594E+02  0.47373720008E+01  0.52845512950E+02  0.00000000000E+00 0. -1.
         11    1    4    4    0    0 -0.44316630606E+02 -0.18220206450E+01 -0.31733693944E+02  0.54537242677E+02  0.00000000000E+00 0.  1.
        -13    1    3    3    0    0  0.49305467163E+02  0.27539276091E+02  0.12334116369E+00  0.56475269215E+02  0.00000000000E+00 0. -1.
         13    1    3    3    0    0 -0.21775473857E+02 -0.53238533419E+01  0.46222369485E+02  0.51371413421E+02  0.00000000000E+00 0.  1.
          3    1    1    2  501    0 -0.10125426607E+02  0.24838736489E+02 -0.34682406462E+02  0.43844685109E+02  0.00000000000E+00 0. -1.
<scales pt_clust_5="13000.00000" pt_clust_6="13000.00000" pt_clust_7="13000.00000" pt_clust_8="13000.00000" pt_clust_9="26.82326"></scales>
<clustering>
<clus scale="   26.823">  2  9  1 -1</clus>
<clus scale="   90.728">  7  8 -1 -1</clus>
<clus scale="   91.023">  5  6 -1 -1</clus>
<clus scale="   98.617">  1  7  2 -1</clus>
<clus scale="   26.823">  2  5  1 -1</clus>
</clustering>
</event>
<event>
 9    1  0.1445593E-005  0.1018648E+03  0.7546771E-02  0.1279884E+00
         -3   -1    0    0    0  501 -0.00000000000E+00  0.00000000000E+00  0.37936743583E+03  0.37936743583E+03  0.00000000000E+00 0.  1.
         21   -1    0    0  501  502  0.00000000000E+00 -0.00000000000E+00 -0.95187410730E+02  0.95187410730E+02  0.00000000000E+00 0.  1.
         23    2    1    2    0    0  0.62797708134E+01 -0.29805929466E+02  0.28170584686E+03  0.29777892216E+03  0.91576598405E+02 0.  0.
         23    2    1    2    0    0 -0.19250749976E+02  0.74226835191E+01  0.57644109873E+02  0.11584171926E+03  0.98340088027E+02 0.  0.
        -11    1    3    3    0    0 -0.70837608617E+01 -0.57790224663E+02  0.12316143096E+03  0.13623005473E+03  0.00000000000E+00 0. -1.
         11    1    3    3    0    0  0.13363531675E+02  0.27984295197E+02  0.15854441590E+03  0.16154886743E+03  0.00000000000E+00 0.  1.
        -11    1    4    4    0    0  0.29723303032E+02  0.29103026296E+02  0.44044678791E+02  0.60583781762E+02  0.00000000000E+00 0.  1.
         11    1    4    4    0    0 -0.48974053009E+02 -0.21680342777E+02  0.13599431081E+02  0.55257937500E+02  0.00000000000E+00 0. -1.
         -3    1    1    2    0  502  0.12970979163E+02  0.22383245947E+02 -0.55169931632E+02  0.60934205138E+02  0.00000000000E+00 0.  1.
<scales pt_clust_5="13000.00000" pt_clust_6="13000.00000" pt_clust_7="13000.00000" pt_clust_8="13000.00000" pt_clust_9="25.86998"></scales>
<clustering>
<clus scale="   25.870">  2  9  1 -1</clus>
<clus scale="   91.577">  5  6 -1 -1</clus>
<clus scale="   95.352">  1  5  2 -1</clus>
<clus scale="   98.340">  7  8 -1 -1</clus>
<clus scale="   25.870">  2  5  1 -1</clus>
</clustering>
</event>
<event>
 9    1  0.1445593E-005  0.1294066E+03  0.7546771E-02  0.1228636E+00
         21   -1    0    0  501  502  0.00000000000E+00  0.00000000000E+00  0.34745836950E+02  0.34745836950E+02  0.00000000000E+00 0.  1.
          1   -1    0    0  502    0 -0.00000000000E+00 -0.00000000000E+00 -0.69809689059E+03  0.69809689059E+03  0.00000000000E+00 0. -1.
         23    2    1    2    0    0 -0.11780536063E+02 -0.81522119343E+02 -0.42032132735E+03  0.43861750158E+03  0.94502156009E+02 0.  0.
         23    2    1    2    0    0  0.23329353604E+02  0.98217896350E+02 -0.23520881046E+03  0.27246997646E+03  0.93411400011E+02 0.  0.
        -13    1    4    4    0    0  0.21297244593E+02  0.53223242218E+02 -0.21604646424E+03  0.22352261820E+03  0.00000000000E+00 0. -1.
         13    1    4    4    0    0  0.20321090116E+01  0.44994654132E+02 -0.19162346220E+02  0.48947358255E+02  0.00000000000E+00 0.  1.
        -13    1    3    3    0    0  0.13899802156E+02 -0.87132834137E+02 -0.38258917241E+03  0.39263190157E+03  0.00000000000E+00 0. -1.
         13    1    3    3    0    0 -0.25680338220E+02  0.56107147931E+01 -0.37732154948E+02  0.45985600013E+02  0.00000000000E+00 0.  1.
          1    1    1    2  501    0 -0.11548817541E+02 -0.16695777006E+02 -0.78209158269E+01  0.21755249500E+02  0.00000000000E+00 0. -1.
<scales pt_clust_5="13000.00000" pt_clust_6="13000.00000" pt_clust_7="13000.00000" pt_clust_8="13000.00000" pt_clust_9="20.30084"></scales>
<clustering>
<clus scale="   20.301">  1  9  2 -1</clus>
<clus scale="   93.411">  5  6 -1 -1</clus>
<clus scale="   94.502">  7  8 -1 -1</clus>
<clus scale="  128.612">  1  5  2 -1</clus>
<clus scale="   20.301">  1  5  2 -1</clus>
</clustering>
</event>
<event>
 9    1  0.1445593E-005  0.9482241E+02  0.7546771E-02  0.1292389E+00
         21   -1    0    0  501  502  0.00000000000E+00  0.00000000000E+00  0.55777364881E+02  0.55777364881E+02  0.00000000000E+00 0.  1.
          3   -1    0    0  502    0 -0.00000000000E+00 -0.00000000000E+00 -0.33857656581E+03  0.33857656581E+03  0.00000000000E+00 0. -1.
         23    2    1    2    0    0 -0.18877066282E+02  0.28872780501E+02 -0.20527190319E+03  0.22682126306E+03  0.90118533341E+02 0.  0.
         23    2    1    2    0    0  0.25305203618E+02 -0.61995894060E+01 -0.99180293156E+02  0.13552881233E+03  0.88614559646E+02 0.  0.
        -11    1    4    4    0    0 -0.28925332474E+02  0.16798287061E+02 -0.36902202771E+02  0.49805922100E+02  0.00000000000E+00 0. -1.
         11    1    4    4    0    0  0.54230536092E+02 -0.22997876467E+02 -0.62278090385E+02  0.85722890227E+02  0.00000000000E+00 0.  1.
        -13    1    3    3    0    0 -0.14665018602E+02  0.58095465596E+02 -0.17299505113E+03  0.18307767097E+03  0.00000000000E+00 0.  1.
         13    1    3    3    0    0 -0.42120476793E+01 -0.29222685094E+02 -0.32276852061E+02  0.43743592088E+02  0.00000000000E+00 0. -1.
          3    1    1    2  501    0 -0.64281373362E+01 -0.22673191095E+02  0.21652995415E+02  0.32003855307E+02  0.00000000000E+00 0. -1.
<scales pt_clust_5="13000.00000" pt_clust_6="13000.00000" pt_clust_7="13000.00000" pt_clust_8="13000.00000" pt_clust_9="23.56681"></scales>
<clustering>
<clus scale="   23.567">  1  9  2 -1</clus>
<clus scale="   88.615">  5  6 -1 -1</clus>
<clus scale="   90.119">  7  8 -1 -1</clus>
<clus scale="   93.394">  1  5  2 -1</clus>
<clus scale="   23.567">  1  5  2 -1</clus>
</clustering>
</event>
<event>
 9    1  0.1445593E-005  0.1075261E+03  0.7546771E-02  0.1267530E+00
         -1   -1    0    0    0  501 -0.00000000000E+00  0.00000000000E+00  0.14934843909E+03  0.14934843909E+03  0.00000000000E+00 0.  1.
         21   -1    0    0  501  502  0.00000000000E+00 -0.00000000000E+00 -0.13107341002E+03  0.13107341002E+03  0.00000000000E+00 0. -1.
         23    2    1    2    0    0  0.28132721694E+01  0.31608312693E+02  0.37301837195E+02  0.10763526932E+03  0.95848443977E+02 0.  0.
         23    2    1    2    0    0 -0.94573746923E+01 -0.72264076054E+02  0.17755806480E+02  0.11755981155E+03  0.90517965084E+02 0.  0.
        -13    1    4    4    0    0 -0.34361149765E+02 -0.35232323085E+02  0.43806139833E+02  0.65886137314E+02  0.00000000000E+00 0.  1.
         13    1    4    4    0    0  0.24903775073E+02 -0.37031752969E+02 -0.26050333353E+02  0.51673674232E+02  0.00000000000E+00 0. -1.
        -13    1    3    3    0    0 -0.29434958344E+02  0.52569783484E+02  0.33626158885E+02  0.68997952648E+02  0.00000000000E+00 0.  1.
         13    1    3    3    0    0  0.32248230513E+02 -0.20961470791E+02  0.36756783108E+01  0.38637316677E+02  0.00000000000E+00 0. -1.
         -1    1    1    2    0  502  0.66441025229E+01  0.40655763361E+02 -0.36782614610E+02  0.55226768241E+02  0.00000000000E+00 0.  1.
<scales pt_clust_5="13000.00000" pt_clust_6="13000.00000" pt_clust_7="13000.00000" pt_clust_8="13000.00000" pt_clust_9="41.19509"></scales>
<clustering>
<clus scale="   41.195">  2  9  1 -1</clus>
<clus scale="   90.518">  5  6 -1 -1</clus>
<clus scale="   95.848">  7  8 -1 -1</clus>
<clus scale="  102.803">  2  5  1 -1</clus>
<clus scale="   41.195">  2  5  1 -1</clus>
</clustering>
</event>
<event>
 9    1  0.1445593E-005  0.1910023E+03  0.7546771E-02  0.1157798E+00
          2   -1    0    0  502    0 -0.00000000000E+00  0.00000000000E+00  0.38174785447E+03  0.38174785447E+03  0.00000000000E+00 0. -1.
         21   -1    0    0  501  502  0.00000000000E+00 -0.00000000000E+00 -0.23304453178E+03  0.23304453178E+03  0.00000000000E+00 0. -1.
         23    2    1    2    0    0  0.14205815479E+03  0.98508979244E+02  0.64565349085E+02  0.20625100897E+03  0.92120877462E+02 0.  0.
         23    2    1    2    0    0 -0.19152518212E+03  0.37647437509E+02 -0.39003318204E+02  0.21841159433E+03  0.89906288830E+02 0.  0.
        -11    1    3    3    0    0  0.70894895324E+02  0.45600429726E+01  0.51344177623E+02  0.87653321390E+02  0.00000000000E+00 0. -1.
         11    1    3    3    0    0  0.71163259468E+02  0.93948936271E+02  0.13221171462E+02  0.11859768758E+03  0.00000000000E+00 0.  1.
        -13    1    4    4    0    0 -0.65579455842E+02 -0.29496469011E+02 -0.18225838059E+02  0.74181452437E+02  0.00000000000E+00 0.  1.
         13    1    4    4    0    0 -0.12594572628E+03  0.67143906520E+02 -0.20777480145E+02  0.14423014190E+03  0.00000000000E+00 0. -1.
          2    1    1    2  501    0  0.49467027329E+02 -0.13615641675E+03  0.12314129181E+03  0.19012978295E+03  0.00000000000E+00 0. -1.
<scales pt_clust_5="13000.00000" pt_clust_6="13000.00000" pt_clust_7="13000.00000" pt_clust_8="13000.00000" pt_clust_9="144.86400"></scales>
<clustering>
<clus scale="   89.906">  7  8 -1 -1</clus>
<clus scale="   92.121">  5  6 -1 -1</clus>
<clus scale="  144.864">  2  9  1 -1</clus>
<clus scale="  189.944">  2  7  1 -1</clus>
<clus scale="  144.864">  2  5  1 -1</clus>
</clustering>
</event>
<event>
 9    1  0.1467680E-005  0.1606472E+03  0.7546771E-02  0.1210227E+00
         -1   -1    0    0    0  501 -0.00000000000E+00  0.00000000000E+00  0.28381632974E+03  0.28381632974E+03  0.00000000000E+00 0.  1.
         21   -1    0    0  501  502  0.00000000000E+00 -0.00000000000E+00 -0.21818387034E+03  0.21818387034E+03  0.00000000000E+00 0.  1.
         23    2    1    2    0    0  0.24765121032E+02  0.44040561774E+02 -0.25777620299E+02  0.10228807944E+03  0.85120404053E+02 0.  0.
         23    2    1    2    0    0  0.63495512448E+02  0.12140642048E+02  0.20282554820E+03  0.24687340268E+03  0.12501679350E+03 0.  0.
        -13    1    4    4    0    0  0.97289357870E+02  0.25459532852E+02  0.17195681248E+03  0.19920479996E+03  0.00000000000E+00 0.  1.
         13    1    4    4    0    0 -0.33793845422E+02 -0.13318890804E+02  0.30868735722E+02  0.47668602725E+02  0.00000000000E+00 0. -1.
        -13    1    3    3    0    0 -0.34280500588E+01 -0.21884757637E+02 -0.20845958224E+02  0.30417891417E+02  0.00000000000E+00 0. -1.
         13    1    3    3    0    0  0.28193171090E+02  0.65925319411E+02 -0.49316620753E+01  0.71870188023E+02  0.00000000000E+00 0.  1.
         -1    1    1    2    0  502 -0.88260633479E+02 -0.56181203822E+02 -0.11141546850E+03  0.15283871796E+03  0.00000000000E+00 0.  1.
<scales pt_clust_5="13000.00000" pt_clust_6="13000.00000" pt_clust_7="13000.00000" pt_clust_8="13000.00000" pt_clust_9="100.88773"></scales>
<clustering>
<clus scale="   85.120">  7  8 -1 -1</clus>
<clus scale="   98.987">  1  7  2 -1</clus>
<clus scale="  100.888">  2  9  1 -1</clus>
<clus scale="  125.017">  5  6 -1 -1</clus>
<clus scale="  100.888">  2  5  1 -1</clus>
</clustering>
</event>
<event>
 9    1  0.1445593E-005  0.1604081E+03  0.7546771E-02  0.1188327E+00
          2   -1    0    0  502    0 -0.00000000000E+00  0.00000000000E+00  0.95241124530E+03  0.95241124530E+03  0.00000000000E+00 0. -1.
         21   -1    0    0  501  502  0.00000000000E+00 -0.00000000000E+00 -0.55187887461E+02  0.55187887461E+02  0.00000000000E+00 0. -1.
         23    2    1    2    0    0  0.11981446604E+03  0.68199137158E+02  0.65188868225E+03  0.67271633279E+03  0.92637906836E+02 0.  0.
         23    2    1    2    0    0 -0.11457309794E+03 -0.31059274532E+02  0.25485309235E+03  0.29618600949E+03  0.93190022183E+02 0.  0.
        -11    1    4    4    0    0 -0.34409735562E+02  0.29978950550E+02  0.48780801305E+02  0.66800703241E+02  0.00000000000E+00 0.  1.
         11    1    4    4    0    0 -0.80163362375E+02 -0.61038225082E+02  0.20607229104E+03  0.22938530625E+03  0.00000000000E+00 0. -1.
        -11    1    3    3    0    0  0.49812608502E+01 -0.19950253778E+02  0.61868976436E+02  0.65196593705E+02  0.00000000000E+00 0.  1.
         11    1    3    3    0    0  0.11483320519E+03  0.88149390935E+02  0.59001970581E+03  0.60751973909E+03  0.00000000000E+00 0. -1.
          2    1    1    2  501    0 -0.52413681031E+01 -0.37139862626E+02 -0.95184167580E+01  0.38696790474E+02  0.00000000000E+00 0. -1.
<scales pt_clust_5="13000.00000" pt_clust_6="13000.00000" pt_clust_7="13000.00000" pt_clust_8="13000.00000" pt_clust_9="37.50788"></scales>
<clustering>
<clus scale="   37.508">  2  9  1 -1</clus>
<clus scale="   92.638">  7  8 -1 -1</clus>
<clus scale="   93.190">  5  6 -1 -1</clus>
<clus scale="  160.088">  1  7  2 -1</clus>
<clus scale="   37.508">  2  5  1 -1</clus>
</clustering>
</event>
<event>
 9    1  0.1445593E-005  0.9308751E+02  0.7546771E-02  0.1295621E+00
         -4   -1    0    0    0  501 -0.00000000000E+00  0.00000000000E+00  0.25613122245E+03  0.25613122245E+03  0.00000000000E+00 0.  1.
         21   -1    0    0  501  502  0.00000000000E+00 -0.00000000000E+00 -0.85460693084E+02  0.85460693084E+02  0.00000000000E+00 0. -1.
         23    2    1    2    0    0  0.10794048933E+01 -0.12787410227E+02  0.18178812105E+03  0.20407383183E+03  0.91839669574E+02 0.  0.
         23    2    1    2    0    0  0.30337969546E+02  0.20110847131E+02 -0.25569661524E+02  0.10216915914E+03  0.91977665340E+02 0.  0.
        -13    1    4    4    0    0  0.78699250909E-01  0.21159146486E+02 -0.55621137144E+02  0.59509886328E+02  0.00000000000E+00 0. -1.
         13    1    4    4    0    0  0.30259270295E+02 -0.10482993551E+01  0.30051475620E+02  0.42659272817E+02  0.00000000000E+00 0.  1.
        -13    1    3    3    0    0 -0.16829970886E+02 -0.30257378864E+02  0.17466096632E+03  0.17805956883E+03  0.00000000000E+00 0.  1.
         13    1    3    3    0    0  0.17909375780E+02  0.17469968637E+02  0.71271547320E+01  0.26014263002E+02  0.00000000000E+00 0. -1.
         -4    1    1    2    0  502 -0.31417374439E+02 -0.73234369037E+01  0.14452069837E+02  0.35348924556E+02  0.00000000000E+00 0.  1.
<scales pt_clust_5="13000.00000" pt_clust_6="13000.00000" pt_clust_7="13000.00000" pt_clust_8="13000.00000" pt_clust_9="32.25964"></scales>
<clustering>
<clus scale="   32.260">  2  9  1 -1</clus>
<clus scale="   91.840">  7  8 -1 -1</clus>
<clus scale="   91.978">  5  6 -1 -1</clus>
<clus scale="   92.951">  1  7  2 -1</clus>
<clus scale="   32.260">  2  5  1 -1</clus>
</clustering>
</event>
<event>
 9    1  0.1445593E-005  0.2114611E+03  0.7546771E-02  0.1140621E+00
         21   -1    0    0  501  502  0.00000000000E+00  0.00000000000E+00  0.69495635227E+02  0.69495635227E+02  0.00000000000E+00 0. -1.
          1   -1    0    0  502    0 -0.00000000000E+00 -0.00000000000E+00 -0.86261608870E+03  0.86261608870E+03  0.00000000000E+00 0. -1.
         23    2    1    2    0    0 -0.13896580286E+02  0.16515594417E+03 -0.32280510685E+03  0.37365965070E+03  0.89156024545E+02 0.  0.
         23    2    1    2    0    0  0.20914015075E+02 -0.22128459397E+03 -0.41331399619E+03  0.47814750505E+03  0.91609549619E+02 0.  0.
        -11    1    4    4    0    0 -0.75503798697E+01 -0.19442605840E+03 -0.29378689616E+03  0.35237656105E+03  0.00000000000E+00 0. -1.
         11    1    4    4    0    0  0.28464394945E+02 -0.26858535568E+02 -0.11952710003E+03  0.12577094400E+03  0.00000000000E+00 0.  1.
        -11    1    3    3    0    0 -0.50907233422E+02  0.11573216906E+03 -0.21934369970E+03  0.25317412974E+03  0.00000000000E+00 0.  1.
         11    1    3    3    0    0  0.37010653136E+02  0.49423775108E+02 -0.10346140714E+03  0.12048552095E+03  0.00000000000E+00 0. -1.
          1    1    1    2  501    0 -0.70174347892E+01  0.56128649800E+02 -0.57001350426E+02  0.80304568175E+02  0.00000000000E+00 0. -1.
<scales pt_clust_5="13000.00000" pt_clust_6="13000.00000" pt_clust_7="13000.00000" pt_clust_8="13000.00000" pt_clust_9="56.56562"></scales>
<clustering>
<clus scale="   56.566">  1  9  2 -1</clus>
<clus scale="   89.156">  7  8 -1 -1</clus>
<clus scale="   91.610">  5  6 -1 -1</clus>
<clus scale="  210.410">  2  7  1 -1</clus>
<clus scale="   56.566">  1  5  2 -1</clus>
</clustering>
</event>
<event>
 9    1  0.1445593E-005  0.1313970E+03  0.7546771E-02  0.1239290E+00
          3   -1    0    0  502    0 -0.00000000000E+00  0.00000000000E+00  0.12197821918E+03  0.12197821918E+03  0.00000000000E+00 0. -1.
         21   -1    0    0  501  502  0.00000000000E+00 -0.00000000000E+00 -0.40858897331E+03  0.40858897331E+03  0.00000000000E+00 0. -1.
         23    2    1    2    0    0 -0.14643537129E+01  0.41030589153E+02 -0.89470825292E+01  0.99142795099E+02  0.89797494154E+02 0.  0.
         23    2    1    2    0    0 -0.18295987561E+02  0.56158081446E+02  0.26525708552E+02  0.11147551432E+03  0.90745268780E+02 0.  0.
        -11    1    4    4    0    0 -0.89633825311E+01  0.81107817989E+02  0.21195998540E+02  0.84309493650E+02  0.00000000000E+00 0. -1.
         11    1    4    4    0    0 -0.93326050299E+01 -0.24949736543E+02  0.53297100124E+01  0.27166020670E+02  0.00000000000E+00 0.  1.
        -11    1    3    3    0    0  0.36123807006E+01  0.64915552826E+02 -0.25288272140E+02  0.69760841457E+02  0.00000000000E+00 0. -1.
         11    1    3    3    0    0 -0.50767344135E+01 -0.23884963672E+02  0.16341189611E+02  0.29381953642E+02  0.00000000000E+00 0.  1.
          3    1    1    2  501    0  0.19760341274E+02 -0.97188670599E+02 -0.30418938015E+03  0.31994888307E+03  0.00000000000E+00 0. -1.
<scales pt_clust_5="13000.00000" pt_clust_6="13000.00000" pt_clust_7="13000.00000" pt_clust_8="13000.00000" pt_clust_9="95.02871"></scales>
<clustering>
<clus scale="   89.797">  7  8 -1 -1</clus>
<clus scale="   90.745">  5  6 -1 -1</clus>
<clus scale="   98.738">  1  7  2 -1</clus>
<clus scale="   95.029">  2  9  1 -1</clus>
<clus scale="   95.029">  2  5  1 -1</clus>
</clustering>
</event>
<event>
 9    1  0.1445593E-005  0.1362061E+03  0.7546771E-02  0.1218640E+00
          2   -1    0    0  502    0 -0.00000000000E+00  0.00000000000E+00  0.12177721358E+04  0.12177721358E+04  0.00000000000E+00 0. -1.
         21   -1    0    0  501  502  0.00000000000E+00 -0.00000000000E+00 -0.20383032855E+02  0.20383032855E+02  0.00000000000E+00 0.  1.
         23    2    1    2    0    0 -0.59988302049E+02 -0.59031549719E+02  0.49462393075E+03  0.51000901964E+03  0.91504355067E+02 0.  0.
         23    2    1    2    0    0  0.92328364244E+02  0.78002159391E+02  0.59348216323E+03  0.61261026843E+03  0.91985864140E+02 0.  0.
        -11    1    3    3    0    0 -0.28566204451E+02  0.22855994667E+02  0.14054064476E+03  0.14522430017E+03  0.00000000000E+00 0.  1.
         11    1    3    3    0    0 -0.31422097598E+02 -0.81887544386E+02  0.35408328599E+03  0.36478471947E+03  0.00000000000E+00 0. -1.
        -11    1    4    4    0    0  0.10580448529E+03  0.55252653627E+02  0.53890078875E+03  0.55196150677E+03  0.00000000000E+00 0.  1.
         11    1    4    4    0    0 -0.13476121046E+02  0.22749505764E+02  0.54581374482E+02  0.60648761663E+02  0.00000000000E+00 0. -1.
          2    1    1    2  501    0 -0.32340062194E+02 -0.18970609673E+02  0.10928300896E+03  0.11553588058E+03  0.00000000000E+00 0. -1.
<scales pt_clust_5="13000.00000" pt_clust_6="13000.00000" pt_clust_7="13000.00000" pt_clust_8="13000.00000" pt_clust_9="37.49351"></scales>
<clustering>
<clus scale="   37.494">  2  9  1 -1</clus>
<clus scale="   91.504">  5  6 -1 -1</clus>
<clus scale="   91.986">  7  8 -1 -1</clus>
<clus scale="  135.881">  1  5  2 -1</clus>
<clus scale="   37.494">  2  5  1 -1</clus>
</clustering>
</event>
<event>
 9    1  0.1445593E-005  0.9633941E+02  0.7546771E-02  0.1288557E+00
         21   -1    0    0  501  502  0.00000000000E+00  0.00000000000E+00  0.92568594294E+02  0.92568594294E+02  0.00000000000E+00 0. -1.
         -1   -1    0    0    0  501 -0.00000000000E+00 -0.00000000000E+00 -0.14718766919E+03  0.14718766919E+03  0.00000000000E+00 0.  1.
         23    2    1    2    0    0  0.20517662816E+02 -0.22347807485E+00 -0.40660087111E+02  0.10165266129E+03  0.90879020866E+02 0.  0.
         23    2    1    2    0    0 -0.44542268952E+02  0.16844458373E+02 -0.27916991455E+02  0.10572668831E+03  0.90172194762E+02 0.  0.
        -11    1    3    3    0    0 -0.32539005986E+02 -0.37463839338E+00  0.33572079473E+01  0.32713882522E+02  0.00000000000E+00 0. -1.
         11    1    3    3    0    0  0.53056668801E+02  0.15116031853E+00 -0.44017295058E+02  0.68938778767E+02  0.00000000000E+00 0.  1.
        -13    1    4    4    0    0 -0.59308191051E+02  0.41147117316E+02 -0.27621410910E+02  0.77288350544E+02  0.00000000000E+00 0. -1.
         13    1    4    4    0    0  0.14765922099E+02 -0.24302658943E+02 -0.29558054520E+00  0.28438337768E+02  0.00000000000E+00 0.  1.
         -1    1    1    2    0  502  0.24024606136E+02 -0.16620980299E+02  0.13958003670E+02  0.32376913882E+02  0.00000000000E+00 0.  1.
<scales pt_clust_5="13000.00000" pt_clust_6="13000.00000" pt_clust_7="13000.00000" pt_clust_8="13000.00000" pt_clust_9="29.21367"></scales>
<clustering>
<clus scale="   29.214">  1  9  2 -1</clus>
<clus scale="   90.172">  7  8 -1 -1</clus>
<clus scale="   90.879">  5  6 -1 -1</clus>
<clus scale="   95.673">  1  7  2 -1</clus>
<clus scale="   29.214">  1  5  2 -1</clus>
</clustering>
</event>
<event>
 9    1  0.1445593E-005  0.1440410E+03  0.7546771E-02  0.1230881E+00
         21   -1    0    0  501  502  0.00000000000E+00  0.00000000000E+00  0.74883111604E+03  0.74883111604E+03  0.00000000000E+00 0. -1.
          2   -1    0    0  502    0 -0.00000000000E+00 -0.00000000000E+00 -0.17723774339E+03  0.17723774339E+03  0.00000000000E+00 0. -1.
         23    2    1    2    0    0 -0.56029379715E+01  0.11588904775E+01 -0.14141862366E+03  0.16711170821E+03  0.88850210819E+02 0.  0.
         23    2    1    2    0    0 -0.41004792513E+02  0.10354379316E+03  0.33723068661E+03  0.36608754788E+03  0.88841694090E+02 0.  0.
        -11    1    4    4    0    0 -0.40182909289E+02  0.73448643709E+02  0.32129485072E+03  0.33202371988E+03  0.00000000000E+00 0. -1.
         11    1    4    4    0    0 -0.82188322454E+00  0.30095149450E+02  0.15935835887E+02  0.34063827998E+02  0.00000000000E+00 0.  1.
        -11    1    3    3    0    0  0.38508456803E+02 -0.81897268564E+01 -0.92779416725E+02  0.10078686938E+03  0.00000000000E+00 0.  1.
         11    1    3    3    0    0 -0.44111394774E+02  0.93486173338E+01 -0.48639206935E+02  0.66324838833E+02  0.00000000000E+00 0. -1.
          2    1    1    2  501    0  0.46607730485E+02 -0.10470268364E+03  0.37578130971E+03  0.39286960334E+03  0.00000000000E+00 0. -1.
<scales pt_clust_5="13000.00000" pt_clust_6="13000.00000" pt_clust_7="13000.00000" pt_clust_8="13000.00000" pt_clust_9="113.37968"></scales>
<clustering>
<clus scale="   88.842">  5  6 -1 -1</clus>
<clus scale="   88.850">  7  8 -1 -1</clus>
<clus scale="   89.034">  2  7  1 -1</clus>
<clus scale="  113.380">  1  9  2 -1</clus>
<clus scale="  113.380">  1  5  2 -1</clus>
</clustering>
</event>
<event>
 9    1  0.1445593E-005  0.1150365E+03  0.7546771E-02  0.1251694E+00
          4   -1    0    0  502    0 -0.00000000000E+00  0.00000000000E+00  0.18711192898E+03  0.18711192898E+03  0.00000000000E+00 0. -1.
         21   -1    0    0  501  502  0.00000000000E+00 -0.00000000000E+00 -0.16514920776E+03  0.16514920776E+03  0.00000000000E+00 0. -1.
         23    2    1    2    0    0  0.49393637513E+02 -0.18053902604E+02  0.64951383956E+02  0.12302594167E+03  0.90283028422E+02 0.  0.
         23    2    1    2    0    0 -0.10939838813E+03  0.54038830284E+02 -0.11555695160E+02  0.15253111065E+03  0.90796492891E+02 0.  0.
        -11    1    4    4    0    0 -0.10244443915E+03  0.33661448811E+02 -0.41590766140E+02  0.11557572443E+03  0.00000000000E+00 0. -1.
         11    1    4    4    0    0 -0.69539489810E+01  0.20377381472E+02  0.30035070980E+02  0.36955386223E+02  0.00000000000E+00 0.  1.
        -11    1    3    3    0    0  0.26574011852E+02 -0.27356686464E+02  0.83754081829E+02  0.92028868423E+02  0.00000000000E+00 0.  1.
         11    1    3    3    0    0  0.22819625660E+02  0.93027838601E+01 -0.18802697873E+02  0.30997073251E+02  0.00000000000E+00 0. -1.
          4    1    1    2  501    0  0.60004750617E+02 -0.35984927680E+02 -0.31432967576E+02  0.76704084424E+02  0.00000000000E+00 0. -1.
<scales pt_clust_5="13000.00000" pt_clust_6="13000.00000" pt_clust_7="13000.00000" pt_clust_8="13000.00000" pt_clust_9="69.96774"></scales>
<clustering>
<clus scale="   69.968">  2  9  1 -1</clus>
<clus scale="   90.283">  7  8 -1 -1</clus>
<clus scale="   90.796">  5  6 -1 -1</clus>
<clus scale="  114.632">  1  7  2 -1</clus>
<clus scale="   69.968">  2  5  1 -1</clus>
</clustering>
</event>
<event>
 9    1  0.1445593E-005  0.2503841E+03  0.7546771E-02  0.1133277E+00
          1   -1    0    0  502    0 -0.00000000000E+00  0.00000000000E+00  0.27622869594E+03  0.27622869594E+03  0.00000000000E+00 0. -1.
         21   -1    0    0  501  502  0.00000000000E+00 -0.00000000000E+00 -0.50159828139E+03  0.50159828139E+03  0.00000000000E+00 0. -1.
         23    2    1    2    0    0  0.72957594518E+02 -0.96819990434E+02 -0.16295287936E+03  0.22247101503E+03  0.90789814906E+02 0.  0.
         23    2    1    2    0    0 -0.87285400213E+02  0.29779673576E+03  0.39235359668E+02  0.32967902363E+03  0.10414993159E+03 0.  0.
        -11    1    3    3    0    0  0.90709180970E+02 -0.56846006325E+02 -0.12488287154E+03  0.16448512259E+03  0.00000000000E+00 0.  1.
         11    1    3    3    0    0 -0.17751586453E+02 -0.39973984109E+02 -0.38070007816E+02  0.57985892441E+02  0.00000000000E+00 0. -1.
        -11    1    4    4    0    0 -0.47222980450E+02  0.22571747164E+03 -0.14814577162E+02  0.23107976671E+03  0.00000000000E+00 0. -1.
         11    1    4    4    0    0 -0.40062419762E+02  0.72079264127E+02  0.54049936829E+02  0.98599256922E+02  0.00000000000E+00 0.  1.
          1    1    1    2  501    0  0.14327805695E+02 -0.20097674533E+03 -0.10165206576E+03  0.22567693868E+03  0.00000000000E+00 0. -1.
<scales pt_clust_5="13000.00000" pt_clust_6="13000.00000" pt_clust_7="13000.00000" pt_clust_8="13000.00000" pt_clust_9="227.69493"></scales>
<clustering>
<clus scale="   90.790">  5  6 -1 -1</clus>
<clus scale="  104.150">  7  8 -1 -1</clus>
<clus scale="  151.459">  1  5  2 -1</clus>
<clus scale="  227.695">  2  9  1 -1</clus>
<clus scale="  227.695">  2  5  1 -1</clus>
</clustering>
</event>
<event>
 9    1  0.1445593E-005  0.9618580E+02  0.7546771E-02  0.1291665E+00
          3   -1    0    0  502    0 -0.00000000000E+00  0.00000000000E+00  0.91261238725E+02  0.91261238725E+02  0.00000000000E+00 0. -1.
         21   -1    0    0  501  502  0.00000000000E+00 -0.00000000000E+00 -0.13920011993E+03  0.13920011993E+03  0.00000000000E+00 0.  1.
         23    2    1    2    0    0  0.19580145065E+02 -0.35238880092E+02  0.56980661109E+01  0.94181049890E+02  0.84926094047E+02 0.  0.
         23    2    1    2    0    0  0.91567255647E+01  0.23399836545E+02 -0.39196069477E+02  0.10200918917E+03  0.90764226650E+02 0.  0.
        -11    1    4    4    0    0  0.22279647745E+02  0.55318791884E+02 -0.26067691923E+02  0.65085144245E+02  0.00000000000E+00 0.  1.
         11    1    4    4    0    0 -0.13122922180E+02 -0.31918955339E+02 -0.13128377554E+02  0.36924044926E+02  0.00000000000E+00 0. -1.
        -11    1    3    3    0    0  0.29675603455E+02 -0.51265630160E+01 -0.32630857421E+02  0.44403783001E+02  0.00000000000E+00 0.  1.
         11    1    3    3    0    0 -0.10095458390E+02 -0.30112317076E+02  0.38328923532E+02  0.49777266889E+02  0.00000000000E+00 0. -1.
          3    1    1    2  501    0 -0.28736870630E+02  0.11839043547E+02 -0.14440877843E+02  0.34271119599E+02  0.00000000000E+00 0. -1.
<scales pt_clust_5="13000.00000" pt_clust_6="13000.00000" pt_clust_7="13000.00000" pt_clust_8="13000.00000" pt_clust_9="31.08007"></scales>
<clustering>
<clus scale="   31.080">  2  9  1 -1</clus>
<clus scale="   84.926">  7  8 -1 -1</clus>
<clus scale="   90.697">  1  7  2 -1</clus>
<clus scale="   90.764">  5  6 -1 -1</clus>
<clus scale="   31.080">  2  5  1 -1</clus>
</clustering>
</event>
<event>
 9    1  0.1445593E-005  0.1453154E+03  0.7546771E-02  0.1207728E+00
         -1   -1    0    0    0  501 -0.00000000000E+00  0.00000000000E+00  0.23271107325E+03  0.23271107325E+03  0.00000000000E+00 0.  1.
         21   -1    0    0  501  502  0.00000000000E+00 -0.00000000000E+00 -0.31030708873E+03  0.31030708873E+03  0.00000000000E+00 0.  1.
         23    2    1    2    0    0 -0.11069490872E+03 -0.59218328421E+02  0.16842689458E+03  0.23173174053E+03  0.97835614750E+02 0.  0.
         23    2    1    2    0    0  0.34928291649E+02  0.94303802977E+01 -0.10704691124E+03  0.14535345822E+03  0.91431225415E+02 0.  0.
        -11    1    3    3    0    0 -0.58400301548E+02 -0.82514667645E+01  0.13569944839E+02  0.60521279957E+02  0.00000000000E+00 0.  1.
         11    1    3    3    0    0 -0.52294607167E+02 -0.50966861657E+02  0.15485694974E+03  0.17121046057E+03  0.00000000000E+00 0. -1.
        -13    1    4    4    0    0 -0.26564758731E+02  0.15038000790E+01 -0.67675724824E+01  0.27454468825E+02  0.00000000000E+00 0.  1.
         13    1    4    4    0    0  0.61493050380E+02  0.79265802187E+01 -0.10027933876E+03  0.11789898940E+03  0.00000000000E+00 0. -1.
         -1    1    1    2    0  502  0.75766617067E+02  0.49787948123E+02 -0.13897599881E+03  0.16593296323E+03  0.00000000000E+00 0.  1.
<scales pt_clust_5="13000.00000" pt_clust_6="13000.00000" pt_clust_7="13000.00000" pt_clust_8="13000.00000" pt_clust_9="90.66102"></scales>
<clustering>
<clus scale="   90.661">  2  9  1 -1</clus>
<clus scale="   91.431">  7  8 -1 -1</clus>
<clus scale="   97.836">  5  6 -1 -1</clus>
<clus scale="  141.083">  2  7  1 -1</clus>
<clus scale="   90.661">  2  5  1 -1</clus>
</clustering>
</event>
<event>
 9    1  0.1445593E-005  0.2259058E+03  0.7546771E-02  0.1143768E+00
          1   -1    0    0  502    0 -0.00000000000E+00  0.00000000000E+00  0.55442946070E+03  0.55442946070E+03  0.00000000000E+00 0. -1.
         21   -1    0    0  501  502  0.00000000000E+00 -0.00000000000E+00 -0.17884769638E+03  0.17884769638E+03  0.00000000000E+00 0.  1.
         23    2    1    2    0    0  0.93041675773E+02 -0.93498760733E+02  0.51032429263E+02  0.16794820301E+03  0.90573276246E+02 0.  0.
         23    2    1    2    0    0 -0.10607230010E+03  0.26014234968E+03  0.20527038201E+03  0.35998204869E+03  0.92335100065E+02 0.  0.
        -13    1    4    4    0    0 -0.11512017751E+03  0.17576706921E+03  0.13438150429E+03  0.24940951582E+03  0.00000000000E+00 0.  1.
         13    1    4    4    0    0  0.90478774119E+01  0.84375280466E+02  0.70888877719E+02  0.11057253286E+03  0.00000000000E+00 0. -1.
        -13    1    3    3    0    0 -0.41351956441E+01 -0.47660309103E+02  0.35084759132E+02  0.59325755201E+02  0.00000000000E+00 0. -1.
         13    1    3    3    0    0  0.97176871417E+02 -0.45838451630E+02  0.15947670131E+02  0.10862244781E+03  0.00000000000E+00 0.  1.
          1    1    1    2  501    0  0.13030624327E+02 -0.16664358894E+03  0.11927895305E+03  0.20534690538E+03  0.00000000000E+00 0. -1.
<scales pt_clust_5="13000.00000" pt_clust_6="13000.00000" pt_clust_7="13000.00000" pt_clust_8="13000.00000" pt_clust_9="206.17381"></scales>
<clustering>
<clus scale="   90.573">  7  8 -1 -1</clus>
<clus scale="   92.335">  5  6 -1 -1</clus>
<clus scale="  160.007">  1  7  2 -1</clus>
<clus scale="  206.174">  2  9  1 -1</clus>
<clus scale="  206.174">  2  5  1 -1</clus>
</clustering>
</event>
<event>
 9    1  0.1445593E-005  0.1026697E+03  0.7546771E-02  0.1276021E+00
         21   -1    0    0  501  502  0.00000000000E+00  0.00000000000E+00  0.29943389611E+03  0.29943389611E+03  0.00000000000E+00 0.  1.
          1   -1    0    0  502    0 -0.00000000000E+00 -0.00000000000E+00 -0.62524333423E+02  0.62524333423E+02  0.00000000000E+00 0. -1.
         23    2    1    2    0    0  0.36636937753E+02  0.12404139812E+02  0.25664240334E+02  0.10121343646E+03  0.89940972842E+02 0.  0.
         23    2    1    2    0    0 -0.40809505994E+02 -0.47115722288E+02  0.12453925523E+03  0.16725550834E+03  0.92623279529E+02 0.  0.
        -11    1    3    3    0    0 -0.11465461267E+02 -0.30855630636E+02  0.49659338124E+01  0.33289446415E+02  0.00000000000E+00 0.  1.
         11    1    3    3    0    0  0.48102399020E+02  0.43259770449E+02  0.20698306522E+02  0.67923990045E+02  0.00000000000E+00 0. -1.
        -11    1    4    4    0    0 -0.25946141080E+02  0.23342134241E+02  0.19724441655E+02  0.40088789786E+02  0.00000000000E+00 0.  1.
         11    1    4    4    0    0 -0.14863364914E+02 -0.70457856529E+02  0.10481481357E+03  0.12716671855E+03  0.00000000000E+00 0. -1.
          1    1    1    2  501    0  0.41725682413E+01  0.34711582476E+02  0.86706067127E+02  0.93489284735E+02  0.00000000000E+00 0. -1.
<scales pt_clust_5="13000.00000" pt_clust_6="13000.00000" pt_clust_7="13000.00000" pt_clust_8="13000.00000" pt_clust_9="34.96147"></scales>
<clustering>
<clus scale="   34.961">  1  9  2 -1</clus>
<clus scale="   89.941">  5  6 -1 -1</clus>
<clus scale="   92.623">  7  8 -1 -1</clus>
<clus scale="  100.257">  2  5  1 -1</clus>
<clus scale="   34.961">  1  5  2 -1</clus>
</clustering>
</event>
<event>
 9    1  0.1445593E-005  0.1492005E+03  0.7546771E-02  0.1202202E+00
         21   -1    0    0  501  502  0.00000000000E+00  0.00000000000E+00  0.45896169624E+03  0.45896169624E+03  0.00000000000E+00 0.  1.
         -3   -1    0    0    0  501 -0.00000000000E+00 -0.00000000000E+00 -0.89832252841E+02  0.89832252841E+02  0.00000000000E+00 0.  1.
         23    2    1    2    0    0  0.13281521277E+03 -0.88380471698E+01  0.55250813273E+02  0.17209784792E+03  0.94058625705E+02 0.  0.
         23    2    1    2    0    0 -0.94038927754E+02 -0.12941239593E+01  0.11498624384E+03  0.17380587840E+03  0.90231105516E+02 0.  0.
        -11    1    4    4    0    0 -0.73403969231E+02 -0.65388483168E+01  0.19856779824E+02  0.76322938499E+02  0.00000000000E+00 0. -1.
         11    1    4    4    0    0 -0.20634958524E+02  0.52447243575E+01  0.95129464019E+02  0.97482939899E+02  0.00000000000E+00 0.  1.
        -13    1    3    3    0    0  0.20513541075E+02 -0.20871877944E+02  0.51328529804E+02  0.59085181121E+02  0.00000000000E+00 0. -1.
         13    1    3    3    0    0  0.11230167170E+03  0.12033830774E+02  0.39222834690E+01  0.11301266680E+03  0.00000000000E+00 0.  1.
         -3    1    1    2    0  502 -0.38776285018E+02  0.10132171129E+02  0.19889238628E+03  0.20289022277E+03  0.00000000000E+00 0.  1.
<scales pt_clust_5="13000.00000" pt_clust_6="13000.00000" pt_clust_7="13000.00000" pt_clust_8="13000.00000" pt_clust_9="40.07819"></scales>
<clustering>
<clus scale="   40.078">  1  9  2 -1</clus>
<clus scale="   90.231">  5  6 -1 -1</clus>
<clus scale="   94.059">  7  8 -1 -1</clus>
<clus scale="  146.818">  1  5  2 -1</clus>
<clus scale="   40.078">  1  5  2 -1</clus>
</clustering>
</event>
<event>
 9    1  0.1445593E-005  0.1534820E+03  0.7546771E-02  0.1196619E+00
         21   -1    0    0  501  502  0.00000000000E+00  0.00000000000E+00  0.13827033615E+03  0.13827033615E+03  0.00000000000E+00 0.  1.
         -1   -1    0    0    0  501 -0.00000000000E+00 -0.00000000000E+00 -0.36308369629E+03  0.36308369629E+03  0.00000000000E+00 0.  1.
         23    2    1    2    0    0 -0.10189925526E+02  0.11322443167E+03 -0.23114161186E+03  0.27413567057E+03  0.93809992187E+02 0.  0.
         23    2    1    2    0    0 -0.10718119191E+02 -0.15372434224E+03 -0.76461313065E+01  0.17954580719E+03  0.91826913697E+02 0.  0.
        -11    1    3    3    0    0  0.50527397118E+01  0.84826792254E+02 -0.22606453100E+03  0.24150835811E+03  0.00000000000E+00 0. -1.
         11    1    3    3    0    0 -0.15242665238E+02  0.28397639419E+02 -0.50770808657E+01  0.32627312458E+02  0.00000000000E+00 0.  1.
        -13    1    4    4    0    0  0.14011694281E+01 -0.10750241786E+03  0.37444552293E+02  0.11384563065E+03  0.00000000000E+00 0.  1.
         13    1    4    4    0    0 -0.12119288619E+02 -0.46221924384E+02 -0.45090683599E+02  0.65700176543E+02  0.00000000000E+00 0. -1.
         -1    1    1    2    0  502  0.20908044717E+02  0.40499910567E+02  0.13974383027E+02  0.47672554691E+02  0.00000000000E+00 0.  1.
<scales pt_clust_5="13000.00000" pt_clust_6="13000.00000" pt_clust_7="13000.00000" pt_clust_8="13000.00000" pt_clust_9="45.57838"></scales>
<clustering>
<clus scale="   45.578">  1  9  2 -1</clus>
<clus scale="   91.827">  7  8 -1 -1</clus>
<clus scale="   93.810">  5  6 -1 -1</clus>
<clus scale="  152.278">  1  7  2 -1</clus>
<clus scale="   45.578">  1  5  2 -1</clus>
</clustering>
</event>
<event>
 9    1  0.1445593E-005  0.2762846E+03  0.7546771E-02  0.1108614E+00
         21   -1    0    0  501  502  0.00000000000E+00  0.00000000000E+00  0.36992419739E+03  0.36992419739E+03  0.00000000000E+00 0.  1.
         -1   -1    0    0    0  501 -0.00000000000E+00 -0.00000000000E+00 -0.70063483549E+03  0.70063483549E+03  0.00000000000E+00 0.  1.
         23    2    1    2    0    0 -0.18176757770E+03  0.44674725415E+02 -0.13363844514E+03  0.24780559774E+03  0.92266444912E+02 0.  0.
         23    2    1    2    0    0  0.41659070449E+03 -0.67017280816E+02 -0.33751197579E+03  0.54822761985E+03  0.92736499696E+02 0.  0.
        -11    1    4    4    0    0  0.96591447930E+02  0.22947260748E+02 -0.86816810483E+02  0.13188496189E+03  0.00000000000E+00 0. -1.
         11    1    4    4    0    0  0.31999925656E+03 -0.89964541564E+02 -0.25069516530E+03  0.41634265797E+03  0.00000000000E+00 0.  1.
        -11    1    3    3    0    0 -0.78249280077E+02 -0.26655522802E+02 -0.59592128316E+02  0.10190529174E+03  0.00000000000E+00 0. -1.
         11    1    3    3    0    0 -0.10351829762E+03  0.71330248217E+02 -0.74046316826E+02  0.14590030599E+03  0.00000000000E+00 0.  1.
         -1    1    1    2    0  502 -0.23482312679E+03  0.22342555401E+02  0.14043978283E+03  0.27452581529E+03  0.00000000000E+00 0.  1.
<scales pt_clust_5="13000.00000" pt_clust_6="13000.00000" pt_clust_7="13000.00000" pt_clust_8="13000.00000" pt_clust_9="260.25591"></scales>
<clustering>
<clus scale="   92.266">  7  8 -1 -1</clus>
<clus scale="   92.736">  5  6 -1 -1</clus>
<clus scale="  208.682">  2  7  1 -1</clus>
<clus scale="  260.256">  1  9  2 -1</clus>
<clus scale="  260.256">  1  5  2 -1</clus>
</clustering>
</event>
<event>
 9    1  0.1445593E-005  0.1283168E+03  0.7546771E-02  0.1230393E+00
          1   -1    0    0  502    0 -0.00000000000E+00  0.00000000000E+00  0.54700545895E+03  0.54700545895E+03  0.00000000000E+00 0. -1.
         21   -1    0    0  501  502  0.00000000000E+00 -0.00000000000E+00 -0.81635754823E+02  0.81635754823E+02  0.00000000000E+00 0.  1.
         23    2    1    2    0    0 -0.99839649938E+01  0.82706628640E+02  0.40671337854E+03  0.42540500759E+03  0.92809386461E+02 0.  0.
         23    2    1    2    0    0 -0.49818587732E+00 -0.12266472313E+03  0.40928528939E+02  0.15828290179E+03  0.91276777047E+02 0.  0.
        -11    1    4    4    0    0  0.20962207770E+02  0.21702512031E-01 -0.10606500526E+02  0.23492817605E+02  0.00000000000E+00 0. -1.
         11    1    4    4    0    0 -0.21460393648E+02 -0.12268642564E+03  0.51535029465E+02  0.13479008419E+03  0.00000000000E+00 0.  1.
        -11    1    3    3    0    0  0.38138436678E+02  0.60830020820E+02  0.22794845135E+03  0.23898813414E+03  0.00000000000E+00 0.  1.
         11    1    3    3    0    0 -0.48122401671E+02  0.21876607819E+02  0.17876492719E+03  0.18641687345E+03  0.00000000000E+00 0. -1.
          1    1    1    2  501    0  0.10482150871E+02  0.39958094493E+02  0.17727796647E+02  0.44953304399E+02  0.00000000000E+00 0. -1.
<scales pt_clust_5="13000.00000" pt_clust_6="13000.00000" pt_clust_7="13000.00000" pt_clust_8="13000.00000" pt_clust_9="41.31011"></scales>
<clustering>
<clus scale="   41.310">  2  9  1 -1</clus>
<clus scale="   91.277">  5  6 -1 -1</clus>
<clus scale="   92.809">  7  8 -1 -1</clus>
<clus scale="  127.213">  2  5  1 -1</clus>
<clus scale="   41.310">  2  5  1 -1</clus>
</clustering>
</event>
<event>
 9    1  0.1445593E-005  0.1081684E+03  0.7546771E-02  0.1265424E+00
         21   -1    0    0  501  502  0.00000000000E+00  0.00000000000E+00  0.37878100438E+02  0.37878100438E+02  0.00000000000E+00 0. -1.
          1   -1    0    0  502    0 -0.00000000000E+00 -0.00000000000E+00 -0.61144912890E+03  0.61144912890E+03  0.00000000000E+00 0. -1.
         23    2    1    2    0    0  0.25024296760E+02  0.68269564030E+02 -0.35224965591E+03  0.37024850919E+03  0.87847536478E+02 0.  0.
         23    2    1    2    0    0  0.13946939920E+02 -0.24752353279E+02 -0.75172000965E+02  0.12168703125E+03  0.91376735109E+02 0.  0.
        -11    1    4    4    0    0 -0.80216318667E+00  0.22253565132E+02  0.91124666444E+01  0.24060375625E+02  0.00000000000E+00 0.  1.
         11    1    4    4    0    0  0.14749103107E+02 -0.47005918411E+02 -0.84284467609E+02  0.97626655624E+02  0.00000000000E+00 0. -1.
        -13    1    3    3    0    0  0.25558273313E+01 -0.21388400823E+02 -0.61815499960E+02  0.65461072237E+02  0.00000000000E+00 0.  1.
         13    1    3    3    0    0  0.22468469429E+02  0.89657964853E+02 -0.29043415595E+03  0.30478743695E+03  0.00000000000E+00 0. -1.
          1    1    1    2  501    0 -0.38971236681E+02 -0.43517210751E+02 -0.14614937159E+03  0.15739168890E+03  0.00000000000E+00 0. -1.
<scales pt_clust_5="13000.00000" pt_clust_6="13000.00000" pt_clust_7="13000.00000" pt_clust_8="13000.00000" pt_clust_9="58.41668"></scales>
<clustering>
<clus scale="   58.417">  1  9  2 -1</clus>
<clus scale="   87.848">  7  8 -1 -1</clus>
<clus scale="   91.377">  5  6 -1 -1</clus>
<clus scale="  105.204">  2  7  1 -1</clus>
<clus scale="   58.417">  1  5  2 -1</clus>
</clustering>
</event>
<event>
 9    1  0.1445593E-005  0.9614200E+02  0.7546771E-02  0.1290626E+00
         -3   -1    0    0    0  501 -0.00000000000E+00  0.00000000000E+00  0.21296608588E+03  0.21296608588E+03  0.00000000000E+00 0.  1.
         21   -1    0    0  501  502  0.00000000000E+00 -0.00000000000E+00 -0.59024337763E+02  0.59024337763E+02  0.00000000000E+00 0. -1.
         23    2    1    2    0    0  0.24270916072E+02  0.47679920285E+01  0.96102339414E+02  0.13272132106E+03  0.88133298516E+02 0.  0.
         23    2    1    2    0    0 -0.35550338943E+02  0.18451379216E+02  0.39983881912E+02  0.10788145504E+03  0.91844529156E+02 0.  0.
        -11    1    3    3    0    0  0.26686906903E+02  0.38702107807E+02  0.23530328313E+02  0.52571099468E+02  0.00000000000E+00 0.  1.
         11    1    3    3    0    0 -0.24159908314E+01 -0.33934115779E+02  0.72572011101E+02  0.80150221589E+02  0.00000000000E+00 0. -1.
        -13    1    4    4    0    0 -0.15427096745E+01  0.45356586697E+02  0.45385196543E+02  0.64182676597E+02  0.00000000000E+00 0.  1.
         13    1    4    4    0    0 -0.34007629269E+02 -0.26905207480E+02 -0.54013146316E+01  0.43698778447E+02  0.00000000000E+00 0. -1.
         -3    1    1    2    0  502  0.11279422871E+02 -0.23219371245E+02  0.17855526794E+02  0.31387647545E+02  0.00000000000E+00 0.  1.
<scales pt_clust_5="13000.00000" pt_clust_6="13000.00000" pt_clust_7="13000.00000" pt_clust_8="13000.00000" pt_clust_9="25.81405"></scales>
<clustering>
<clus scale="   25.814">  2  9  1 -1</clus>
<clus scale="   88.133">  5  6 -1 -1</clus>
<clus scale="   91.845">  7  8 -1 -1</clus>
<clus scale="   92.603">  1  5  2 -1</clus>
<clus scale="   25.814">  2  5  1 -1</clus>
</clustering>
</event>
<event>
 9    1  0.1445593E-005  0.1017422E+03  0.7546771E-02  0.1279449E+00
         -1   -1    0    0    0  501 -0.00000000000E+00  0.00000000000E+00  0.26450508169E+03  0.26450508169E+03  0.00000000000E+00 0.  1.
         21   -1    0    0  501  502  0.00000000000E+00 -0.00000000000E+00 -0.75360035061E+02  0.75360035061E+02  0.00000000000E+00 0. -1.
         23    2    1    2    0    0  0.46395268810E+02 -0.17935562112E+02  0.15832100120E+03  0.18747462032E+03  0.87218051381E+02 0.  0.
         23    2    1    2    0    0 -0.17784883680E+02  0.21730981923E+02  0.57674683301E+02  0.11297075388E+03  0.92991851665E+02 0.  0.
        -11    1    3    3    0    0  0.40317532249E+02 -0.37355404544E+02  0.15782303655E+03  0.16711983880E+03  0.00000000000E+00 0. -1.
         11    1    3    3    0    0  0.60777365608E+01  0.19419842432E+02  0.49796464917E+00  0.20354781516E+02  0.00000000000E+00 0.  1.
        -13    1    4    4    0    0 -0.39350260396E+02  0.74815004708E+01  0.72749878117E+02  0.83047941627E+02  0.00000000000E+00 0.  1.
         13    1    4    4    0    0  0.21565376716E+02  0.14249481452E+02 -0.15075194815E+02  0.29922812255E+02  0.00000000000E+00 0. -1.
         -1    1    1    2    0  502 -0.28610385129E+02 -0.37954198106E+01 -0.26850637870E+02  0.39419742552E+02  0.00000000000E+00 0.  1.
<scales pt_clust_5="13000.00000" pt_clust_6="13000.00000" pt_clust_7="13000.00000" pt_clust_8="13000.00000" pt_clust_9="28.86104"></scales>
<clustering>
<clus scale="   28.861">  2  9  1 -1</clus>
<clus scale="   87.218">  5  6 -1 -1</clus>
<clus scale="   92.992">  7  8 -1 -1</clus>
<clus scale="   96.493">  1  5  2 -1</clus>
<clus scale="   28.861">  2  5  1 -1</clus>
</clustering>
</event>
<event>
 9    1  0.1445593E-005  0.1110627E+03  0.7546771E-02  0.1262174E+00
         21   -1    0    0  501  502  0.00000000000E+00  0.00000000000E+00  0.78608043310E+02  0.78608043310E+02  0.00000000000E+00 0. -1.
         -3   -1    0    0    0  501 -0.00000000000E+00 -0.00000000000E+00 -0.30109448287E+03  0.30109448287E+03  0.00000000000E+00 0.  1.
         23    2    1    2    0    0  0.47139702330E+02 -0.48233850562E+02 -0.13439420951E+03  0.17838282741E+03  0.95968607824E+02 0.  0.
         23    2    1    2    0    0  0.22369169441E+02  0.56491491142E+02 -0.30165290775E+02  0.11046155562E+03  0.87178794384E+02 0.  0.
        -13    1    3    3    0    0  0.48026631458E+02 -0.71129228622E+02 -0.72379489040E+02  0.11227072159E+03  0.00000000000E+00 0. -1.
         13    1    3    3    0    0 -0.88692912834E+00  0.22895378060E+02 -0.62014720474E+02  0.66112105814E+02  0.00000000000E+00 0.  1.
        -13    1    4    4    0    0  0.41046666147E+02  0.23450415849E+02  0.16716638911E+02  0.50141767238E+02  0.00000000000E+00 0. -1.
         13    1    4    4    0    0 -0.18677496706E+02  0.33041075293E+02 -0.46881929686E+02  0.60319788385E+02  0.00000000000E+00 0.  1.
         -3    1    1    2    0  502 -0.69508871771E+02 -0.82576405804E+01 -0.57926939266E+02  0.90858143144E+02  0.00000000000E+00 0.  1.
<scales pt_clust_5="13000.00000" pt_clust_6="13000.00000" pt_clust_7="13000.00000" pt_clust_8="13000.00000" pt_clust_9="69.99769"></scales>
<clustering>
<clus scale="   69.998">  1  9  2 -1</clus>
<clus scale="   87.179">  7  8 -1 -1</clus>
<clus scale="   95.969">  5  6 -1 -1</clus>
<clus scale="  103.562">  1  7  2 -1</clus>
<clus scale="   69.998">  1  5  2 -1</clus>
</clustering>
</event>
<event>
 9    1  0.1445593E-005  0.9706046E+02  0.7546771E-02  0.1294299E+00
          1   -1    0    0  502    0 -0.00000000000E+00  0.00000000000E+00  0.90560103889E+02  0.90560103889E+02  0.00000000000E+00 0. -1.
         21   -1    0    0  501  502  0.00000000000E+00 -0.00000000000E+00 -0.50223593523E+03  0.50223593523E+03  0.00000000000E+00 0.  1.
         23    2    1    2    0    0  0.35100391104E+02  0.31873295190E+01  0.60434566318E+02  0.10310158464E+03  0.75732446316E+02 0.  0.
         23    2    1    2    0    0 -0.55721846702E+02 -0.69462642055E+01 -0.34713051097E+03  0.36296897914E+03  0.89965067600E+02 0.  0.
        -11    1    3    3    0    0 -0.10449317571E+02  0.19632685363E+02  0.48303715780E+02  0.53177810508E+02  0.00000000000E+00 0. -1.
         11    1    3    3    0    0  0.45549708675E+02 -0.16445355844E+02  0.12130850537E+02  0.49923774136E+02  0.00000000000E+00 0.  1.
        -13    1    4    4    0    0 -0.88102955901E+01  0.28014470037E+02 -0.36356146971E+02  0.46735439042E+02  0.00000000000E+00 0. -1.
         13    1    4    4    0    0 -0.46911551112E+02 -0.34960734243E+02 -0.31077436400E+03  0.31623354010E+03  0.00000000000E+00 0.  1.
          1    1    1    2  501    0  0.20621455598E+02  0.37589346865E+01 -0.12497988669E+03  0.12672547533E+03  0.00000000000E+00 0. -1.
<scales pt_clust_5="13000.00000" pt_clust_6="13000.00000" pt_clust_7="13000.00000" pt_clust_8="13000.00000" pt_clust_9="20.96125"></scales>
<clustering>
<clus scale="   20.961">  2  9  1 -1</clus>
<clus scale="   75.732">  5  6 -1 -1</clus>
<clus scale="   84.038">  1  5  2 -1</clus>
<clus scale="   89.965">  7  8 -1 -1</clus>
<clus scale="   20.961">  2  5  1 -1</clus>
</clustering>
</event>
<event>
 9    1  0.1445593E-005  0.1239753E+03  0.7546771E-02  0.1236819E+00
         21   -1    0    0  501  502  0.00000000000E+00  0.00000000000E+00  0.37476695170E+02  0.37476695170E+02  0.00000000000E+00 0.  1.
         -4   -1    0    0    0  501 -0.00000000000E+00 -0.00000000000E+00 -0.73397369289E+03  0.73397369289E+03  0.00000000000E+00 0.  1.
         23    2    1    2    0    0 -0.72600166448E+02  0.22433244900E+02 -0.45953839713E+03  0.47462319991E+03  0.91200925480E+02 0.  0.
         23    2    1    2    0    0  0.10781185749E+03 -0.14515666376E+02 -0.20085004951E+03  0.24577448306E+03  0.90720741569E+02 0.  0.
        -13    1    3    3    0    0 -0.91494047637E+02  0.46224801126E+01 -0.38286099280E+03  0.39366872860E+03  0.00000000000E+00 0.  1.
         13    1    3    3    0    0  0.18893881189E+02  0.17810764787E+02 -0.76677404331E+02  0.80954471301E+02  0.00000000000E+00 0. -1.
        -13    1    4    4    0    0  0.94032783716E+02 -0.45587042617E+02 -0.12691843597E+03  0.16440386935E+03  0.00000000000E+00 0.  1.
         13    1    4    4    0    0  0.13779073775E+02  0.31071376241E+02 -0.73931613539E+02  0.81370613713E+02  0.00000000000E+00 0. -1.
         -4    1    1    2    0  502 -0.35211691043E+02 -0.79175785244E+01 -0.36108551076E+02  0.51052705086E+02  0.00000000000E+00 0.  1.
<scales pt_clust_5="13000.00000" pt_clust_6="13000.00000" pt_clust_7="13000.00000" pt_clust_8="13000.00000" pt_clust_9="36.09087"></scales>
<clustering>
<clus scale="   36.091">  1  9  2 -1</clus>
<clus scale="   90.721">  7  8 -1 -1</clus>
<clus scale="   91.201">  5  6 -1 -1</clus>
<clus scale="  123.622">  1  7  2 -1</clus>
<clus scale="   36.091">  1  5  2 -1</clus>
</clustering>
</event>
<event>
 9    1  0.1445593E-005  0.9351100E+02  0.7546771E-02  0.1295231E+00
         21   -1    0    0  501  502  0.00000000000E+00  0.00000000000E+00  0.35892052311E+02  0.35892052311E+02  0.00000000000E+00 0. -1.
         -1   -1    0    0    0  501 -0.00000000000E+00 -0.00000000000E+00 -0.42934807414E+03  0.42934807414E+03  0.00000000000E+00 0.  1.
         23    2    1    2    0    0  0.39695380059E+02 -0.90230277900E+01 -0.23041962557E+03  0.25086290372E+03  0.90453603511E+02 0.  0.
         23    2    1    2    0    0  0.52026986802E+01  0.14175629989E+02 -0.12990885912E+03  0.15834312150E+03  0.89264863687E+02 0.  0.
        -11    1    4    4    0    0  0.26147504076E+02 -0.10679058402E+01 -0.30016680323E+00  0.26171023908E+02  0.00000000000E+00 0. -1.
         11    1    4    4    0    0 -0.20944805396E+02  0.15243535830E+02 -0.12960869231E+03  0.13217209759E+03  0.00000000000E+00 0.  1.
        -11    1    3    3    0    0  0.58639172056E+02 -0.33851230782E+02 -0.14914297572E+03  0.16379281282E+03  0.00000000000E+00 0. -1.
         11    1    3    3    0    0 -0.18943791997E+02  0.24828202992E+02 -0.81276649842E+02  0.87070090896E+02  0.00000000000E+00 0.  1.
         -1    1    1    2    0  502 -0.44898078739E+02 -0.51526021995E+01 -0.33127537145E+02  0.56034101235E+02  0.00000000000E+00 0.  1.
<scales pt_clust_5="13000.00000" pt_clust_6="13000.00000" pt_clust_7="13000.00000" pt_clust_8="13000.00000" pt_clust_9="45.19277"></scales>
<clustering>
<clus scale="   45.193">  1  9  2 -1</clus>
<clus scale="   89.265">  5  6 -1 -1</clus>
<clus scale="   90.454">  7  8 -1 -1</clus>
<clus scale="   92.362">  1  5  2 -1</clus>
<clus scale="   45.193">  1  5  2 -1</clus>
</clustering>
</event>
<event>
 9    1  0.1445593E-005  0.9234915E+02  0.7546771E-02  0.1297653E+00
          2   -1    0    0  502    0 -0.00000000000E+00  0.00000000000E+00  0.22493714483E+03  0.22493714483E+03  0.00000000000E+00 0. -1.
         21   -1    0    0  501  502  0.00000000000E+00 -0.00000000000E+00 -0.71048762204E+02  0.71048762204E+02  0.00000000000E+00 0. -1.
         23    2    1    2    0    0  0.63662699088E+01 -0.33931059211E+02  0.76344595659E+02  0.12352649412E+03  0.90765914809E+02 0.  0.
         23    2    1    2    0    0 -0.23121707585E+02 -0.16832795207E+02  0.71796181807E+02  0.11869373081E+03  0.90086367760E+02 0.  0.
        -11    1    4    4    0    0 -0.49262657806E+02  0.16354476850E+02  0.34372677677E+02  0.62255596840E+02  0.00000000000E+00 0. -1.
         11    1    4    4    0    0  0.26140950221E+02 -0.33187272057E+02  0.37423504129E+02  0.56438133973E+02  0.00000000000E+00 0.  1.
        -13    1    3    3    0    0 -0.19716526337E+02  0.21509373251E+02  0.47641557532E+02  0.55866918230E+02  0.00000000000E+00 0.  1.
         13    1    3    3    0    0  0.26082796246E+02 -0.55440432463E+02  0.28703038126E+02  0.67659575888E+02  0.00000000000E+00 0. -1.
          2    1    1    2  501    0  0.16755437677E+02  0.50763854418E+02  0.57476051634E+01  0.53765682105E+02  0.00000000000E+00 0. -1.
<scales pt_clust_5="13000.00000" pt_clust_6="13000.00000" pt_clust_7="13000.00000" pt_clust_8="13000.00000" pt_clust_9="53.45759"></scales>
<clustering>
<clus scale="   53.458">  2  9  1 -1</clus>
<clus scale="   90.086">  5  6 -1 -1</clus>
<clus scale="   90.766">  7  8 -1 -1</clus>
<clus scale="   91.681">  2  5  1 -1</clus>
<clus scale="   53.458">  2  5  1 -1</clus>
</clustering>
</event>
<event>
 9    1  0.1445593E-005  0.1748364E+03  0.7546771E-02  0.1187977E+00
         -4   -1    0    0    0  501 -0.00000000000E+00  0.00000000000E+00  0.34387420478E+03  0.34387420478E+03  0.00000000000E+00 0.  1.
         21   -1    0    0  501  502  0.00000000000E+00 -0.00000000000E+00 -0.38261537673E+03  0.38261537673E+03  0.00000000000E+00 0.  1.
         23    2    1    2    0    0 -0.24944147678E+02  0.88177437592E+02  0.23162888994E+03  0.26301460672E+03  0.84423158479E+02 0.  0.
         23    2    1    2    0    0  0.78201462310E+02  0.69394308019E+02  0.79114528339E+01  0.13927473109E+03  0.91672356476E+02 0.  0.
        -11    1    4    4    0    0  0.82953162675E+02  0.14817037322E+02  0.48447323679E+01  0.84405232210E+02  0.00000000000E+00 0. -1.
         11    1    4    4    0    0 -0.47517003649E+01  0.54577270697E+02  0.30667204660E+01  0.54869498882E+02  0.00000000000E+00 0.  1.
        -13    1    3    3    0    0 -0.26793994379E+02  0.51351016651E+02  0.46578381283E+02  0.74326244684E+02  0.00000000000E+00 0. -1.
         13    1    3    3    0    0  0.18498467004E+01  0.36826420940E+02  0.18505050866E+03  0.18868836203E+03  0.00000000000E+00 0.  1.
         -4    1    1    2    0  502 -0.53257314632E+02 -0.15757174561E+03 -0.27828151473E+03  0.32420024370E+03  0.00000000000E+00 0.  1.
<scales pt_clust_5="13000.00000" pt_clust_6="13000.00000" pt_clust_7="13000.00000" pt_clust_8="13000.00000" pt_clust_9="148.87558"></scales>
<clustering>
<clus scale="   84.423">  7  8 -1 -1</clus>
<clus scale="   91.672">  5  6 -1 -1</clus>
<clus scale="  124.598">  1  7  2 -1</clus>
<clus scale="  148.876">  2  9  1 -1</clus>
<clus scale="  148.876">  2  5  1 -1</clus>
</clustering>
</event>
<event>
 9    1  0.1445593E-005  0.1271927E+03  0.7546771E-02  0.1235115E+00
          1   -1    0    0  502    0 -0.00000000000E+00  0.00000000000E+00  0.39351346904E+02  0.39351346904E+02  0.00000000000E+00 0. -1.
         21   -1    0    0  501  502  0.00000000000E+00 -0.00000000000E+00 -0.85170605519E+03  0.85170605519E+03  0.00000000000E+00 0.  1.
         23    2    1    2    0    0 -0.47683579220E+02 -0.66172538196E+02 -0.19839920046E+03  0.23663322202E+03  0.99902504883E+02 0.  0.
         23    2    1    2    0    0  0.10239883274E+03 -0.33879267092E+01 -0.41820533180E+03  0.43959739250E+03  0.88618107343E+02 0.  0.
        -11    1    4    4    0    0  0.86267252621E+02  0.29950964382E+02 -0.22412338562E+03  0.24201320444E+03  0.00000000000E+00 0.  1.
         11    1    4    4    0    0  0.16131580124E+02 -0.33338891091E+02 -0.19408194618E+03  0.19758418806E+03  0.00000000000E+00 0. -1.
        -11    1    3    3    0    0 -0.74348204943E+01 -0.28531236440E+02  0.12576330175E+01  0.29510839524E+02  0.00000000000E+00 0. -1.
         11    1    3    3    0    0 -0.40248758725E+02 -0.37641301755E+02 -0.19965683347E+03  0.20712238249E+03  0.00000000000E+00 0.  1.
          1    1    1    2  501    0 -0.54715253525E+02  0.69560464905E+02 -0.19575017603E+03  0.21482678758E+03  0.00000000000E+00 0. -1.
<scales pt_clust_5="13000.00000" pt_clust_6="13000.00000" pt_clust_7="13000.00000" pt_clust_8="13000.00000" pt_clust_9="88.50099"></scales>
<clustering>
<clus scale="   88.501">  2  9  1 -1</clus>
<clus scale="   88.618">  5  6 -1 -1</clus>
<clus scale="   99.903">  7  8 -1 -1</clus>
<clus scale="  118.535">  2  5  1 -1</clus>
<clus scale="   88.501">  2  5  1 -1</clus>
</clustering>
</event>
<event>
 9    1  0.1445593E-005  0.1113658E+03  0.7546771E-02  0.1258257E+00
          1   -1    0    0  502    0 -0.00000000000E+00  0.00000000000E+00  0.26294642678E+03  0.26294642678E+03  0.00000000000E+00 0. -1.
         21   -1    0    0  501  502  0.00000000000E+00 -0.00000000000E+00 -0.95658453802E+02  0.95658453802E+02  0.00000000000E+00 0.  1.
         23    2    1    2    0    0 -0.54348645502E+02  0.45679909257E+02  0.19080050627E+03  0.22279060777E+03  0.90500786398E+02 0.  0.
         23    2    1    2    0    0  0.25633247188E+02 -0.30941997598E+02 -0.29773960571E+02  0.10293592717E+03  0.89971360990E+02 0.  0.
        -13    1    3    3    0    0 -0.45249025056E+02  0.17737639783E+02  0.25474187891E+02  0.54872874740E+02  0.00000000000E+00 0. -1.
         13    1    3    3    0    0 -0.90996204453E+01  0.27942269474E+02  0.16532631838E+03  0.16791773303E+03  0.00000000000E+00 0.  1.
        -13    1    4    4    0    0  0.44307330518E+00 -0.51718449158E+02 -0.43435992448E+02  0.67540208300E+02  0.00000000000E+00 0.  1.
         13    1    4    4    0    0  0.25190173882E+02  0.20776451560E+02  0.13662031877E+02  0.35395718875E+02  0.00000000000E+00 0. -1.
          1    1    1    2  501    0  0.28715398314E+02 -0.14737911659E+02  0.62614272774E+01  0.32878345639E+02  0.00000000000E+00 0. -1.
<scales pt_clust_5="13000.00000" pt_clust_6="13000.00000" pt_clust_7="13000.00000" pt_clust_8="13000.00000" pt_clust_9="32.27662"></scales>
<clustering>
<clus scale="   32.277">  2  9  1 -1</clus>
<clus scale="   89.971">  7  8 -1 -1</clus>
<clus scale="   90.501">  5  6 -1 -1</clus>
<clus scale="  110.936">  2  7  1 -1</clus>
<clus scale="   32.277">  2  5  1 -1</clus>
</clustering>
</event>
<event>
 9    1  0.1445593E-005  0.9513469E+02  0.7546771E-02  0.1293013E+00
         21   -1    0    0  501  502  0.00000000000E+00  0.00000000000E+00  0.21629590071E+03  0.21629590071E+03  0.00000000000E+00 0. -1.
         -1   -1    0    0    0  501 -0.00000000000E+00 -0.00000000000E+00 -0.15446086687E+03  0.15446086687E+03  0.00000000000E+00 0.  1.
         23    2    1    2    0    0  0.10673107783E+02 -0.57309361437E+01 -0.58505802867E+02  0.11111810473E+03  0.93688555175E+02 0.  0.
         23    2    1    2    0    0  0.16942623823E+01  0.27966071943E+02 -0.36318187396E+02  0.10092696530E+03  0.89901445397E+02 0.  0.
        -11    1    3    3    0    0 -0.92268588180E+00  0.40538255667E+02 -0.46953619262E+02  0.62039051279E+02  0.00000000000E+00 0.  1.
         11    1    3    3    0    0  0.11595793665E+02 -0.46269191811E+02 -0.11552183605E+02  0.49079053451E+02  0.00000000000E+00 0. -1.
        -13    1    4    4    0    0  0.37490555690E+02 -0.57278995022E+01 -0.35217061059E+02  0.51755115576E+02  0.00000000000E+00 0. -1.
         13    1    4    4    0    0 -0.35796293308E+02  0.33693971445E+02 -0.11011263376E+01  0.49171849726E+02  0.00000000000E+00 0.  1.
         -1    1    1    2    0  502 -0.12367370165E+02 -0.22235135799E+02  0.15665902410E+03  0.15871169755E+03  0.00000000000E+00 0.  1.
<scales pt_clust_5="13000.00000" pt_clust_6="13000.00000" pt_clust_7="13000.00000" pt_clust_8="13000.00000" pt_clust_9="25.44313"></scales>
<clustering>
<clus scale="   25.443">  1  9  2 -1</clus>
<clus scale="   89.901">  7  8 -1 -1</clus>
<clus scale="   91.408">  1  7  2 -1</clus>
<clus scale="   93.689">  5  6 -1 -1</clus>
<clus scale="   25.443">  1  5  2 -1</clus>
</clustering>
</event>
<event>
 9    1  0.1445593E-005  0.9352017E+02  0.7546771E-02  0.1295042E+00
         21   -1    0    0  501  502  0.00000000000E+00  0.00000000000E+00  0.61781795240E+02  0.61781795240E+02  0.00000000000E+00 0.  1.
          1   -1    0    0  502    0 -0.00000000000E+00 -0.00000000000E+00 -0.28363745046E+03  0.28363745046E+03  0.00000000000E+00 0. -1.
         23    2    1    2    0    0  0.23724324065E+02 -0.13545576450E+02 -0.16767887550E+03  0.19287737015E+03  0.91318937988E+02 0.  0.
         23    2    1    2    0    0  0.19075246098E+01 -0.10010056500E+02 -0.68079408008E+02  0.11505664401E+03  0.92192112756E+02 0.  0.
        -11    1    3    3    0    0 -0.30369690130E+02  0.14083153175E+02 -0.74134635020E+02  0.81342469790E+02  0.00000000000E+00 0.  1.
         11    1    3    3    0    0  0.54094014195E+02 -0.27628729625E+02 -0.93544240476E+02  0.11153490036E+03  0.00000000000E+00 0. -1.
        -13    1    4    4    0    0  0.41951568617E+02  0.15551951528E+02 -0.39021549638E+02  0.59367319646E+02  0.00000000000E+00 0. -1.
         13    1    4    4    0    0 -0.40044044007E+02 -0.25562008027E+02 -0.29057858370E+02  0.55689324362E+02  0.00000000000E+00 0.  1.
          1    1    1    2  501    0 -0.25631848675E+02  0.23555632949E+02  0.13902628287E+02  0.37485231537E+02  0.00000000000E+00 0. -1.
<scales pt_clust_5="13000.00000" pt_clust_6="13000.00000" pt_clust_7="13000.00000" pt_clust_8="13000.00000" pt_clust_9="34.81177"></scales>
<clustering>
<clus scale="   34.812">  1  9  2 -1</clus>
<clus scale="   91.319">  5  6 -1 -1</clus>
<clus scale="   92.192">  7  8 -1 -1</clus>
<clus scale="   92.660">  2  5  1 -1</clus>
<clus scale="   34.812">  1  5  2 -1</clus>
</clustering>
</event>
<event>
 9    1  0.1445593E-005  0.1138609E+03  0.7546771E-02  0.1255042E+00
         -1   -1    0    0    0  501 -0.00000000000E+00  0.00000000000E+00  0.15228911864E+03  0.15228911864E+03  0.00000000000E+00 0.  1.
         21   -1    0    0  501  502  0.00000000000E+00 -0.00000000000E+00 -0.34570393099E+03  0.34570393099E+03  0.00000000000E+00 0.  1.
         23    2    1    2    0    0  0.32006417304E+02 -0.43189556967E+02  0.62377579372E+02  0.12043831604E+03  0.87890141555E+02 0.  0.
         23    2    1    2    0    0 -0.45617385303E+02  0.13735752624E+03 -0.11087648643E+03  0.20419532515E+03  0.91946178358E+02 0.  0.
        -11    1    4    4    0    0  0.12350911425E+02  0.77074366435E+02 -0.87709156962E+02  0.11741336887E+03  0.00000000000E+00 0.  1.
         11    1    4    4    0    0 -0.57968296728E+02  0.60283159800E+02 -0.23167329466E+02  0.86781956279E+02  0.00000000000E+00 0. -1.
        -11    1    3    3    0    0  0.29206891014E+02  0.22738271022E+02  0.21156824214E+02  0.42634289752E+02  0.00000000000E+00 0.  1.
         11    1    3    3    0    0  0.27995262894E+01 -0.65927827989E+02  0.41220755157E+02  0.77804026288E+02  0.00000000000E+00 0. -1.
         -1    1    1    2    0  502  0.13610968000E+02 -0.94167969268E+02 -0.14491590530E+03  0.17335940844E+03  0.00000000000E+00 0.  1.
<scales pt_clust_5="13000.00000" pt_clust_6="13000.00000" pt_clust_7="13000.00000" pt_clust_8="13000.00000" pt_clust_9="95.14654"></scales>
<clustering>
<clus scale="   87.890">  7  8 -1 -1</clus>
<clus scale="   91.946">  5  6 -1 -1</clus>
<clus scale="   95.147">  2  9  1 -1</clus>
<clus scale="  110.611">  1  7  2 -1</clus>
<clus scale="   95.147">  2  5  1 -1</clus>
</clustering>
</event>
<event>
 9    1  0.1445593E-005  0.9346053E+02  0.7546771E-02  0.1295170E+00
          1   -1    0    0  502    0 -0.00000000000E+00  0.00000000000E+00  0.35623814020E+03  0.35623814020E+03  0.00000000000E+00 0. -1.
         21   -1    0    0  501  502  0.00000000000E+00 -0.00000000000E+00 -0.79555123454E+02  0.79555123454E+02  0.00000000000E+00 0. -1.
         23    2    1    2    0    0  0.23843771538E+02  0.45550347272E+01  0.24750006877E+03  0.26369192136E+03  0.87680508469E+02 0.  0.
         23    2    1    2    0    0 -0.74067685858E+02 -0.18464374317E+02  0.31960888290E+02  0.11991295039E+03  0.86779387429E+02 0.  0.
        -13    1    3    3    0    0  0.30689997221E+02 -0.26288866370E+02  0.21345062606E+03  0.21724214644E+03  0.00000000000E+00 0.  1.
         13    1    3    3    0    0 -0.68462256834E+01  0.30843901097E+02  0.34049442711E+02  0.46449774918E+02  0.00000000000E+00 0. -1.
        -13    1    4    4    0    0 -0.75371733120E+02 -0.45671068128E+02  0.27441322155E+02  0.92302604400E+02  0.00000000000E+00 0. -1.
         13    1    4    4    0    0  0.13040472612E+01  0.27206693811E+02  0.45195661348E+01  0.27610345985E+02  0.00000000000E+00 0.  1.
          1    1    1    2  501    0  0.50223914321E+02  0.13909339589E+02 -0.27779403176E+01  0.52188391908E+02  0.00000000000E+00 0. -1.
<scales pt_clust_5="13000.00000" pt_clust_6="13000.00000" pt_clust_7="13000.00000" pt_clust_8="13000.00000" pt_clust_9="52.11441"></scales>
<clustering>
<clus scale="   52.114">  2  9  1 -1</clus>
<clus scale="   86.779">  7  8 -1 -1</clus>
<clus scale="   87.681">  5  6 -1 -1</clus>
<clus scale="   92.616">  2  7  1 -1</clus>
<clus scale="   52.114">  2  5  1 -1</clus>
</clustering>
</event>
<event>
 9    1  0.1445593E-005  0.1372299E+03  0.7546771E-02  0.1221432E+00
         21   -1    0    0  501  502  0.00000000000E+00  0.00000000000E+00  0.45776404662E+02  0.45776404662E+02  0.00000000000E+00 0. -1.
          2   -1    0    0  502    0 -0.00000000000E+00 -0.00000000000E+00 -0.48175773425E+03  0.48175773425E+03  0.00000000000E+00 0.  1.
         23    2    1    2    0    0  0.95555886114E+02 -0.15755601470E+01 -0.18749554700E+03  0.22290977584E+03  0.73489987500E+02 0.  0.
         23    2    1    2    0    0 -0.10729950182E+03 -0.21416191365E+02 -0.23576238467E+03  0.27584211156E+03  0.92374954081E+02 0.  0.
        -11    1    4    4    0    0 -0.44561266052E+02 -0.21190675692E+02 -0.19471216146E+03  0.20086706298E+03  0.00000000000E+00 0.  1.
         11    1    4    4    0    0 -0.62738235764E+02 -0.22551567322E+00 -0.41050223207E+02  0.74975048579E+02  0.00000000000E+00 0. -1.
        -11    1    3    3    0    0  0.57907398857E+02 -0.16942939459E+02 -0.46520595064E+02  0.76187241747E+02  0.00000000000E+00 0. -1.
         11    1    3    3    0    0  0.37648487257E+02  0.15367379312E+02 -0.14097495193E+03  0.14672253410E+03  0.00000000000E+00 0.  1.
          2    1    1    2  501    0  0.11743615701E+02  0.22991751512E+02 -0.12723397924E+02  0.28782251511E+02  0.00000000000E+00 0.  1.
<scales pt_clust_5="13000.00000" pt_clust_6="13000.00000" pt_clust_7="13000.00000" pt_clust_8="13000.00000" pt_clust_9="25.81730"></scales>
<clustering>
<clus scale="   25.817">  1  9  2 -1</clus>
<clus scale="   73.490">  7  8 -1 -1</clus>
<clus scale="   92.375">  5  6 -1 -1</clus>
<clus scale="  125.298">  2  7  1 -1</clus>
<clus scale="   25.817">  1  5  2 -1</clus>
</clustering>
</event>
<event>
 9    1  0.1445593E-005  0.1500140E+03  0.7546771E-02  0.1200617E+00
         21   -1    0    0  501  502  0.00000000000E+00  0.00000000000E+00  0.92789710059E+02  0.92789710059E+02  0.00000000000E+00 0. -1.
          3   -1    0    0  502    0 -0.00000000000E+00 -0.00000000000E+00 -0.42820220163E+03  0.42820220163E+03  0.00000000000E+00 0. -1.
         23    2    1    2    0    0  0.71483979773E+02  0.93281121300E+02 -0.23951376561E+03  0.28148974604E+03  0.89768069236E+02 0.  0.
         23    2    1    2    0    0 -0.11392192899E+03 -0.67588597210E+02 -0.41300570740E+02  0.16573195566E+03  0.90636193686E+02 0.  0.
        -13    1    4    4    0    0 -0.86653821163E+02 -0.74039419901E+01 -0.47971062978E+02  0.99322333654E+02  0.00000000000E+00 0.  1.
         13    1    4    4    0    0 -0.27268107829E+02 -0.60184655220E+02  0.66704922382E+01  0.66409622008E+02  0.00000000000E+00 0. -1.
        -13    1    3    3    0    0 -0.21504972849E+02  0.21441051224E+02 -0.50463366372E+02  0.58895958099E+02  0.00000000000E+00 0.  1.
         13    1    3    3    0    0  0.92988952622E+02  0.71840070076E+02 -0.18905039924E+03  0.22259378794E+03  0.00000000000E+00 0. -1.
          3    1    1    2  501    0  0.42437949219E+02 -0.25692524090E+02 -0.54598155228E+02  0.73770209993E+02  0.00000000000E+00 0. -1.
<scales pt_clust_5="13000.00000" pt_clust_6="13000.00000" pt_clust_7="13000.00000" pt_clust_8="13000.00000" pt_clust_9="49.60935"></scales>
<clustering>
<clus scale="   49.609">  1  9  2 -1</clus>
<clus scale="   89.768">  7  8 -1 -1</clus>
<clus scale="   90.636">  5  6 -1 -1</clus>
<clus scale="  149.491">  2  7  1 -1</clus>
<clus scale="   49.609">  1  5  2 -1</clus>
</clustering>
</event>
<event>
 9    1  0.1445593E-005  0.9515505E+02  0.7546771E-02  0.1291767E+00
         21   -1    0    0  501  502  0.00000000000E+00  0.00000000000E+00  0.68656650927E+02  0.68656650927E+02  0.00000000000E+00 0.  1.
         -3   -1    0    0    0  501 -0.00000000000E+00 -0.00000000000E+00 -0.33000471455E+03  0.33000471455E+03  0.00000000000E+00 0.  1.
         23    2    1    2    0    0 -0.38170132294E+02  0.24214231886E+01 -0.21431224161E+03  0.23526562430E+03  0.89204006540E+02 0.  0.
         23    2    1    2    0    0  0.69804159246E+01 -0.45528114957E+01 -0.77478865184E+02  0.11975951654E+03  0.90939061749E+02 0.  0.
        -13    1    4    4    0    0 -0.40585422557E+01  0.41458474363E+02 -0.49860952072E+02  0.64972235634E+02  0.00000000000E+00 0. -1.
         13    1    4    4    0    0  0.11038958180E+02 -0.46011285858E+02 -0.27617913112E+02  0.54787280903E+02  0.00000000000E+00 0.  1.
        -13    1    3    3    0    0  0.26711649257E+02 -0.12300242527E+02 -0.50186177772E+02  0.58167521966E+02  0.00000000000E+00 0. -1.
         13    1    3    3    0    0 -0.64881781551E+02  0.14721665715E+02 -0.16412606384E+03  0.17709810233E+03  0.00000000000E+00 0.  1.
         -3    1    1    2    0  502  0.31189716369E+02  0.21313883072E+01  0.30443043173E+02  0.43636224641E+02  0.00000000000E+00 0.  1.
<scales pt_clust_5="13000.00000" pt_clust_6="13000.00000" pt_clust_7="13000.00000" pt_clust_8="13000.00000" pt_clust_9="31.26246"></scales>
<clustering>
<clus scale="   31.262">  1  9  2 -1</clus>
<clus scale="   89.204">  7  8 -1 -1</clus>
<clus scale="   90.939">  5  6 -1 -1</clus>
<clus scale="   93.498">  2  7  1 -1</clus>
<clus scale="   31.262">  1  5  2 -1</clus>
</clustering>
</event>
<event>
 9    1  0.1445593E-005  0.9607067E+02  0.7546771E-02  0.1289635E+00
         -4   -1    0    0    0  501 -0.00000000000E+00  0.00000000000E+00  0.13975090334E+03  0.13975090334E+03  0.00000000000E+00 0.  1.
         21   -1    0    0  501  502  0.00000000000E+00 -0.00000000000E+00 -0.11564594505E+03  0.11564594505E+03  0.00000000000E+00 0. -1.
         23    2    1    2    0    0  0.15318613841E+02  0.24046339220E+02  0.64600385008E+02  0.11535667300E+03  0.91219876681E+02 0.  0.
         23    2    1    2    0    0  0.20460029097E+02 -0.24919250664E+02 -0.28393356885E+02  0.10226010976E+03  0.92797443330E+02 0.  0.
        -11    1    3    3    0    0  0.53206943312E+02  0.60270233291E+01  0.38398332777E+02  0.65891849168E+02  0.00000000000E+00 0. -1.
         11    1    3    3    0    0 -0.37888329470E+02  0.18019315891E+02  0.26202052232E+02  0.49464823828E+02  0.00000000000E+00 0.  1.
        -13    1    4    4    0    0  0.55100994029E+02  0.68213934763E+00 -0.14170616510E+02  0.56898077554E+02  0.00000000000E+00 0. -1.
         13    1    4    4    0    0 -0.34640964933E+02 -0.25601390012E+02 -0.14222740376E+02  0.45362032205E+02  0.00000000000E+00 0.  1.
         -4    1    1    2    0  502 -0.35778642938E+02  0.87291144413E+00 -0.12102069828E+02  0.37780065630E+02  0.00000000000E+00 0.  1.
<scales pt_clust_5="13000.00000" pt_clust_6="13000.00000" pt_clust_7="13000.00000" pt_clust_8="13000.00000" pt_clust_9="35.78929"></scales>
<clustering>
<clus scale="   35.789">  2  9  1 -1</clus>
<clus scale="   91.220">  5  6 -1 -1</clus>
<clus scale="   92.797">  7  8 -1 -1</clus>
<clus scale="   94.548">  1  5  2 -1</clus>
<clus scale="   35.789">  2  5  1 -1</clus>
</clustering>
</event>
<event>
 9    1  0.1445593E-005  0.1138627E+03  0.7546771E-02  0.1256313E+00
          2   -1    0    0  502    0 -0.00000000000E+00  0.00000000000E+00  0.18649330938E+03  0.18649330938E+03  0.00000000000E+00 0. -1.
         21   -1    0    0  501  502  0.00000000000E+00 -0.00000000000E+00 -0.21057633952E+03  0.21057633952E+03  0.00000000000E+00 0. -1.
         23    2    1    2    0    0  0.72009807995E+02  0.28998962287E+01  0.14265804899E+03  0.18073676059E+03  0.84383860085E+02 0.  0.
         23    2    1    2    0    0 -0.34297509450E+02 -0.89862964034E+01 -0.10732759829E+03  0.14569845312E+03  0.91933417264E+02 0.  0.
        -11    1    3    3    0    0  0.23170117784E+02  0.88832905734E+01 -0.48098288069E+01  0.25276504163E+02  0.00000000000E+00 0.  1.
         11    1    3    3    0    0  0.48839690211E+02 -0.59833943447E+01  0.14746787780E+03  0.15546025643E+03  0.00000000000E+00 0. -1.
        -11    1    4    4    0    0 -0.54551126931E+02  0.26963088129E+01 -0.10934825414E+03  0.12222984993E+03  0.00000000000E+00 0.  1.
         11    1    4    4    0    0  0.20253617480E+02 -0.11682605216E+02  0.20206558507E+01  0.23468603191E+02  0.00000000000E+00 0. -1.
          2    1    1    2  501    0 -0.37712298544E+02  0.60864001747E+01 -0.59413480845E+02  0.70634435191E+02  0.00000000000E+00 0. -1.
<scales pt_clust_5="13000.00000" pt_clust_6="13000.00000" pt_clust_7="13000.00000" pt_clust_8="13000.00000" pt_clust_9="38.20028"></scales>
<clustering>
<clus scale="   38.200">  2  9  1 -1</clus>
<clus scale="   84.384">  5  6 -1 -1</clus>
<clus scale="   91.933">  7  8 -1 -1</clus>
<clus scale="  107.859">  1  5  2 -1</clus>
<clus scale="   38.200">  2  5  1 -1</clus>
</clustering>
</event>
<event>
 9    1  0.1445593E-005  0.1049683E+03  0.7546771E-02  0.1272948E+00
         21   -1    0    0  501  502  0.00000000000E+00  0.00000000000E+00  0.22710758165E+03  0.22710758165E+03  0.00000000000E+00 0.  1.
          4   -1    0    0  502    0 -0.00000000000E+00 -0.00000000000E+00 -0.77246926751E+02  0.77246926751E+02  0.00000000000E+00 0. -1.
         23    2    1    2    0    0 -0.48983895576E+02  0.13248364807E+00 -0.34277006455E+01  0.98355091556E+02  0.85220510006E+02 0.  0.
         23    2    1    2    0    0  0.56580797743E+02 -0.24817032034E+02  0.11191164502E+03  0.15722368491E+03  0.91530317679E+02 0.  0.
        -11    1    4    4    0    0  0.42420867759E+02 -0.66874123104E+01  0.12400773235E+03  0.13123326250E+03  0.00000000000E+00 0.  1.
         11    1    4    4    0    0  0.14159929984E+02 -0.18129619724E+02 -0.12096087328E+02  0.25990422411E+02  0.00000000000E+00 0. -1.
        -13    1    3    3    0    0 -0.83773153836E+01 -0.26890286884E+02  0.28491668677E+02  0.40062976995E+02  0.00000000000E+00 0.  1.
         13    1    3    3    0    0 -0.40606580192E+02  0.27022770532E+02 -0.31919369322E+02  0.58292114561E+02  0.00000000000E+00 0. -1.
          4    1    1    2  501    0 -0.75969021669E+01  0.24684548386E+02  0.41376710522E+02  0.48775731929E+02  0.00000000000E+00 0. -1.
<scales pt_clust_5="13000.00000" pt_clust_6="13000.00000" pt_clust_7="13000.00000" pt_clust_8="13000.00000" pt_clust_9="25.82711"></scales>
<clustering>
<clus scale="   25.827">  1  9  2 -1</clus>
<clus scale="   85.221">  7  8 -1 -1</clus>
<clus scale="   91.530">  5  6 -1 -1</clus>
<clus scale="   99.514">  2  7  1 -1</clus>
<clus scale="   25.827">  1  5  2 -1</clus>
</clustering>
</event>
<event>
 9    1  0.2203935E-005  0.1111821E+03  0.7546771E-02  0.1258959E+00
          1   -1    0    0  502    0 -0.00000000000E+00  0.00000000000E+00  0.26915831377E+03  0.26915831377E+03  0.00000000000E+00 0. -1.
         21   -1    0    0  501  502  0.00000000000E+00 -0.00000000000E+00 -0.26326155776E+03  0.26326155776E+03  0.00000000000E+00 0. -1.
         23    2    1    2    0    0  0.54568880324E+02  0.41827060307E+02  0.22973569769E+03  0.25594824105E+03  0.89463655345E+02 0.  0.
         23    2    1    2    0    0  0.27171531927E+01 -0.35296013046E+02 -0.99341197908E+02  0.13927092925E+03  0.90964425327E+02 0.  0.
        -11    1    3    3    0    0  0.15473138701E+01  0.54754994475E+02  0.83528809270E+02  0.99887764907E+02  0.00000000000E+00 0.  1.
         11    1    3    3    0    0  0.53021566454E+02 -0.12927934168E+02  0.14620688842E+03  0.15606047614E+03  0.00000000000E+00 0. -1.
        -11    1    4    4    0    0 -0.43026559604E+02 -0.25361366483E+02 -0.42059185442E+02  0.65295166906E+02  0.00000000000E+00 0. -1.
         11    1    4    4    0    0  0.45743712797E+02 -0.99346465629E+01 -0.57282012466E+02  0.73975762348E+02  0.00000000000E+00 0.  1.
          1    1    1    2  501    0 -0.57286033516E+02 -0.65310472607E+01 -0.12449774377E+03  0.13720070123E+03  0.00000000000E+00 0. -1.
<scales pt_clust_5="13000.00000" pt_clust_6="13000.00000" pt_clust_7="13000.00000" pt_clust_8="13000.00000" pt_clust_9="57.65713"></scales>
<clustering>
<clus scale="   57.657">  2  9  1 -1</clus>
<clus scale="   89.464">  5  6 -1 -1</clus>
<clus scale="   90.964">  7  8 -1 -1</clus>
<clus scale="  109.958">  1  5  2 -1</clus>
<clus scale="   57.657">  2  5  1 -1</clus>
</clustering>
</event>
<event>
 9    1  0.1445593E-005  0.9690698E+02  0.7546771E-02  0.1288061E+00
         21   -1    0    0  501  502  0.00000000000E+00  0.00000000000E+00  0.60643765532E+02  0.60643765532E+02  0.00000000000E+00 0.  1.
         -1   -1    0    0    0  501 -0.00000000000E+00 -0.00000000000E+00 -0.57006642294E+03  0.57006642294E+03  0.00000000000E+00 0.  1.
         23    2    1    2    0    0 -0.26429920737E+02  0.74247371206E+01 -0.29291188911E+03  0.30845640991E+03  0.92705526267E+02 0.  0.
         23    2    1    2    0    0  0.13274170385E+02  0.87862961125E+01 -0.25826740356E+03  0.27556879218E+03  0.94777132691E+02 0.  0.
        -11    1    3    3    0    0 -0.28033387236E+02 -0.39201138432E+02 -0.11881730323E+03  0.12821915458E+03  0.00000000000E+00 0.  1.
         11    1    3    3    0    0  0.16034664991E+01  0.46625875553E+02 -0.17409458588E+03  0.18023725533E+03  0.00000000000E+00 0. -1.
        -13    1    4    4    0    0  0.44117622693E+02  0.21861211872E+02 -0.78184419178E+02  0.92396323621E+02  0.00000000000E+00 0. -1.
         13    1    4    4    0    0 -0.30843452308E+02 -0.13074915760E+02 -0.18008298438E+03  0.18317246856E+03  0.00000000000E+00 0.  1.
         -1    1    1    2    0  502  0.13155750352E+02 -0.16211033233E+02  0.41756635260E+02  0.46684986388E+02  0.00000000000E+00 0.  1.
<scales pt_clust_5="13000.00000" pt_clust_6="13000.00000" pt_clust_7="13000.00000" pt_clust_8="13000.00000" pt_clust_9="20.87753"></scales>
<clustering>
<clus scale="   20.878">  1  9  2 -1</clus>
<clus scale="   92.706">  5  6 -1 -1</clus>
<clus scale="   94.777">  7  8 -1 -1</clus>
<clus scale="   94.882">  2  5  1 -1</clus>
<clus scale="   20.878">  1  5  2 -1</clus>
</clustering>
</event>
<event>
 9    1  0.1445593E-005  0.1463248E+03  0.7546771E-02  0.1205728E+00
         21   -1    0    0  501  502  0.00000000000E+00  0.00000000000E+00  0.44334843322E+03  0.44334843322E+03  0.00000000000E+00 0.  1.
         -1   -1    0    0    0  501 -0.00000000000E+00 -0.00000000000E+00 -0.79096475599E+02  0.79096475599E+02  0.00000000000E+00 0.  1.
         23    2    1    2    0    0 -0.70966339879E+02 -0.38459793005E+02  0.12939089346E+03  0.17697457019E+03  0.89792082664E+02 0.  0.
         23    2    1    2    0    0  0.13440175590E+03  0.73910960897E+02  0.15103793797E+03  0.23453272645E+03  0.93093925379E+02 0.  0.
        -13    1    4    4    0    0  0.10827092224E+03  0.89266703803E+02  0.14819585891E+03  0.20409103265E+03  0.00000000000E+00 0.  1.
         13    1    4    4    0    0  0.26130833661E+02 -0.15355742906E+02  0.28420790518E+01  0.30441693799E+02  0.00000000000E+00 0. -1.
        -13    1    3    3    0    0 -0.31034783316E+02 -0.47216343086E+02  0.19576628611E+02  0.59797869675E+02  0.00000000000E+00 0.  1.
         13    1    3    3    0    0 -0.39931556563E+02  0.87565500814E+01  0.10981426485E+03  0.11717670051E+03  0.00000000000E+00 0. -1.
         -1    1    1    2    0  502 -0.63435416021E+02 -0.35451167892E+02  0.83823126190E+02  0.11093761217E+03  0.00000000000E+00 0.  1.
<scales pt_clust_5="13000.00000" pt_clust_6="13000.00000" pt_clust_7="13000.00000" pt_clust_8="13000.00000" pt_clust_9="72.66937"></scales>
<clustering>
<clus scale="   72.669">  1  9  2 -1</clus>
<clus scale="   89.792">  7  8 -1 -1</clus>
<clus scale="   93.094">  5  6 -1 -1</clus>
<clus scale="  144.247">  2  7  1 -1</clus>
<clus scale="   72.669">  1  5  2 -1</clus>
</clustering>
</event>
<event>
 9    1  0.1445593E-005  0.9210943E+02  0.7546771E-02  0.1298313E+00
          2   -1    0    0  502    0 -0.00000000000E+00  0.00000000000E+00  0.41035650370E+03  0.41035650370E+03  0.00000000000E+00 0. -1.
         21   -1    0    0  501  502  0.00000000000E+00 -0.00000000000E+00 -0.95183467121E+02  0.95183467121E+02  0.00000000000E+00 0. -1.
         23    2    1    2    0    0 -0.63679875883E+01 -0.18194665014E+02  0.32224220092E+03  0.33552522615E+03  0.91463349107E+02 0.  0.
         23    2    1    2    0    0 -0.19671640266E+01 -0.34710937979E+02  0.33652203175E+02  0.10273393498E+03  0.90625998856E+02 0.  0.
        -11    1    3    3    0    0  0.30926160670E+02  0.22496121249E+02  0.13636080660E+03  0.14162193496E+03  0.00000000000E+00 0.  1.
         11    1    3    3    0    0 -0.37294148259E+02 -0.40690786263E+02  0.18588139432E+03  0.19390329120E+03  0.00000000000E+00 0. -1.
        -13    1    4    4    0    0 -0.20887393405E+02  0.25303896521E+02  0.36265375713E+01  0.33010939961E+02  0.00000000000E+00 0.  1.
         13    1    4    4    0    0  0.18920229378E+02 -0.60014834500E+02  0.30025665603E+02  0.69722995021E+02  0.00000000000E+00 0. -1.
          2    1    1    2  501    0  0.83351516149E+01  0.52905602993E+02 -0.40721367513E+02  0.67280809690E+02  0.00000000000E+00 0. -1.
<scales pt_clust_5="13000.00000" pt_clust_6="13000.00000" pt_clust_7="13000.00000" pt_clust_8="13000.00000" pt_clust_9="53.55817"></scales>
<clustering>
<clus scale="   53.558">  2  9  1 -1</clus>
<clus scale="   90.626">  7  8 -1 -1</clus>
<clus scale="   91.278">  2  7  1 -1</clus>
<clus scale="   91.463">  5  6 -1 -1</clus>
<clus scale="   53.558">  2  5  1 -1</clus>
</clustering>
</event>
<event>
 9    1  0.1445593E-005  0.1376368E+03  0.7546771E-02  0.1218962E+00
          2   -1    0    0  502    0 -0.00000000000E+00  0.00000000000E+00  0.38506255696E+03  0.38506255696E+03  0.00000000000E+00 0. -1.
         21   -1    0    0  501  502  0.00000000000E+00 -0.00000000000E+00 -0.87940196420E+02  0.87940196420E+02  0.00000000000E+00 0.  1.
         23    2    1    2    0    0  0.89908160515E+02  0.99788243976E+01  0.20559824136E+03  0.24475749467E+03  0.97224174380E+02 0.  0.
         23    2    1    2    0    0 -0.10982763523E+03  0.13296660413E+02  0.12099826785E+03  0.18573338853E+03  0.87277718550E+02 0.  0.
        -13    1    4    4    0    0 -0.77573722854E+02  0.24438422742E+02  0.26942295556E+02  0.85678505317E+02  0.00000000000E+00 0.  1.
         13    1    4    4    0    0 -0.32253912372E+02 -0.11141762330E+02  0.94055972291E+02  0.10005488321E+03  0.00000000000E+00 0. -1.
        -13    1    3    3    0    0  0.53947673053E+02  0.53699192870E+02  0.12186744972E+03  0.14368587280E+03  0.00000000000E+00 0.  1.
         13    1    3    3    0    0  0.35960487462E+02 -0.43720368472E+02  0.83730791646E+02  0.10107162187E+03  0.00000000000E+00 0. -1.
          2    1    1    2  501    0  0.19919474711E+02 -0.23275484810E+02 -0.29474148671E+02  0.42511870175E+02  0.00000000000E+00 0. -1.
<scales pt_clust_5="13000.00000" pt_clust_6="13000.00000" pt_clust_7="13000.00000" pt_clust_8="13000.00000" pt_clust_9="30.63550"></scales>
<clustering>
<clus scale="   30.635">  2  9  1 -1</clus>
<clus scale="   87.278">  5  6 -1 -1</clus>
<clus scale="   97.224">  7  8 -1 -1</clus>
<clus scale="  130.800">  2  5  1 -1</clus>
<clus scale="   30.635">  2  5  1 -1</clus>
</clustering>
</event>
<event>
 9    1  0.1445593E-005  0.9179934E+02  0.7546771E-02  0.1300033E+00
         -3   -1    0    0    0  501 -0.00000000000E+00  0.00000000000E+00  0.19784560351E+03  0.19784560351E+03  0.00000000000E+00 0.  1.
         21   -1    0    0  501  502  0.00000000000E+00 -0.00000000000E+00 -0.60496592811E+02  0.60496592811E+02  0.00000000000E+00 0. -1.
         23    2    1    2    0    0  0.54739670969E+01 -0.99405858424E+01  0.67157344436E+02  0.11097437987E+03  0.87615207089E+02 0.  0.
         23    2    1    2    0    0 -0.32207846137E+02 -0.94935134045E+01  0.56797084165E+02  0.11170552079E+03  0.90137353277E+02 0.  0.
        -11    1    3    3    0    0  0.11891734794E+02 -0.41572316877E+02  0.85642784354E+01  0.44079675044E+02  0.00000000000E+00 0.  1.
         11    1    3    3    0    0 -0.64177676971E+01  0.31631731034E+02  0.58593066000E+02  0.66894704826E+02  0.00000000000E+00 0. -1.
        -13    1    4    4    0    0 -0.80169458366E+01  0.21161609946E+02  0.67518702456E+02  0.71209973581E+02  0.00000000000E+00 0.  1.
         13    1    4    4    0    0 -0.24190900301E+02 -0.30655123350E+02 -0.10721618291E+02  0.40495547209E+02  0.00000000000E+00 0. -1.
         -3    1    1    2    0  502  0.26733879040E+02  0.19434099247E+02  0.13394582094E+02  0.35662295657E+02  0.00000000000E+00 0.  1.
<scales pt_clust_5="13000.00000" pt_clust_6="13000.00000" pt_clust_7="13000.00000" pt_clust_8="13000.00000" pt_clust_9="33.05124"></scales>
<clustering>
<clus scale="   33.051">  2  9  1 -1</clus>
<clus scale="   87.615">  5  6 -1 -1</clus>
<clus scale="   89.324">  1  5  2 -1</clus>
<clus scale="   90.137">  7  8 -1 -1</clus>
<clus scale="   33.051">  2  5  1 -1</clus>
</clustering>
</event>
<event>
 9    1  0.1445593E-005  0.1252798E+03  0.7546771E-02  0.1235699E+00
         21   -1    0    0  501  502  0.00000000000E+00  0.00000000000E+00  0.16511119484E+03  0.16511119484E+03  0.00000000000E+00 0. -1.
          1   -1    0    0  502    0 -0.00000000000E+00 -0.00000000000E+00 -0.14559091343E+03  0.14559091343E+03  0.00000000000E+00 0. -1.
         23    2    1    2    0    0  0.85037752862E+02  0.29061619976E+02 -0.37384538611E+02  0.13346176640E+03  0.91315071023E+02 0.  0.
         23    2    1    2    0    0 -0.66639338183E+02  0.49706843841E+00  0.74890183942E+02  0.13805244784E+03  0.94915173877E+02 0.  0.
        -11    1    4    4    0    0 -0.36965799105E+02  0.31119472363E+02 -0.38852579593E+01  0.48476665449E+02  0.00000000000E+00 0. -1.
         11    1    4    4    0    0 -0.29673539079E+02 -0.30622403925E+02  0.78775441901E+02  0.89575782387E+02  0.00000000000E+00 0.  1.
        -13    1    3    3    0    0  0.24865037494E+02 -0.28796320357E+02  0.73575351604E+01  0.38750890046E+02  0.00000000000E+00 0.  1.
         13    1    3    3    0    0  0.60172715367E+02  0.57857940333E+02 -0.44742073772E+02  0.94710876354E+02  0.00000000000E+00 0. -1.
          1    1    1    2  501    0 -0.18398414678E+02 -0.29558688415E+02 -0.17985363924E+02  0.39187894036E+02  0.00000000000E+00 0. -1.
<scales pt_clust_5="13000.00000" pt_clust_6="13000.00000" pt_clust_7="13000.00000" pt_clust_8="13000.00000" pt_clust_9="34.81693"></scales>
<clustering>
<clus scale="   34.817">  1  9  2 -1</clus>
<clus scale="   91.315">  7  8 -1 -1</clus>
<clus scale="   94.915">  5  6 -1 -1</clus>
<clus scale="  122.575">  2  7  1 -1</clus>
<clus scale="   34.817">  1  5  2 -1</clus>
</clustering>
</event>
<event>
 9    1  0.1445593E-005  0.1106534E+03  0.7546771E-02  0.1261990E+00
         21   -1    0    0  501  502  0.00000000000E+00  0.00000000000E+00  0.93973872050E+02  0.93973872050E+02  0.00000000000E+00 0. -1.
         -1   -1    0    0    0  501 -0.00000000000E+00 -0.00000000000E+00 -0.21287709685E+03  0.21287709685E+03  0.00000000000E+00 0.  1.
         23    2    1    2    0    0 -0.59523732165E+02 -0.28194375446E+02 -0.84515832446E+02  0.13863863837E+03  0.87975841103E+02 0.  0.
         23    2    1    2    0    0  0.51351311721E+02 -0.13540234013E+01 -0.64325670901E+02  0.12536146295E+03  0.94545829425E+02 0.  0.
        -11    1    4    4    0    0 -0.11052636582E+02  0.33562154262E+02 -0.14438502157E+02  0.38171315391E+02  0.00000000000E+00 0.  1.
         11    1    4    4    0    0  0.62403948303E+02 -0.34916177663E+02 -0.49887168744E+02  0.87190147561E+02  0.00000000000E+00 0. -1.
        -11    1    3    3    0    0 -0.47705706849E+02 -0.54214648402E+02 -0.32291491699E+02  0.79106276638E+02  0.00000000000E+00 0. -1.
         11    1    3    3    0    0 -0.11818025316E+02  0.26020272956E+02 -0.52224340748E+02  0.59532361734E+02  0.00000000000E+00 0.  1.
         -1    1    1    2    0  502  0.81724204441E+01  0.29548398848E+02  0.29938278542E+02  0.42850867581E+02  0.00000000000E+00 0.  1.
<scales pt_clust_5="13000.00000" pt_clust_6="13000.00000" pt_clust_7="13000.00000" pt_clust_8="13000.00000" pt_clust_9="30.65773"></scales>
<clustering>
<clus scale="   30.658">  1  9  2 -1</clus>
<clus scale="   87.976">  7  8 -1 -1</clus>
<clus scale="   94.546">  5  6 -1 -1</clus>
<clus scale="  105.095">  2  7  1 -1</clus>
<clus scale="   30.658">  1  5  2 -1</clus>
</clustering>
</event>
<event>
 9    1  0.1445593E-005  0.2997429E+03  0.7546771E-02  0.1112147E+00
          1   -1    0    0  502    0 -0.00000000000E+00  0.00000000000E+00  0.27157463463E+03  0.27157463463E+03  0.00000000000E+00 0. -1.
         21   -1    0    0  501  502  0.00000000000E+00 -0.00000000000E+00 -0.55273617509E+03  0.55273617509E+03  0.00000000000E+00 0. -1.
         23    2    1    2    0    0 -0.42780599525E+02 -0.88724876823E+02  0.86190911310E+01  0.14961607089E+03  0.11228711624E+03 0.  0.
         23    2    1    2    0    0 -0.62581692604E+02  0.32656758557E+03 -0.12586166534E+03  0.36722149738E+03  0.91910897837E+02 0.  0.
        -11    1    4    4    0    0 -0.98480301393E+01  0.17726624960E+02 -0.35933199136E+02  0.41260292416E+02  0.00000000000E+00 0.  1.
         11    1    4    4    0    0 -0.52733662464E+02  0.30884096061E+03 -0.89928466205E+02  0.32596120497E+03  0.00000000000E+00 0. -1.
        -13    1    3    3    0    0 -0.43535777205E+02 -0.52192572610E+02  0.57196125526E+02  0.88830317502E+02  0.00000000000E+00 0.  1.
         13    1    3    3    0    0  0.75517767990E+00 -0.36532304213E+02 -0.48577034395E+02  0.60785753389E+02  0.00000000000E+00 0. -1.
          1    1    1    2  501    0  0.10536229213E+03 -0.23784270875E+03 -0.16391896625E+03  0.30747324144E+03  0.00000000000E+00 0. -1.
<scales pt_clust_5="13000.00000" pt_clust_6="13000.00000" pt_clust_7="13000.00000" pt_clust_8="13000.00000" pt_clust_9="285.30373"></scales>
<clustering>
<clus scale="   91.911">  5  6 -1 -1</clus>
<clus scale="  112.287">  7  8 -1 -1</clus>
<clus scale="  149.368">  1  7  2 -1</clus>
<clus scale="  285.304">  2  9  1 -1</clus>
<clus scale="  285.304">  2  5  1 -1</clus>
</clustering>
</event>
<event>
 9    1  0.1445593E-005  0.9963987E+02  0.7546771E-02  0.1281245E+00
         21   -1    0    0  501  502  0.00000000000E+00  0.00000000000E+00  0.42346408701E+02  0.42346408701E+02  0.00000000000E+00 0.  1.
          1   -1    0    0  502    0 -0.00000000000E+00 -0.00000000000E+00 -0.63010403199E+03  0.63010403199E+03  0.00000000000E+00 0. -1.
         23    2    1    2    0    0  0.28267563863E+02  0.21119612756E+02 -0.41147990831E+03  0.42315474132E+03  0.92190709660E+02 0.  0.
         23    2    1    2    0    0  0.38049896974E+01 -0.71359449004E+02 -0.10914898007E+03  0.15952400624E+03  0.91802831150E+02 0.  0.
        -11    1    4    4    0    0  0.37737517408E+02 -0.51510028739E+01 -0.18765710453E+02  0.42459450533E+02  0.00000000000E+00 0. -1.
         11    1    4    4    0    0 -0.33932527711E+02 -0.66208446130E+02 -0.90383269613E+02  0.11706455570E+03  0.00000000000E+00 0.  1.
        -11    1    3    3    0    0 -0.32644695735E+02  0.10902336546E+02 -0.19596058768E+03  0.19896001866E+03  0.00000000000E+00 0.  1.
         11    1    3    3    0    0  0.60912259597E+02  0.10217276210E+02 -0.21551932063E+03  0.22419472265E+03  0.00000000000E+00 0. -1.
          1    1    1    2  501    0 -0.32072553560E+02  0.50239836248E+02 -0.67128734920E+02  0.89771693145E+02  0.00000000000E+00 0. -1.
<scales pt_clust_5="13000.00000" pt_clust_6="13000.00000" pt_clust_7="13000.00000" pt_clust_8="13000.00000" pt_clust_9="59.60444"></scales>
<clustering>
<clus scale="   59.604">  1  9  2 -1</clus>
<clus scale="   91.803">  5  6 -1 -1</clus>
<clus scale="   92.191">  7  8 -1 -1</clus>
<clus scale="   99.281">  1  5  2 -1</clus>
<clus scale="   59.604">  1  5  2 -1</clus>
</clustering>
</event>
<event>
 9    1  0.1445593E-005  0.1315041E+03  0.7546771E-02  0.1225700E+00
         -1   -1    0    0    0  501 -0.00000000000E+00  0.00000000000E+00  0.90202116453E+03  0.90202116453E+03  0.00000000000E+00 0.  1.
         21   -1    0    0  501  502  0.00000000000E+00 -0.00000000000E+00 -0.44733899330E+02  0.44733899330E+02  0.00000000000E+00 0. -1.
         23    2    1    2    0    0 -0.17689042965E+02 -0.87829484922E+02  0.63407396900E+03  0.64640791321E+03  0.88127586135E+02 0.  0.
         23    2    1    2    0    0  0.33618244499E+02  0.11469897599E+03  0.22369437102E+03  0.26910710512E+03  0.89963442274E+02 0.  0.
        -11    1    3    3    0    0  0.41732382637E+01 -0.10010538460E+03  0.48510954494E+03  0.49534813468E+03  0.00000000000E+00 0.  1.
         11    1    3    3    0    0 -0.21862281229E+02  0.12275899679E+02  0.14896442406E+03  0.15105977853E+03  0.00000000000E+00 0. -1.
        -11    1    4    4    0    0  0.31411279004E+02  0.69385723283E+01  0.17943714172E+02  0.36834618404E+02  0.00000000000E+00 0. -1.
         11    1    4    4    0    0  0.22069654946E+01  0.10776040366E+03  0.20575065684E+03  0.23227248672E+03  0.00000000000E+00 0.  1.
         -1    1    1    2    0  502 -0.15929201534E+02 -0.26869491064E+02 -0.48107481799E+00  0.31240045527E+02  0.00000000000E+00 0.  1.
<scales pt_clust_5="13000.00000" pt_clust_6="13000.00000" pt_clust_7="13000.00000" pt_clust_8="13000.00000" pt_clust_9="31.23634"></scales>
<clustering>
<clus scale="   31.236">  2  9  1 -1</clus>
<clus scale="   88.128">  5  6 -1 -1</clus>
<clus scale="   89.963">  7  8 -1 -1</clus>
<clus scale="  130.255">  1  5  2 -1</clus>
<clus scale="   31.236">  2  5  1 -1</clus>
</clustering>
</event>
<event>
 9    1  0.1445593E-005  0.2197524E+03  0.7546771E-02  0.1134109E+00
         21   -1    0    0  501  502  0.00000000000E+00  0.00000000000E+00  0.70246971576E+02  0.70246971576E+02  0.00000000000E+00 0. -1.
          2   -1    0    0  502    0 -0.00000000000E+00 -0.00000000000E+00 -0.11713316393E+04  0.11713316393E+04  0.00000000000E+00 0. -1.
         23    2    1    2    0    0 -0.14592795442E+03  0.19844241252E+02 -0.22221869474E+03  0.28226623266E+03  0.92759452447E+02 0.  0.
         23    2    1    2    0    0  0.25298793631E+03 -0.23068011167E+02 -0.54161096610E+03  0.60545764519E+03  0.93281790631E+02 0.  0.
        -11    1    4    4    0    0  0.92914872634E+02 -0.23123178019E+02 -0.11404547255E+03  0.14891012299E+03  0.00000000000E+00 0.  1.
         11    1    4    4    0    0  0.16007306367E+03  0.55166851440E-01 -0.42756549355E+03  0.45654752221E+03  0.00000000000E+00 0. -1.
        -11    1    3    3    0    0 -0.18658316486E+02  0.22408425255E+02 -0.37262266499E+01  0.29396514446E+02  0.00000000000E+00 0.  1.
         11    1    3    3    0    0 -0.12726963793E+03 -0.25641840032E+01 -0.21849246809E+03  0.25286971822E+03  0.00000000000E+00 0. -1.
          2    1    1    2  501    0 -0.10705998189E+03  0.32237699150E+01 -0.33725500684E+03  0.35385473298E+03  0.00000000000E+00 0. -1.
<scales pt_clust_5="13000.00000" pt_clust_6="13000.00000" pt_clust_7="13000.00000" pt_clust_8="13000.00000" pt_clust_9="107.10856"></scales>
<clustering>
<clus scale="   92.759">  7  8 -1 -1</clus>
<clus scale="   93.282">  5  6 -1 -1</clus>
<clus scale="  107.109">  1  9  2 -1</clus>
<clus scale="  219.531">  2  7  1 -1</clus>
<clus scale="  107.109">  1  5  2 -1</clus>
</clustering>
</event>
<event>
 9    1  0.1445593E-005  0.2365804E+03  0.7546771E-02  0.1122369E+00
          1   -1    0    0  502    0 -0.00000000000E+00  0.00000000000E+00  0.56409603612E+03  0.56409603612E+03  0.00000000000E+00 0. -1.
         21   -1    0    0  501  502  0.00000000000E+00 -0.00000000000E+00 -0.22160325270E+03  0.22160325270E+03  0.00000000000E+00 0. -1.
         23    2    1    2    0    0 -0.96717830297E+02  0.22381445886E+03  0.29543744746E+03  0.39330046244E+03  0.89189224133E+02 0.  0.
         23    2    1    2    0    0 -0.66659022917E+02 -0.19112145761E+03  0.24366557050E+02  0.22424529777E+03  0.93388369573E+02 0.  0.
        -13    1    3    3    0    0 -0.53625102231E+02  0.17050191973E+03  0.26166107400E+03  0.31688022006E+03  0.00000000000E+00 0. -1.
         13    1    3    3    0    0 -0.43092728066E+02  0.53312539130E+02  0.33776373458E+02  0.76420242375E+02  0.00000000000E+00 0.  1.
        -13    1    4    4    0    0 -0.88271537221E+02 -0.13645541182E+03  0.58808573012E+01  0.16262388565E+03  0.00000000000E+00 0. -1.
         13    1    4    4    0    0  0.21612514304E+02 -0.54666045788E+02  0.18485699749E+02  0.61621412121E+02  0.00000000000E+00 0.  1.
          1    1    1    2  501    0  0.16337685321E+03 -0.32693001251E+02  0.22688778910E+02  0.16815352861E+03  0.00000000000E+00 0. -1.
<scales pt_clust_5="13000.00000" pt_clust_6="13000.00000" pt_clust_7="13000.00000" pt_clust_8="13000.00000" pt_clust_9="166.61581"></scales>
<clustering>
<clus scale="   89.189">  5  6 -1 -1</clus>
<clus scale="   93.388">  7  8 -1 -1</clus>
<clus scale="  166.616">  2  9  1 -1</clus>
<clus scale="  234.954">  1  5  2 -1</clus>
<clus scale="  166.616">  2  5  1 -1</clus>
</clustering>
</event>
<event>
 9    1  0.1445593E-005  0.1349553E+03  0.7546771E-02  0.1221521E+00
         21   -1    0    0  501  502  0.00000000000E+00  0.00000000000E+00  0.61604704024E+03  0.61604704024E+03  0.00000000000E+00 0.  1.
          3   -1    0    0  502    0 -0.00000000000E+00 -0.00000000000E+00 -0.92867259412E+02  0.92867259412E+02  0.00000000000E+00 0. -1.
         23    2    1    2    0    0 -0.48699928246E+01  0.94416559088E+02 -0.17676295274E+02  0.13598343431E+03  0.96129285510E+02 0.  0.
         23    2    1    2    0    0 -0.42429145419E+02 -0.97005349774E+02  0.43654453079E+03  0.45836730743E+03  0.91209598676E+02 0.  0.
        -11    1    4    4    0    0 -0.63813525776E+02 -0.39961339624E+02  0.18920960363E+03  0.20364024367E+03  0.00000000000E+00 0.  1.
         11    1    4    4    0    0  0.21384380357E+02 -0.57044010150E+02  0.24733492716E+03  0.25472706376E+03  0.00000000000E+00 0. -1.
        -13    1    3    3    0    0  0.10544476176E+02  0.39723952116E+02  0.38329580917E+02  0.56199066922E+02  0.00000000000E+00 0.  1.
         13    1    3    3    0    0 -0.15414469001E+02  0.54692606972E+02 -0.56005876191E+02  0.79784367391E+02  0.00000000000E+00 0. -1.
          3    1    1    2  501    0  0.47299138243E+02  0.25887906858E+01  0.10431154531E+03  0.11456355791E+03  0.00000000000E+00 0. -1.
<scales pt_clust_5="13000.00000" pt_clust_6="13000.00000" pt_clust_7="13000.00000" pt_clust_8="13000.00000" pt_clust_9="47.36993"></scales>
<clustering>
<clus scale="   47.370">  1  9  2 -1</clus>
<clus scale="   91.210">  5  6 -1 -1</clus>
<clus scale="   96.129">  7  8 -1 -1</clus>
<clus scale="  131.496">  1  5  2 -1</clus>
<clus scale="   47.370">  1  5  2 -1</clus>
</clustering>
</event>
<event>
 9    1  0.1445593E-005  0.1680506E+03  0.7546771E-02  0.1180254E+00
          1   -1    0    0  502    0 -0.00000000000E+00  0.00000000000E+00  0.80191837856E+03  0.80191837856E+03  0.00000000000E+00 0. -1.
         21   -1    0    0  501  502  0.00000000000E+00 -0.00000000000E+00 -0.81172867383E+02  0.81172867383E+02  0.00000000000E+00 0. -1.
         23    2    1    2    0    0 -0.15119482072E+03  0.30619298285E+02  0.64696813124E+03  0.67106318177E+03  0.89222283311E+02 0.  0.
         23    2    1    2    0    0  0.92216829290E+02  0.44765547620E+01  0.47083735003E+02  0.13838926290E+03  0.91710014927E+02 0.  0.
        -11    1    4    4    0    0  0.84286339937E+02  0.29922696635E+02  0.62912987486E+01  0.89661225253E+02  0.00000000000E+00 0. -1.
         11    1    4    4    0    0  0.79304893531E+01 -0.25446141873E+02  0.40792436254E+02  0.48728037650E+02  0.00000000000E+00 0.  1.
        -11    1    3    3    0    0 -0.64035993825E+02  0.14160357333E+02  0.12064581601E+03  0.13731910699E+03  0.00000000000E+00 0.  1.
         11    1    3    3    0    0 -0.87158826892E+02  0.16458940952E+02  0.52632231523E+03  0.53374407477E+03  0.00000000000E+00 0. -1.
          1    1    1    2  501    0  0.58977991426E+02 -0.35095853047E+02  0.26693644933E+02  0.73638801278E+02  0.00000000000E+00 0. -1.
<scales pt_clust_5="13000.00000" pt_clust_6="13000.00000" pt_clust_7="13000.00000" pt_clust_8="13000.00000" pt_clust_9="68.63033"></scales>
<clustering>
<clus scale="   68.630">  2  9  1 -1</clus>
<clus scale="   89.222">  7  8 -1 -1</clus>
<clus scale="   91.710">  5  6 -1 -1</clus>
<clus scale="  166.706">  1  7  2 -1</clus>
<clus scale="   68.630">  2  5  1 -1</clus>
</clustering>
</event>
<event>
 9    1  0.1445593E-005  0.1034274E+03  0.7546771E-02  0.1274708E+00
          1   -1    0    0  502    0 -0.00000000000E+00  0.00000000000E+00  0.18292390584E+03  0.18292390584E+03  0.00000000000E+00 0. -1.
         21   -1    0    0  501  502  0.00000000000E+00 -0.00000000000E+00 -0.88208826634E+02  0.88208826634E+02  0.00000000000E+00 0. -1.
         23    2    1    2    0    0 -0.36191630962E+02  0.14548116103E+02  0.68148690131E+02  0.12321114645E+03  0.94948727266E+02 0.  0.
         23    2    1    2    0    0  0.47722196082E+02  0.19946170613E+02  0.34115952596E+02  0.11077585064E+03  0.91826647239E+02 0.  0.
        -11    1    3    3    0    0 -0.13598127436E+02  0.45301506123E+02  0.26077755516E+01  0.47370201816E+02  0.00000000000E+00 0. -1.
         11    1    3    3    0    0 -0.22593503526E+02 -0.30753390020E+02  0.65540914579E+02  0.75840944635E+02  0.00000000000E+00 0.  1.
        -13    1    4    4    0    0  0.47486324986E+02  0.53351864610E+02  0.17854531063E+02  0.73621714172E+02  0.00000000000E+00 0. -1.
         13    1    4    4    0    0  0.23587109534E+00 -0.33405693998E+02  0.16261421533E+02  0.37154136471E+02  0.00000000000E+00 0.  1.
          1    1    1    2  501    0 -0.11530565120E+02 -0.34494286716E+02 -0.75495635157E+01  0.37145735385E+02  0.00000000000E+00 0. -1.
<scales pt_clust_5="13000.00000" pt_clust_6="13000.00000" pt_clust_7="13000.00000" pt_clust_8="13000.00000" pt_clust_9="36.37045"></scales>
<clustering>
<clus scale="   36.370">  2  9  1 -1</clus>
<clus scale="   91.827">  7  8 -1 -1</clus>
<clus scale="   94.949">  5  6 -1 -1</clus>
<clus scale="  100.569">  2  7  1 -1</clus>
<clus scale="   36.370">  2  5  1 -1</clus>
</clustering>
</event>
<event>
 9    1  0.1445593E-005  0.1301024E+03  0.7546771E-02  0.1227465E+00
          4   -1    0    0  502    0 -0.00000000000E+00  0.00000000000E+00  0.22699719423E+03  0.22699719423E+03  0.00000000000E+00 0. -1.
         21   -1    0    0  501  502  0.00000000000E+00 -0.00000000000E+00 -0.20293832838E+03  0.20293832838E+03  0.00000000000E+00 0. -1.
         23    2    1    2    0    0  0.79971816285E+02 -0.77553006848E+02  0.15138980390E+03  0.20909892176E+03  0.91616188989E+02 0.  0.
         23    2    1    2    0    0 -0.18834404552E+02  0.35758996292E+02 -0.45582508025E+02  0.11053098792E+03  0.92227401799E+02 0.  0.
        -11    1    3    3    0    0  0.44094048424E+02 -0.67675973107E+02  0.15172377853E+03  0.17188492491E+03  0.00000000000E+00 0. -1.
         11    1    3    3    0    0  0.35877767861E+02 -0.98770337418E+01 -0.33397462479E+00  0.37213996847E+02  0.00000000000E+00 0.  1.
        -13    1    4    4    0    0 -0.54967478101E+01  0.64624853614E+02 -0.15339694041E+02  0.66647521743E+02  0.00000000000E+00 0. -1.
         13    1    4    4    0    0 -0.13337656742E+02 -0.28865857322E+02 -0.30242813984E+02  0.43883466180E+02  0.00000000000E+00 0.  1.
          4    1    1    2  501    0 -0.61137411734E+02  0.41794010556E+02 -0.81748430020E+02  0.11030561292E+03  0.00000000000E+00 0. -1.
<scales pt_clust_5="13000.00000" pt_clust_6="13000.00000" pt_clust_7="13000.00000" pt_clust_8="13000.00000" pt_clust_9="74.05756"></scales>
<clustering>
<clus scale="   74.058">  2  9  1 -1</clus>
<clus scale="   91.616">  5  6 -1 -1</clus>
<clus scale="   92.227">  7  8 -1 -1</clus>
<clus scale="  129.670">  1  5  2 -1</clus>
<clus scale="   74.058">  2  5  1 -1</clus>
</clustering>
</event>
<event>
 9    1  0.1445593E-005  0.1161812E+03  0.7546771E-02  0.1250894E+00
         -1   -1    0    0    0  501 -0.00000000000E+00  0.00000000000E+00  0.25512836955E+03  0.25512836955E+03  0.00000000000E+00 0.  1.
         21   -1    0    0  501  502  0.00000000000E+00 -0.00000000000E+00 -0.20568275757E+03  0.20568275757E+03  0.00000000000E+00 0.  1.
         23    2    1    2    0    0 -0.13805644121E+02 -0.49320387194E+02  0.12279325446E+03  0.16319720399E+03  0.94509510883E+02 0.  0.
         23    2    1    2    0    0  0.30552822174E+02  0.98512651273E+02  0.63457561426E+02  0.15127182176E+03  0.90653651620E+02 0.  0.
        -11    1    3    3    0    0  0.32815751312E+02 -0.49694716440E+02  0.81346187573E+02  0.10081488287E+03  0.00000000000E+00 0. -1.
         11    1    3    3    0    0 -0.46621395433E+02  0.37432924604E+00  0.41447066883E+02  0.62382321115E+02  0.00000000000E+00 0.  1.
        -11    1    4    4    0    0  0.16562607085E+02  0.71338502173E+02 -0.78837464148E+01  0.73659047667E+02  0.00000000000E+00 0. -1.
         11    1    4    4    0    0  0.13990215089E+02  0.27174149101E+02  0.71341307841E+02  0.77612774090E+02  0.00000000000E+00 0.  1.
         -1    1    1    2    0  502 -0.16747178053E+02 -0.49192264080E+02 -0.13680520390E+03  0.14634210137E+03  0.00000000000E+00 0.  1.
<scales pt_clust_5="13000.00000" pt_clust_6="13000.00000" pt_clust_7="13000.00000" pt_clust_8="13000.00000" pt_clust_9="51.96486"></scales>
<clustering>
<clus scale="   51.965">  2  9  1 -1</clus>
<clus scale="   90.654">  7  8 -1 -1</clus>
<clus scale="   94.510">  5  6 -1 -1</clus>
<clus scale="  113.067">  2  7  1 -1</clus>
<clus scale="   51.965">  2  5  1 -1</clus>
</clustering>
</event>
<event>
 9    1  0.1445593E-005  0.1138449E+03  0.7546771E-02  0.1254592E+00
          1   -1    0    0  502    0 -0.00000000000E+00  0.00000000000E+00  0.10128707522E+03  0.10128707522E+03  0.00000000000E+00 0. -1.
         21   -1    0    0  501  502  0.00000000000E+00 -0.00000000000E+00 -0.25358036769E+03  0.25358036769E+03  0.00000000000E+00 0. -1.
         23    2    1    2    0    0  0.37929460985E+02  0.63106586507E+02  0.25297647735E+02  0.11891847671E+03  0.89891867543E+02 0.  0.
         23    2    1    2    0    0 -0.31567016638E+02 -0.39658500403E+02 -0.72451392533E+02  0.12803873534E+03  0.92603673114E+02 0.  0.
        -11    1    4    4    0    0 -0.35119930806E+01 -0.43474373571E+02 -0.86167967495E+02  0.96577812540E+02  0.00000000000E+00 0.  1.
         11    1    4    4    0    0 -0.28055023557E+02  0.38158731673E+01  0.13716574962E+02  0.31460922801E+02  0.00000000000E+00 0. -1.
        -13    1    3    3    0    0 -0.24798418756E+02  0.35598038988E+01 -0.79105921485E+01  0.26271871740E+02  0.00000000000E+00 0.  1.
         13    1    3    3    0    0  0.62727879741E+02  0.59546782608E+02  0.33208239884E+02  0.92646604967E+02  0.00000000000E+00 0. -1.
          1    1    1    2  501    0 -0.63624443470E+01 -0.23448086104E+02 -0.10513954767E+03  0.10791023086E+03  0.00000000000E+00 0. -1.
<scales pt_clust_5="13000.00000" pt_clust_6="13000.00000" pt_clust_7="13000.00000" pt_clust_8="13000.00000" pt_clust_9="24.29596"></scales>
<clustering>
<clus scale="   24.296">  2  9  1 -1</clus>
<clus scale="   89.892">  7  8 -1 -1</clus>
<clus scale="   92.604">  5  6 -1 -1</clus>
<clus scale="  111.650">  1  7  2 -1</clus>
<clus scale="   24.296">  2  5  1 -1</clus>
</clustering>
</event>
<event>
 9    1  0.1445593E-005  0.9349339E+02  0.7546771E-02  0.1297947E+00
          2   -1    0    0  502    0 -0.00000000000E+00  0.00000000000E+00  0.63071819637E+03  0.63071819637E+03  0.00000000000E+00 0. -1.
         21   -1    0    0  501  502  0.00000000000E+00 -0.00000000000E+00 -0.23807156458E+02  0.23807156458E+02  0.00000000000E+00 0. -1.
         23    2    1    2    0    0  0.15697263404E+02  0.19623259069E+01  0.43591469600E+03  0.44598295640E+03  0.92891982506E+02 0.  0.
         23    2    1    2    0    0  0.30296343385E+01  0.15284561903E+02  0.15479258073E+03  0.17836436171E+03  0.87237067590E+02 0.  0.
        -11    1    4    4    0    0  0.37222248666E+01 -0.28936068327E+02  0.11575164006E+03  0.11937165989E+03  0.00000000000E+00 0.  1.
         11    1    4    4    0    0 -0.69259052812E+00  0.44220630230E+02  0.39040940675E+02  0.58992701823E+02  0.00000000000E+00 0. -1.
        -11    1    3    3    0    0  0.50680887643E+02 -0.16392255894E+02  0.21064611647E+03  0.21727642488E+03  0.00000000000E+00 0. -1.
         11    1    3    3    0    0 -0.34983624240E+02  0.18354581800E+02  0.22526857952E+03  0.22870653152E+03  0.00000000000E+00 0.  1.
          2    1    1    2  501    0 -0.18726897742E+02 -0.17246887810E+02  0.16203763188E+02  0.30178034721E+02  0.00000000000E+00 0. -1.
<scales pt_clust_5="13000.00000" pt_clust_6="13000.00000" pt_clust_7="13000.00000" pt_clust_8="13000.00000" pt_clust_9="25.45883"></scales>
<clustering>
<clus scale="   25.459">  2  9  1 -1</clus>
<clus scale="   87.237">  5  6 -1 -1</clus>
<clus scale="   87.877">  2  5  1 -1</clus>
<clus scale="   92.892">  7  8 -1 -1</clus>
<clus scale="   25.459">  2  5  1 -1</clus>
</clustering>
</event>
<event>
 9    1  0.1445593E-005  0.9456392E+02  0.7546771E-02  0.1293971E+00
         -2   -1    0    0    0  501 -0.00000000000E+00  0.00000000000E+00  0.10960973081E+03  0.10960973081E+03  0.00000000000E+00 0.  1.
         21   -1    0    0  501  502  0.00000000000E+00 -0.00000000000E+00 -0.13387334354E+03  0.13387334354E+03  0.00000000000E+00 0. -1.
         23    2    1    2    0    0  0.21898332829E+02  0.27580156553E+02  0.39923046150E+02  0.10192902204E+03  0.86922229054E+02 0.  0.
         23    2    1    2    0    0 -0.20212195238E+02 -0.66339607439E+00 -0.28350820891E+02  0.96703608172E+02  0.90215552194E+02 0.  0.
        -13    1    3    3    0    0  0.17780641202E+01 -0.26777629728E+02  0.34507388573E+02  0.43714560869E+02  0.00000000000E+00 0. -1.
         13    1    3    3    0    0  0.20120268709E+02  0.54357786281E+02  0.54156575766E+01  0.58214461170E+02  0.00000000000E+00 0.  1.
        -13    1    4    4    0    0  0.14587894554E+02  0.34023188729E+02 -0.29837734785E+02  0.47546550410E+02  0.00000000000E+00 0.  1.
         13    1    4    4    0    0 -0.34800089793E+02 -0.34686584803E+02  0.14869138939E+01  0.49157057762E+02  0.00000000000E+00 0. -1.
         -2    1    1    2    0  502 -0.16861375909E+01 -0.26916760479E+02 -0.35835837992E+02  0.44850444136E+02  0.00000000000E+00 0.  1.
<scales pt_clust_5="13000.00000" pt_clust_6="13000.00000" pt_clust_7="13000.00000" pt_clust_8="13000.00000" pt_clust_9="26.96952"></scales>
<clustering>
<clus scale="   26.970">  2  9  1 -1</clus>
<clus scale="   86.922">  5  6 -1 -1</clus>
<clus scale="   90.216">  7  8 -1 -1</clus>
<clus scale="   91.427">  1  5  2 -1</clus>
<clus scale="   26.970">  2  5  1 -1</clus>
</clustering>
</event>
<event>
 9    1  0.1631867E-005  0.1015289E+03  0.7546771E-02  0.1277238E+00
          3   -1    0    0  502    0 -0.00000000000E+00  0.00000000000E+00  0.35060722329E+03  0.35060722329E+03  0.00000000000E+00 0. -1.
         21   -1    0    0  501  502  0.00000000000E+00 -0.00000000000E+00 -0.18489801956E+03  0.18489801956E+03  0.00000000000E+00 0. -1.
         23    2    1    2    0    0  0.48757818229E+02 -0.19080859971E+02  0.20680802533E+03  0.23241826546E+03  0.92234953899E+02 0.  0.
         23    2    1    2    0    0 -0.29759878740E+02  0.76886401186E+00  0.11187592362E+03  0.14785320666E+03  0.91967966695E+02 0.  0.
        -11    1    3    3    0    0 -0.11315226018E+02  0.21117908428E+02  0.17180891351E+02  0.29481916895E+02  0.00000000000E+00 0. -1.
         11    1    3    3    0    0  0.60073044247E+02 -0.40198768399E+02  0.18962713398E+03  0.20293634856E+03  0.00000000000E+00 0.  1.
        -13    1    4    4    0    0  0.13594125532E+02  0.32893538689E+02  0.18761244434E+02  0.40233933802E+02  0.00000000000E+00 0.  1.
         13    1    4    4    0    0 -0.43354004271E+02 -0.32124674677E+02  0.93114679189E+02  0.10761927286E+03  0.00000000000E+00 0. -1.
          3    1    1    2  501    0 -0.18997939489E+02  0.18311995959E+02 -0.15297474522E+03  0.15523377074E+03  0.00000000000E+00 0. -1.
<scales pt_clust_5="13000.00000" pt_clust_6="13000.00000" pt_clust_7="13000.00000" pt_clust_8="13000.00000" pt_clust_9="26.38657"></scales>
<clustering>
<clus scale="   26.387">  2  9  1 -1</clus>
<clus scale="   91.968">  7  8 -1 -1</clus>
<clus scale="   92.235">  5  6 -1 -1</clus>
<clus scale="  101.286">  2  7  1 -1</clus>
<clus scale="   26.387">  2  5  1 -1</clus>
</clustering>
</event>
<event>
 9    1  0.1445593E-005  0.9332823E+02  0.7546771E-02  0.1296887E+00
         21   -1    0    0  501  502  0.00000000000E+00  0.00000000000E+00  0.81071457902E+02  0.81071457902E+02  0.00000000000E+00 0.  1.
         -2   -1    0    0    0  501 -0.00000000000E+00 -0.00000000000E+00 -0.21997762404E+03  0.21997762404E+03  0.00000000000E+00 0.  1.
         23    2    1    2    0    0  0.36230378342E+02 -0.13675758194E+02 -0.10169394882E+03  0.14124702976E+03  0.90052193269E+02 0.  0.
         23    2    1    2    0    0 -0.97347932074E+01  0.20592247963E+01 -0.73007126868E+02  0.11377776045E+03  0.86696779611E+02 0.  0.
        -11    1    3    3    0    0 -0.99245329536E+01 -0.40064683398E+02 -0.63687082940E+02  0.75892817470E+02  0.00000000000E+00 0.  1.
         11    1    3    3    0    0  0.46154911296E+02  0.26388925204E+02 -0.38006865880E+02  0.65354212291E+02  0.00000000000E+00 0. -1.
        -13    1    4    4    0    0 -0.38593167705E+02  0.21427650677E+02 -0.15886414837E+02  0.46914336651E+02  0.00000000000E+00 0. -1.
         13    1    4    4    0    0  0.28858374497E+02 -0.19368425881E+02 -0.57120712031E+02  0.66863423803E+02  0.00000000000E+00 0.  1.
         -2    1    1    2    0  502 -0.26495585135E+02  0.11616533398E+02  0.35794909547E+02  0.46024291731E+02  0.00000000000E+00 0.  1.
<scales pt_clust_5="13000.00000" pt_clust_6="13000.00000" pt_clust_7="13000.00000" pt_clust_8="13000.00000" pt_clust_9="28.93026"></scales>
<clustering>
<clus scale="   28.930">  1  9  2 -1</clus>
<clus scale="   86.697">  7  8 -1 -1</clus>
<clus scale="   90.052">  5  6 -1 -1</clus>
<clus scale="   90.095">  1  7  2 -1</clus>
<clus scale="   28.930">  1  5  2 -1</clus>
</clustering>
</event>
<event>
 9    1  0.1445593E-005  0.2495686E+03  0.7546771E-02  0.1114278E+00
          3   -1    0    0  502    0 -0.00000000000E+00  0.00000000000E+00  0.34055049863E+03  0.34055049863E+03  0.00000000000E+00 0. -1.
         21   -1    0    0  501  502  0.00000000000E+00 -0.00000000000E+00 -0.22539251766E+03  0.22539251766E+03  0.00000000000E+00 0.  1.
         23    2    1    2    0    0 -0.14988579084E+03  0.19196038393E+03  0.10549440227E+03  0.27699407670E+03  0.79259764856E+02 0.  0.
         23    2    1    2    0    0  0.12537888200E+03 -0.17968553376E+03  0.47420222676E+02  0.24229248567E+03  0.91925056427E+02 0.  0.
        -11    1    3    3    0    0 -0.24840829315E+02 -0.23073106758E+01  0.76297718937E+01  0.26088386358E+02  0.00000000000E+00 0.  1.
         11    1    3    3    0    0 -0.12504496153E+03  0.19426769460E+03  0.97864630372E+02  0.25090569035E+03  0.00000000000E+00 0. -1.
        -11    1    4    4    0    0  0.68507226510E+02 -0.44640143315E+02  0.49803285439E+02  0.95741055560E+02  0.00000000000E+00 0.  1.
         11    1    4    4    0    0  0.56871655487E+02 -0.13504539045E+03 -0.23830627630E+01  0.14655143011E+03  0.00000000000E+00 0. -1.
          3    1    1    2  501    0  0.24506908848E+02 -0.12274850162E+02 -0.37756643974E+02  0.46656453916E+02  0.00000000000E+00 0. -1.
<scales pt_clust_5="13000.00000" pt_clust_6="13000.00000" pt_clust_7="13000.00000" pt_clust_8="13000.00000" pt_clust_9="27.40913"></scales>
<clustering>
<clus scale="   27.409">  2  9  1 -1</clus>
<clus scale="   79.260">  5  6 -1 -1</clus>
<clus scale="   91.925">  7  8 -1 -1</clus>
<clus scale="  245.186">  1  5  2 -1</clus>
<clus scale="   27.409">  2  5  1 -1</clus>
</clustering>
</event>
<event>
 9    1  0.3023073E-005  0.1175640E+03  0.7546771E-02  0.1247914E+00
          3   -1    0    0  502    0 -0.00000000000E+00  0.00000000000E+00  0.16885052715E+03  0.16885052715E+03  0.00000000000E+00 0. -1.
         21   -1    0    0  501  502  0.00000000000E+00 -0.00000000000E+00 -0.30144869208E+03  0.30144869208E+03  0.00000000000E+00 0.  1.
         23    2    1    2    0    0 -0.66307617125E+02 -0.13381027511E+02  0.74241821228E+02  0.13638885998E+03  0.92273079075E+02 0.  0.
         23    2    1    2    0    0  0.10492865109E+03  0.55901471702E+02 -0.22820959267E+03  0.27262224849E+03  0.90045965069E+02 0.  0.
        -11    1    3    3    0    0 -0.96931975712E+01  0.36489143394E+02  0.15680301118E+02  0.40881383390E+02  0.00000000000E+00 0.  1.
         11    1    3    3    0    0 -0.56614419553E+02 -0.49870170905E+02  0.58561520110E+02  0.95507476592E+02  0.00000000000E+00 0. -1.
        -11    1    4    4    0    0  0.34782949544E+02 -0.20984046910E+02 -0.96891440804E+02  0.10506252950E+03  0.00000000000E+00 0. -1.
         11    1    4    4    0    0  0.70145701547E+02  0.76885518612E+02 -0.13131815187E+03  0.16755971899E+03  0.00000000000E+00 0.  1.
          3    1    1    2  501    0 -0.38621033967E+02 -0.42520444191E+02  0.21369606512E+02  0.61288110767E+02  0.00000000000E+00 0. -1.
<scales pt_clust_5="13000.00000" pt_clust_6="13000.00000" pt_clust_7="13000.00000" pt_clust_8="13000.00000" pt_clust_9="57.44193"></scales>
<clustering>
<clus scale="   57.442">  2  9  1 -1</clus>
<clus scale="   90.046">  7  8 -1 -1</clus>
<clus scale="   92.273">  5  6 -1 -1</clus>
<clus scale="  115.824">  2  7  1 -1</clus>
<clus scale="   57.442">  2  5  1 -1</clus>
</clustering>
</event>
<event>
 9    1  0.1445593E-005  0.9425571E+02  0.7546771E-02  0.1296409E+00
         -3   -1    0    0    0  501 -0.00000000000E+00  0.00000000000E+00  0.18977380420E+03  0.18977380420E+03  0.00000000000E+00 0.  1.
         21   -1    0    0  501  502  0.00000000000E+00 -0.00000000000E+00 -0.10643042025E+03  0.10643042025E+03  0.00000000000E+00 0. -1.
         23    2    1    2    0    0  0.87058560432E+01  0.10872069046E+02  0.78350323408E+02  0.12320025426E+03  0.94050707906E+02 0.  0.
         23    2    1    2    0    0  0.14836398743E+02  0.34388783725E-01  0.63137051102E+02  0.10933363000E+03  0.88019517812E+02 0.  0.
        -11    1    4    4    0    0 -0.23216415587E+02 -0.31688026762E+02  0.22589722255E+02  0.45314771812E+02  0.00000000000E+00 0.  1.
         11    1    4    4    0    0  0.38052814330E+02  0.31722415546E+02  0.40547328847E+02  0.64018858183E+02  0.00000000000E+00 0. -1.
        -13    1    3    3    0    0  0.38349418377E+02  0.26116240260E+02  0.76927458957E+02  0.89836350309E+02  0.00000000000E+00 0. -1.
         13    1    3    3    0    0 -0.29643562334E+02 -0.15244171214E+02  0.14228644508E+01  0.33363903955E+02  0.00000000000E+00 0.  1.
         -3    1    1    2    0  502 -0.23542254786E+02 -0.10906457829E+02 -0.58143990559E+02  0.63670340198E+02  0.00000000000E+00 0.  1.
<scales pt_clust_5="13000.00000" pt_clust_6="13000.00000" pt_clust_7="13000.00000" pt_clust_8="13000.00000" pt_clust_9="25.94588"></scales>
<clustering>
<clus scale="   25.946">  2  9  1 -1</clus>
<clus scale="   88.020">  5  6 -1 -1</clus>
<clus scale="   88.239">  2  5  1 -1</clus>
<clus scale="   94.051">  7  8 -1 -1</clus>
<clus scale="   25.946">  2  5  1 -1</clus>
</clustering>
</event>
<event>
 9    1  0.1445593E-005  0.2081509E+03  0.7546771E-02  0.1173314E+00
         21   -1    0    0  501  502  0.00000000000E+00  0.00000000000E+00  0.55101521844E+03  0.55101521844E+03  0.00000000000E+00 0.  1.
         -2   -1    0    0    0  501 -0.00000000000E+00 -0.00000000000E+00 -0.21819173522E+03  0.21819173522E+03  0.00000000000E+00 0.  1.
         23    2    1    2    0    0 -0.35824241297E+01 -0.34046534717E+02 -0.83471530633E+02  0.13228720979E+03  0.96749207535E+02 0.  0.
         23    2    1    2    0    0  0.10397984501E+02  0.21446997770E+03  0.65111200501E+02  0.24204110251E+03  0.90768592908E+02 0.  0.
        -11    1    3    3    0    0  0.35852002834E+02 -0.24219275812E+01 -0.14779163994E+01  0.35964094279E+02  0.00000000000E+00 0.  1.
         11    1    3    3    0    0 -0.39434426964E+02 -0.31624607136E+02 -0.81993614233E+02  0.96323115510E+02  0.00000000000E+00 0. -1.
        -13    1    4    4    0    0  0.46879407400E+02  0.11586437710E+03  0.16034754916E+02  0.12601327741E+03  0.00000000000E+00 0.  1.
         13    1    4    4    0    0 -0.36481422898E+02  0.98605600605E+02  0.49076445585E+02  0.11602782510E+03  0.00000000000E+00 0. -1.
         -2    1    1    2    0  502 -0.68155603717E+01 -0.18042344298E+03  0.35118381335E+03  0.39487864136E+03  0.00000000000E+00 0.  1.
<scales pt_clust_5="13000.00000" pt_clust_6="13000.00000" pt_clust_7="13000.00000" pt_clust_8="13000.00000" pt_clust_9="187.31759"></scales>
<clustering>
<clus scale="   90.769">  7  8 -1 -1</clus>
<clus scale="   96.749">  5  6 -1 -1</clus>
<clus scale="  102.628">  2  5  1 -1</clus>
<clus scale="  187.318">  1  9  2 -1</clus>
<clus scale="  187.318">  1  5  2 -1</clus>
</clustering>
</event>
<event>
 9    1  0.1445593E-005  0.9809763E+02  0.7546771E-02  0.1287688E+00
         21   -1    0    0  501  502  0.00000000000E+00  0.00000000000E+00  0.58726931367E+02  0.58726931367E+02  0.00000000000E+00 0. -1.
          1   -1    0    0  502    0 -0.00000000000E+00 -0.00000000000E+00 -0.55390460408E+03  0.55390460408E+03  0.00000000000E+00 0. -1.
         23    2    1    2    0    0  0.31497348158E+01 -0.80045171346E+01 -0.38573061049E+03  0.39806507133E+03  0.97947455384E+02 0.  0.
         23    2    1    2    0    0  0.19071219955E+02 -0.50215220551E+01 -0.14368282939E+03  0.17172330503E+03  0.91952220826E+02 0.  0.
        -11    1    3    3    0    0  0.43133161777E+02 -0.25551531094E+02 -0.26453715120E+03  0.26924571445E+03  0.00000000000E+00 0.  1.
         11    1    3    3    0    0 -0.39983426961E+02  0.17547013960E+02 -0.12119345929E+03  0.12881935688E+03  0.00000000000E+00 0. -1.
        -11    1    4    4    0    0  0.17698311675E+02 -0.46599671616E+02 -0.58013056794E+02  0.76487086423E+02  0.00000000000E+00 0.  1.
         11    1    4    4    0    0  0.13729082794E+01  0.41578149561E+02 -0.85669772597E+02  0.95236218609E+02  0.00000000000E+00 0. -1.
          1    1    1    2  501    0 -0.22220954771E+02  0.13026039190E+02  0.34235767164E+02  0.42843159095E+02  0.00000000000E+00 0. -1.
<scales pt_clust_5="13000.00000" pt_clust_6="13000.00000" pt_clust_7="13000.00000" pt_clust_8="13000.00000" pt_clust_9="25.75749"></scales>
<clustering>
<clus scale="   25.757">  1  9  2 -1</clus>
<clus scale="   91.952">  7  8 -1 -1</clus>
<clus scale="   92.112">  1  7  2 -1</clus>
<clus scale="   97.947">  5  6 -1 -1</clus>
<clus scale="   25.757">  1  5  2 -1</clus>
</clustering>
</event>
<event>
 9    1  0.1445593E-005  0.9895124E+02  0.7546771E-02  0.1286765E+00
         -3   -1    0    0    0  501 -0.00000000000E+00  0.00000000000E+00  0.10623655880E+03  0.10623655880E+03  0.00000000000E+00 0.  1.
         21   -1    0    0  501  502  0.00000000000E+00 -0.00000000000E+00 -0.19686481097E+03  0.19686481097E+03  0.00000000000E+00 0. -1.
         23    2    1    2    0    0 -0.29421751901E+02  0.20765542409E+02  0.58830523267E+02  0.11606163257E+03  0.93340370953E+02 0.  0.
         23    2    1    2    0    0  0.75976848693E+01 -0.22277070345E+02 -0.10331073438E+03  0.13596903805E+03  0.85208443198E+02 0.  0.
        -11    1    3    3    0    0  0.28334692343E+02  0.27314633356E+02  0.36857752306E+02  0.53920662928E+02  0.00000000000E+00 0.  1.
         11    1    3    3    0    0 -0.57756444244E+02 -0.65490909470E+01  0.21972770960E+02  0.62140969638E+02  0.00000000000E+00 0. -1.
        -11    1    4    4    0    0  0.24943519314E+02  0.17121816494E+01 -0.10338527490E+03  0.10636552914E+03  0.00000000000E+00 0. -1.
         11    1    4    4    0    0 -0.17345834445E+02 -0.23989251995E+02  0.74540522938E-01  0.29603508916E+02  0.00000000000E+00 0.  1.
         -3    1    1    2    0  502  0.21824067032E+02  0.15115279361E+01 -0.46148041059E+02  0.51070699154E+02  0.00000000000E+00 0.  1.
<scales pt_clust_5="13000.00000" pt_clust_6="13000.00000" pt_clust_7="13000.00000" pt_clust_8="13000.00000" pt_clust_9="21.87635"></scales>
<clustering>
<clus scale="   21.876">  2  9  1 -1</clus>
<clus scale="   85.208">  7  8 -1 -1</clus>
<clus scale="   91.320">  2  7  1 -1</clus>
<clus scale="   93.340">  5  6 -1 -1</clus>
<clus scale="   21.876">  2  5  1 -1</clus>
</clustering>
</event>
<event>
 9    1  0.1445593E-005  0.1476411E+03  0.7546771E-02  0.1204064E+00
         -1   -1    0    0    0  501 -0.00000000000E+00  0.00000000000E+00  0.36609674737E+03  0.36609674737E+03  0.00000000000E+00 0.  1.
         21   -1    0    0  501  502  0.00000000000E+00 -0.00000000000E+00 -0.10050278163E+04  0.10050278163E+04  0.00000000000E+00 0.  1.
         23    2    1    2    0    0  0.10530701227E+03  0.40579731243E+02  0.31854875114E+03  0.35055507705E+03  0.93162620034E+02 0.  0.
         23    2    1    2    0    0 -0.12197471059E+03  0.55949295023E+02 -0.21251714611E+03  0.26919404739E+03  0.96404066946E+02 0.  0.
        -11    1    3    3    0    0  0.90598236259E+02 -0.78383790584E-01  0.13933574698E+03  0.16620017131E+03  0.00000000000E+00 0. -1.
         11    1    3    3    0    0  0.14708776007E+02  0.40658115034E+02  0.17921300415E+03  0.18435490573E+03  0.00000000000E+00 0.  1.
        -13    1    4    4    0    0 -0.59307073713E+02  0.78641530701E+02 -0.13097571600E+03  0.16387939933E+03  0.00000000000E+00 0.  1.
         13    1    4    4    0    0 -0.62667636881E+02 -0.22692235678E+02 -0.81541430111E+02  0.10531464806E+03  0.00000000000E+00 0. -1.
         -1    1    1    2    0  502  0.16667698328E+02 -0.96529026266E+02 -0.74496267400E+03  0.75137543927E+03  0.00000000000E+00 0.  1.
<scales pt_clust_5="13000.00000" pt_clust_6="13000.00000" pt_clust_7="13000.00000" pt_clust_8="13000.00000" pt_clust_9="97.95747"></scales>
<clustering>
<clus scale="   93.163">  5  6 -1 -1</clus>
<clus scale="   96.404">  7  8 -1 -1</clus>
<clus scale="   97.957">  2  9  1 -1</clus>
<clus scale="  145.545">  1  5  2 -1</clus>
<clus scale="   97.957">  2  5  1 -1</clus>
</clustering>
</event>
<event>
 9    1  0.1445593E-005  0.1500863E+03  0.7546771E-02  0.1200490E+00
         21   -1    0    0  501  502  0.00000000000E+00  0.00000000000E+00  0.13035716538E+03  0.13035716538E+03  0.00000000000E+00 0.  1.
          1   -1    0    0  502    0 -0.00000000000E+00 -0.00000000000E+00 -0.24597369574E+03  0.24597369574E+03  0.00000000000E+00 0. -1.
         23    2    1    2    0    0 -0.12988780893E+03 -0.10613879136E+02 -0.99311008804E+02  0.18804881426E+03  0.92283166047E+02 0.  0.
         23    2    1    2    0    0  0.10511550271E+03 -0.55995217635E+01 -0.45413534549E+02  0.14676316026E+03  0.91631940593E+02 0.  0.
        -11    1    3    3    0    0 -0.41829183069E+02 -0.31554318428E+02 -0.79786394840E+02  0.95452733692E+02  0.00000000000E+00 0.  1.
         11    1    3    3    0    0 -0.88058625856E+02  0.20940439291E+02 -0.19524613964E+02  0.92596080564E+02  0.00000000000E+00 0. -1.
        -11    1    4    4    0    0  0.93375976242E+02  0.16501819856E+02  0.10018874296E+00  0.94822956269E+02  0.00000000000E+00 0. -1.
         11    1    4    4    0    0  0.11739526464E+02 -0.22101341619E+02 -0.45513723292E+02  0.51940203993E+02  0.00000000000E+00 0.  1.
          1    1    1    2  501    0  0.24772306220E+02  0.16213400900E+02  0.29108012999E+02  0.41518886605E+02  0.00000000000E+00 0. -1.
<scales pt_clust_5="13000.00000" pt_clust_6="13000.00000" pt_clust_7="13000.00000" pt_clust_8="13000.00000" pt_clust_9="29.60644"></scales>
<clustering>
<clus scale="   29.606">  1  9  2 -1</clus>
<clus scale="   91.632">  7  8 -1 -1</clus>
<clus scale="   92.283">  5  6 -1 -1</clus>
<clus scale="  149.687">  1  7  2 -1</clus>
<clus scale="   29.606">  1  5  2 -1</clus>
</clustering>
</event>
<event>
 9    1  0.1445593E-005  0.1192112E+03  0.7546771E-02  0.1246010E+00
         21   -1    0    0  501  502  0.00000000000E+00  0.00000000000E+00  0.87324356829E+02  0.87324356829E+02  0.00000000000E+00 0. -1.
          1   -1    0    0  502    0 -0.00000000000E+00 -0.00000000000E+00 -0.48357465558E+03  0.48357465558E+03  0.00000000000E+00 0. -1.
         23    2    1    2    0    0 -0.18021171315E+02  0.62442778274E+02 -0.25907762753E+03  0.28031261792E+03  0.85029897703E+02 0.  0.
         23    2    1    2    0    0 -0.19648833881E+02 -0.12283297374E+03 -0.15393519165E+03  0.21746329901E+03  0.90112302592E+02 0.  0.
        -11    1    3    3    0    0  0.92792335169E+01  0.71852589983E+02 -0.13826023202E+03  0.15609225036E+03  0.00000000000E+00 0. -1.
         11    1    3    3    0    0 -0.27300404832E+02 -0.94098117095E+01 -0.12081739551E+03  0.12422036756E+03  0.00000000000E+00 0.  1.
        -13    1    4    4    0    0  0.30527410622E+02 -0.78681245907E+02 -0.66718962033E+02  0.10758290362E+03  0.00000000000E+00 0.  1.
         13    1    4    4    0    0 -0.50176244503E+02 -0.44151727838E+02 -0.87216229615E+02  0.10988039539E+03  0.00000000000E+00 0. -1.
          1    1    1    2  501    0  0.37670005196E+02  0.60390195471E+02  0.16762520430E+02  0.73123095474E+02  0.00000000000E+00 0. -1.
<scales pt_clust_5="13000.00000" pt_clust_6="13000.00000" pt_clust_7="13000.00000" pt_clust_8="13000.00000" pt_clust_9="71.17587"></scales>
<clustering>
<clus scale="   71.176">  1  9  2 -1</clus>
<clus scale="   85.030">  5  6 -1 -1</clus>
<clus scale="   90.112">  7  8 -1 -1</clus>
<clus scale="  115.417">  2  5  1 -1</clus>
<clus scale="   71.176">  1  5  2 -1</clus>
</clustering>
</event>
<event>
 9    1  0.1445593E-005  0.1070313E+03  0.7546771E-02  0.1268413E+00
         21   -1    0    0  501  502  0.00000000000E+00  0.00000000000E+00  0.55941711905E+03  0.55941711905E+03  0.00000000000E+00 0.  1.
         -1   -1    0    0    0  501 -0.00000000000E+00 -0.00000000000E+00 -0.13904316769E+03  0.13904316769E+03  0.00000000000E+00 0.  1.
         23    2    1    2    0    0  0.58770371727E+02  0.14343253929E+02 -0.86939447194E+02  0.13972654346E+03  0.91133714629E+02 0.  0.
         23    2    1    2    0    0  0.67968586557E+01 -0.51991928720E+01  0.77523974070E+02  0.12387557681E+03  0.96239093310E+02 0.  0.
        -11    1    3    3    0    0 -0.20394316792E+01 -0.22769895575E+02 -0.58874526492E+02  0.63157242623E+02  0.00000000000E+00 0.  1.
         11    1    3    3    0    0  0.60809803406E+02  0.37113149504E+02 -0.28064920702E+02  0.76569300835E+02  0.00000000000E+00 0. -1.
        -11    1    4    4    0    0 -0.41527635502E+02  0.80900564255E+01  0.53751882970E+02  0.68405105410E+02  0.00000000000E+00 0. -1.
         11    1    4    4    0    0  0.48324494158E+02 -0.13289249298E+02  0.23772091100E+02  0.55470471404E+02  0.00000000000E+00 0.  1.
         -1    1    1    2    0  502 -0.65567230383E+02 -0.91440610568E+01  0.42978942448E+03  0.43485816647E+03  0.00000000000E+00 0.  1.
<scales pt_clust_5="13000.00000" pt_clust_6="13000.00000" pt_clust_7="13000.00000" pt_clust_8="13000.00000" pt_clust_9="66.20178"></scales>
<clustering>
<clus scale="   66.202">  1  9  2 -1</clus>
<clus scale="   91.134">  5  6 -1 -1</clus>
<clus scale="   96.239">  7  8 -1 -1</clus>
<clus scale="  102.465">  2  5  1 -1</clus>
<clus scale="   66.202">  1  5  2 -1</clus>
</clustering>
</event>
<event>
 9    1  0.1445593E-005  0.1227101E+03  0.7546771E-02  0.1239316E+00
         21   -1    0    0  501  502  0.00000000000E+00  0.00000000000E+00  0.37754862910E+03  0.37754862910E+03  0.00000000000E+00 0. -1.
          3   -1    0    0  502    0 -0.00000000000E+00 -0.00000000000E+00 -0.71420559534E+02  0.71420559534E+02  0.00000000000E+00 0. -1.
         23    2    1    2    0    0  0.23089250914E+02 -0.80392355713E+02  0.58003629595E+02  0.13673393170E+03  0.91300069378E+02 0.  0.
         23    2    1    2    0    0 -0.54480359585E+02  0.58028005386E+02  0.97335135211E+02  0.15659792112E+03  0.93345708854E+02 0.  0.
        -13    1    3    3    0    0  0.16743630389E+01 -0.94519624140E+02  0.31002485709E+02  0.99488275487E+02  0.00000000000E+00 0. -1.
         13    1    3    3    0    0  0.21414887876E+02  0.14127268427E+02  0.27001143886E+02  0.37245656218E+02  0.00000000000E+00 0.  1.
        -13    1    4    4    0    0 -0.68529619434E+02  0.77691200559E+01  0.43074169134E+02  0.81314525226E+02  0.00000000000E+00 0. -1.
         13    1    4    4    0    0  0.14049259849E+02  0.50258885330E+02  0.54260966077E+02  0.75283395889E+02  0.00000000000E+00 0.  1.
          3    1    1    2  501    0  0.31391108670E+02  0.22364350327E+02  0.15078930476E+03  0.15563733581E+03  0.00000000000E+00 0. -1.
<scales pt_clust_5="13000.00000" pt_clust_6="13000.00000" pt_clust_7="13000.00000" pt_clust_8="13000.00000" pt_clust_9="38.54304"></scales>
<clustering>
<clus scale="   38.543">  1  9  2 -1</clus>
<clus scale="   91.300">  5  6 -1 -1</clus>
<clus scale="   93.346">  7  8 -1 -1</clus>
<clus scale="  121.161">  2  5  1 -1</clus>
<clus scale="   38.543">  1  5  2 -1</clus>
</clustering>
</event>
<event>
 9    1  0.1445593E-005  0.1433497E+03  0.7546771E-02  0.1209873E+00
         -4   -1    0    0    0  501 -0.00000000000E+00  0.00000000000E+00  0.31794708528E+03  0.31794708528E+03  0.00000000000E+00 0.  1.
         21   -1    0    0  501  502  0.00000000000E+00 -0.00000000000E+00 -0.16356468899E+03  0.16356468899E+03  0.00000000000E+00 0. -1.
         23    2    1    2    0    0  0.70810447542E+02  0.37438269351E+02  0.86508151023E+02  0.15011576368E+03  0.92926523767E+02 0.  0.
         23    2    1    2    0    0 -0.13203143977E+03 -0.56942433742E+02  0.15093859846E+03  0.22638120644E+03  0.88268047861E+02 0.  0.
        -13    1    3    3    0    0 -0.18258441208E+02  0.18000705518E+02  0.40664904749E+02  0.48073179141E+02  0.00000000000E+00 0. -1.
         13    1    3    3    0    0  0.89068888750E+02  0.19437563833E+02  0.45843246274E+02  0.10204258454E+03  0.00000000000E+00 0.  1.
        -13    1    4    4    0    0 -0.22737469470E+02 -0.53838553462E+02  0.64191726896E+02  0.86811060117E+02  0.00000000000E+00 0.  1.
         13    1    4    4    0    0 -0.10929397030E+03 -0.31038802800E+01  0.86746871565E+02  0.13957014632E+03  0.00000000000E+00 0. -1.
         -4    1    1    2    0  502  0.61220992229E+02  0.19504164391E+02 -0.83064353195E+02  0.10501480415E+03  0.00000000000E+00 0.  1.
<scales pt_clust_5="13000.00000" pt_clust_6="13000.00000" pt_clust_7="13000.00000" pt_clust_8="13000.00000" pt_clust_9="64.25280"></scales>
<clustering>
<clus scale="   64.253">  2  9  1 -1</clus>
<clus scale="   88.268">  7  8 -1 -1</clus>
<clus scale="   92.927">  5  6 -1 -1</clus>
<clus scale="  140.375">  2  7  1 -1</clus>
<clus scale="   64.253">  2  5  1 -1</clus>
</clustering>
</event>
<event>
 9    1  0.1445593E-005  0.1336961E+03  0.7546771E-02  0.1222505E+00
          2   -1    0    0  502    0 -0.00000000000E+00  0.00000000000E+00  0.73951939797E+03  0.73951939797E+03  0.00000000000E+00 0. -1.
         21   -1    0    0  501  502  0.00000000000E+00 -0.00000000000E+00 -0.59582215210E+02  0.59582215210E+02  0.00000000000E+00 0.  1.
         23    2    1    2    0    0 -0.12373056132E+02  0.89106565158E+02  0.33965270935E+03  0.36315248408E+03  0.91775221335E+02 0.  0.
         23    2    1    2    0    0  0.35993329491E+02 -0.99826737441E+02  0.37071120869E+03  0.39596631245E+03  0.90009016592E+02 0.  0.
        -11    1    3    3    0    0  0.35309395721E+02  0.13261381040E+02  0.12464481911E+03  0.13022652796E+03  0.00000000000E+00 0. -1.
         11    1    3    3    0    0 -0.47682451854E+02  0.75845184118E+02  0.21500789024E+03  0.23292595612E+03  0.00000000000E+00 0.  1.
        -13    1    4    4    0    0  0.40154494791E+02 -0.47392041103E+02  0.84010208356E+02  0.10448016137E+03  0.00000000000E+00 0.  1.
         13    1    4    4    0    0 -0.41611652999E+01 -0.52434696338E+02  0.28670100034E+03  0.29148615108E+03  0.00000000000E+00 0. -1.
          2    1    1    2  501    0 -0.23620273359E+02  0.10720172284E+02 -0.30426735285E+02  0.39982816652E+02  0.00000000000E+00 0. -1.
<scales pt_clust_5="13000.00000" pt_clust_6="13000.00000" pt_clust_7="13000.00000" pt_clust_8="13000.00000" pt_clust_9="25.93915"></scales>
<clustering>
<clus scale="   25.939">  2  9  1 -1</clus>
<clus scale="   90.009">  7  8 -1 -1</clus>
<clus scale="   91.775">  5  6 -1 -1</clus>
<clus scale="  132.490">  2  7  1 -1</clus>
<clus scale="   25.939">  2  5  1 -1</clus>
</clustering>
</event>
<event>
 9    1  0.1445593E-005  0.9687151E+02  0.7546771E-02  0.1289147E+00
         21   -1    0    0  501  502  0.00000000000E+00  0.00000000000E+00  0.16284971132E+03  0.16284971132E+03  0.00000000000E+00 0.  1.
          2   -1    0    0  502    0 -0.00000000000E+00 -0.00000000000E+00 -0.11791783755E+03  0.11791783755E+03  0.00000000000E+00 0. -1.
         23    2    1    2    0    0  0.27498091684E+02  0.27957952938E+02 -0.49691482716E+02  0.10770327400E+03  0.87137590041E+02 0.  0.
         23    2    1    2    0    0  0.13521724118E+02 -0.21383117503E+02  0.91126175484E+02  0.13137393996E+03  0.91186937139E+02 0.  0.
        -13    1    4    4    0    0  0.39219980025E+02  0.21419882539E+02  0.41740576726E+02  0.61149766529E+02  0.00000000000E+00 0.  1.
         13    1    4    4    0    0 -0.25698255907E+02 -0.42803000042E+02  0.49385598758E+02  0.70224173430E+02  0.00000000000E+00 0. -1.
        -13    1    3    3    0    0  0.18905239518E+02 -0.25966588959E+02 -0.41514890065E+02  0.52489598212E+02  0.00000000000E+00 0.  1.
         13    1    3    3    0    0  0.85928521656E+01  0.53924541897E+02 -0.81765926517E+01  0.55213675793E+02  0.00000000000E+00 0. -1.
          2    1    1    2  501    0 -0.41019815801E+02 -0.65748354347E+01  0.34971810029E+01  0.41690334903E+02  0.00000000000E+00 0. -1.
<scales pt_clust_5="13000.00000" pt_clust_6="13000.00000" pt_clust_7="13000.00000" pt_clust_8="13000.00000" pt_clust_9="41.54342"></scales>
<clustering>
<clus scale="   41.543">  1  9  2 -1</clus>
<clus scale="   87.138">  7  8 -1 -1</clus>
<clus scale="   91.187">  5  6 -1 -1</clus>
<clus scale="   93.070">  2  7  1 -1</clus>
<clus scale="   41.543">  1  5  2 -1</clus>
</clustering>
</event>
<event>
 9    1  0.1445593E-005  0.9721095E+02  0.7546771E-02  0.1286721E+00
         21   -1    0    0  501  502  0.00000000000E+00  0.00000000000E+00  0.74935428210E+02  0.74935428210E+02  0.00000000000E+00 0.  1.
          1   -1    0    0  502    0 -0.00000000000E+00 -0.00000000000E+00 -0.24132884852E+03  0.24132884852E+03  0.00000000000E+00 0. -1.
         23    2    1    2    0    0  0.46595333890E+02 -0.33357002174E+01 -0.12370205793E+03  0.16103631565E+03  0.91914328508E+02 0.  0.
         23    2    1    2    0    0  0.25848451936E+01 -0.13327398361E+02 -0.72109757070E+01  0.92337526935E+02  0.91048996360E+02 0.  0.
        -13    1    4    4    0    0  0.46154782738E+02 -0.13777948088E+02 -0.76015790485E+01  0.48763509176E+02  0.00000000000E+00 0.  1.
         13    1    4    4    0    0 -0.43569937545E+02  0.45054972695E+00  0.39060334158E+00  0.43574017759E+02  0.00000000000E+00 0. -1.
        -13    1    3    3    0    0  0.27801785563E+02 -0.31227076738E+02 -0.10730746737E+02  0.43165015089E+02  0.00000000000E+00 0.  1.
         13    1    3    3    0    0  0.18793548327E+02  0.27891376520E+02 -0.11297131119E+03  0.11787130056E+03  0.00000000000E+00 0. -1.
          1    1    1    2  501    0 -0.49180179084E+02  0.16663098579E+02 -0.35480386678E+02  0.62890434151E+02  0.00000000000E+00 0. -1.
<scales pt_clust_5="13000.00000" pt_clust_6="13000.00000" pt_clust_7="13000.00000" pt_clust_8="13000.00000" pt_clust_9="51.92641"></scales>
<clustering>
<clus scale="   51.926">  1  9  2 -1</clus>
<clus scale="   91.049">  5  6 -1 -1</clus>
<clus scale="   91.914">  7  8 -1 -1</clus>
<clus scale="   96.393">  1  5  2 -1</clus>
<clus scale="   51.926">  1  5  2 -1</clus>
</clustering>
</event>
<event>
 9    1  0.1445593E-005  0.1598559E+03  0.7546771E-02  0.1189566E+00
         -1   -1    0    0    0  501 -0.00000000000E+00  0.00000000000E+00  0.92993410878E+03  0.92993410878E+03  0.00000000000E+00 0.  1.
         21   -1    0    0  501  502  0.00000000000E+00 -0.00000000000E+00 -0.91058160840E+02  0.91058160840E+02  0.00000000000E+00 0.  1.
         23    2    1    2    0    0  0.10312392976E+02 -0.12176356135E+03  0.56399048269E+03  0.58511378431E+03  0.96644532710E+02 0.  0.
         23    2    1    2    0    0  0.17376734979E+02  0.13777926096E+03  0.33134720568E+03  0.37098535337E+03  0.92488302145E+02 0.  0.
        -13    1    3    3    0    0  0.18975169950E+02 -0.31027067655E+02  0.43492463254E+02  0.56695064704E+02  0.00000000000E+00 0. -1.
         13    1    3    3    0    0 -0.86627769741E+01 -0.90736493695E+02  0.52049801944E+03  0.52841871961E+03  0.00000000000E+00 0.  1.
        -13    1    4    4    0    0  0.49460621261E+02  0.93102045879E+02  0.16522606784E+03  0.19599489151E+03  0.00000000000E+00 0. -1.
         13    1    4    4    0    0 -0.32083886282E+02  0.44677215084E+02  0.16612113784E+03  0.17499046186E+03  0.00000000000E+00 0.  1.
         -1    1    1    2    0  502 -0.27689127955E+02 -0.16015699613E+02 -0.56461740428E+02  0.64893131942E+02  0.00000000000E+00 0.  1.
<scales pt_clust_5="13000.00000" pt_clust_6="13000.00000" pt_clust_7="13000.00000" pt_clust_8="13000.00000" pt_clust_9="31.98735"></scales>
<clustering>
<clus scale="   31.987">  2  9  1 -1</clus>
<clus scale="   92.488">  7  8 -1 -1</clus>
<clus scale="   96.645">  5  6 -1 -1</clus>
<clus scale="  157.378">  2  7  1 -1</clus>
<clus scale="   31.987">  2  5  1 -1</clus>
</clustering>
</event>
<event>
 9    1  0.1445593E-005  0.1235523E+03  0.7546771E-02  0.1244969E+00
         21   -1    0    0  501  502  0.00000000000E+00  0.00000000000E+00  0.60468560797E+02  0.60468560797E+02  0.00000000000E+00 0.  1.
          1   -1    0    0  502    0 -0.00000000000E+00 -0.00000000000E+00 -0.36961145710E+03  0.36961145710E+03  0.00000000000E+00 0. -1.
         23    2    1    2    0    0 -0.47819327513E+02  0.17013338480E+02 -0.23740139381E+03  0.26708531585E+03  0.11135080777E+03 0.  0.
         23    2    1    2    0    0  0.47128560712E+02 -0.38279687597E+02 -0.84261612781E+02  0.13830689281E+03  0.91336419321E+02 0.  0.
        -11    1    4    4    0    0  0.94898151981E+01 -0.24007345426E+02  0.15927868107E+02  0.30333252534E+02  0.00000000000E+00 0.  1.
         11    1    4    4    0    0  0.37638745514E+02 -0.14272342171E+02 -0.10018948089E+03  0.10797364028E+03  0.00000000000E+00 0. -1.
        -13    1    3    3    0    0 -0.46261334651E+02 -0.33191267212E+02 -0.18877692033E+03  0.19717630931E+03  0.00000000000E+00 0. -1.
         13    1    3    3    0    0 -0.15579928618E+01  0.50204605692E+02 -0.48624473475E+02  0.69909006538E+02  0.00000000000E+00 0.  1.
          1    1    1    2  501    0  0.69076680028E+00  0.21266349116E+02  0.12520110282E+02  0.24687809238E+02  0.00000000000E+00 0. -1.
<scales pt_clust_5="13000.00000" pt_clust_6="13000.00000" pt_clust_7="13000.00000" pt_clust_8="13000.00000" pt_clust_9="21.27756"></scales>
<clustering>
<clus scale="   21.278">  1  9  2 -1</clus>
<clus scale="   91.336">  5  6 -1 -1</clus>
<clus scale="  105.870">  1  5  2 -1</clus>
<clus scale="  111.351">  7  8 -1 -1</clus>
<clus scale="   21.278">  1  5  2 -1</clus>
</clustering>
</event>
<event>
 9    1  0.1445593E-005  0.1761308E+03  0.7546771E-02  0.1171989E+00
         -3   -1    0    0    0  501 -0.00000000000E+00  0.00000000000E+00  0.46412128269E+03  0.46412128269E+03  0.00000000000E+00 0.  1.
         21   -1    0    0  501  502  0.00000000000E+00 -0.00000000000E+00 -0.40520306857E+03  0.40520306857E+03  0.00000000000E+00 0. -1.
         23    2    1    2    0    0  0.65284107864E+02  0.11629342210E+03  0.25635457882E+03  0.30217063744E+03  0.88336002183E+02 0.  0.
         23    2    1    2    0    0 -0.33181944102E+02 -0.26721829401E+03  0.38706375049E+02  0.28506816046E+03  0.85199850756E+02 0.  0.
        -11    1    3    3    0    0  0.40142463295E+02  0.10515585345E+02  0.30471276345E+02  0.51482944522E+02  0.00000000000E+00 0. -1.
         11    1    3    3    0    0  0.25141644569E+02  0.10577783676E+03  0.22588330248E+03  0.25068769291E+03  0.00000000000E+00 0.  1.
        -13    1    4    4    0    0  0.85409021114E+01 -0.40024003787E+02  0.35305580209E+02  0.54049531745E+02  0.00000000000E+00 0.  1.
         13    1    4    4    0    0 -0.41722846213E+02 -0.22719429022E+03  0.34007948396E+01  0.23101862871E+03  0.00000000000E+00 0. -1.
         -3    1    1    2    0  502 -0.32102163762E+02  0.15092487191E+03 -0.23614273976E+03  0.28208555337E+03  0.00000000000E+00 0.  1.
<scales pt_clust_5="13000.00000" pt_clust_6="13000.00000" pt_clust_7="13000.00000" pt_clust_8="13000.00000" pt_clust_9="154.30122"></scales>
<clustering>
<clus scale="   85.200">  7  8 -1 -1</clus>
<clus scale="   88.336">  5  6 -1 -1</clus>
<clus scale="  154.301">  2  9  1 -1</clus>
<clus scale="  174.579">  2  7  1 -1</clus>
<clus scale="  154.301">  2  5  1 -1</clus>
</clustering>
</event>
<event>
 9    1  0.1445593E-005  0.1090827E+03  0.7546771E-02  0.1266317E+00
         21   -1    0    0  501  502  0.00000000000E+00  0.00000000000E+00  0.12595961301E+03  0.12595961301E+03  0.00000000000E+00 0. -1.
         -3   -1    0    0    0  501 -0.00000000000E+00 -0.00000000000E+00 -0.13275237973E+03  0.13275237973E+03  0.00000000000E+00 0.  1.
         23    2    1    2    0    0 -0.38937612803E+02 -0.16690570724E+02 -0.17567135630E+02  0.10527550801E+03  0.94760833099E+02 0.  0.
         23    2    1    2    0    0  0.50088989509E+02  0.45419978504E+02 -0.19271124568E+02  0.11039622739E+03  0.85112099384E+02 0.  0.
        -11    1    3    3    0    0  0.24366894727E+02 -0.12244251584E+02  0.17857802733E+02  0.32597060817E+02  0.00000000000E+00 0. -1.
         11    1    3    3    0    0 -0.63304507530E+02 -0.44463191403E+01 -0.35424938363E+02  0.72678447188E+02  0.00000000000E+00 0.  1.
        -13    1    4    4    0    0  0.69183269541E+02  0.18757537613E+02 -0.27180806228E+02  0.76661373774E+02  0.00000000000E+00 0. -1.
         13    1    4    4    0    0 -0.19094280032E+02  0.26662440891E+02  0.79096816600E+01  0.33734853612E+02  0.00000000000E+00 0.  1.
         -3    1    1    2    0  502 -0.11151376706E+02 -0.28729407780E+02  0.30045493479E+02  0.43040257344E+02  0.00000000000E+00 0.  1.
<scales pt_clust_5="13000.00000" pt_clust_6="13000.00000" pt_clust_7="13000.00000" pt_clust_8="13000.00000" pt_clust_9="30.81772"></scales>
<clustering>
<clus scale="   30.818">  1  9  2 -1</clus>
<clus scale="   85.112">  7  8 -1 -1</clus>
<clus scale="   94.761">  5  6 -1 -1</clus>
<clus scale="  100.814">  1  7  2 -1</clus>
<clus scale="   30.818">  1  5  2 -1</clus>
</clustering>
</event>
<event>
 9    1  0.1445593E-005  0.1334626E+03  0.7546771E-02  0.1224358E+00
         21   -1    0    0  501  502  0.00000000000E+00  0.00000000000E+00  0.80878195511E+02  0.80878195511E+02  0.00000000000E+00 0.  1.
          2   -1    0    0  502    0 -0.00000000000E+00 -0.00000000000E+00 -0.27783872999E+03  0.27783872999E+03  0.00000000000E+00 0. -1.
         23    2    1    2    0    0 -0.80394628829E+01 -0.74109840269E+02 -0.86107360767E+02  0.14662014839E+03  0.92336823353E+02 0.  0.
         23    2    1    2    0    0  0.17652236856E+02  0.10552192177E+03 -0.10144702939E+03  0.17792661706E+03  0.99598714076E+02 0.  0.
        -11    1    3    3    0    0  0.30388381799E+02 -0.59820619743E+02 -0.22165065153E+02  0.70662935179E+02  0.00000000000E+00 0.  1.
         11    1    3    3    0    0 -0.38427844682E+02 -0.14289220526E+02 -0.63942295614E+02  0.75957213210E+02  0.00000000000E+00 0. -1.
        -13    1    4    4    0    0  0.43972692054E+02  0.52598382848E+02 -0.10350977292E+02  0.69334913684E+02  0.00000000000E+00 0.  1.
         13    1    4    4    0    0 -0.26320455198E+02  0.52923538918E+02 -0.91096052097E+02  0.10859170337E+03  0.00000000000E+00 0. -1.
          2    1    1    2  501    0 -0.96127739726E+01 -0.31412081497E+02 -0.94061443253E+01  0.34170160059E+02  0.00000000000E+00 0. -1.
<scales pt_clust_5="13000.00000" pt_clust_6="13000.00000" pt_clust_7="13000.00000" pt_clust_8="13000.00000" pt_clust_9="32.85003"></scales>
<clustering>
<clus scale="   32.850">  1  9  2 -1</clus>
<clus scale="   92.337">  5  6 -1 -1</clus>
<clus scale="   99.599">  7  8 -1 -1</clus>
<clus scale="  128.134">  2  5  1 -1</clus>
<clus scale="   32.850">  1  5  2 -1</clus>
</clustering>
</event>
<event>
 9    1  0.1445593E-005  0.1140399E+03  0.7546771E-02  0.1254572E+00
         21   -1    0    0  501  502  0.00000000000E+00  0.00000000000E+00  0.74867452714E+02  0.74867452714E+02  0.00000000000E+00 0. -1.
          2   -1    0    0  502    0 -0.00000000000E+00 -0.00000000000E+00 -0.43377461929E+03  0.43377461929E+03  0.00000000000E+00 0. -1.
         23    2    1    2    0    0 -0.46911971682E+02 -0.17400160452E+02 -0.16095910661E+03  0.19092187096E+03  0.89665088738E+02 0.  0.
         23    2    1    2    0    0  0.81987745972E+02  0.10181050901E+02 -0.23512917896E+03  0.26609790844E+03  0.93256215813E+02 0.  0.
        -11    1    3    3    0    0 -0.58050231417E+02  0.13862775862E+02 -0.59920474329E+02  0.84572271851E+02  0.00000000000E+00 0.  1.
         11    1    3    3    0    0  0.11138259735E+02 -0.31262936315E+02 -0.10103863228E+03  0.10634959911E+03  0.00000000000E+00 0. -1.
        -13    1    4    4    0    0  0.21693891905E+02 -0.31201462089E+02 -0.30291294956E+02  0.48597517761E+02  0.00000000000E+00 0. -1.
         13    1    4    4    0    0  0.60293854067E+02  0.41382512990E+02 -0.20483788401E+03  0.21750039067E+03  0.00000000000E+00 0.  1.
          2    1    1    2  501    0 -0.35075774290E+02  0.72191095510E+01  0.37181118994E+02  0.51622292611E+02  0.00000000000E+00 0. -1.
<scales pt_clust_5="13000.00000" pt_clust_6="13000.00000" pt_clust_7="13000.00000" pt_clust_8="13000.00000" pt_clust_9="35.81097"></scales>
<clustering>
<clus scale="   35.811">  1  9  2 -1</clus>
<clus scale="   89.665">  5  6 -1 -1</clus>
<clus scale="   93.256">  7  8 -1 -1</clus>
<clus scale="  111.122">  2  5  1 -1</clus>
<clus scale="   35.811">  1  5  2 -1</clus>
</clustering>
</event>
<event>
 9    1  0.1445593E-005  0.1085742E+03  0.7546771E-02  0.1267679E+00
         21   -1    0    0  501  502  0.00000000000E+00  0.00000000000E+00  0.17609404059E+02  0.17609404059E+02  0.00000000000E+00 0. -1.
          2   -1    0    0  502    0 -0.00000000000E+00 -0.00000000000E+00 -0.96571137346E+03  0.96571137346E+03  0.00000000000E+00 0. -1.
         23    2    1    2    0    0 -0.49861368629E+02 -0.27865076419E+02 -0.51354074409E+03  0.52379372496E+03  0.85867059494E+02 0.  0.
         23    2    1    2    0    0  0.75721665548E+02  0.26182841951E+02 -0.40825952107E+03  0.42260328628E+03  0.74151123983E+02 0.  0.
        -11    1    4    4    0    0 -0.12166036762E+01  0.27066426825E+02 -0.58343642276E+02  0.64327693722E+02  0.00000000000E+00 0.  1.
         11    1    4    4    0    0  0.76938269224E+02 -0.88358487416E+00 -0.34991587879E+03  0.35827559256E+03  0.00000000000E+00 0. -1.
        -13    1    3    3    0    0  0.50243145813E+01 -0.45071939535E+02 -0.20812706141E+03  0.21301079119E+03  0.00000000000E+00 0.  1.
         13    1    3    3    0    0 -0.54885683210E+02  0.17206863116E+02 -0.30541368268E+03  0.31078293378E+03  0.00000000000E+00 0. -1.
          2    1    1    2  501    0 -0.25860296919E+02  0.16822344682E+01 -0.26301704239E+02  0.36923766268E+02  0.00000000000E+00 0. -1.
<scales pt_clust_5="13000.00000" pt_clust_6="13000.00000" pt_clust_7="13000.00000" pt_clust_8="13000.00000" pt_clust_9="25.91495"></scales>
<clustering>
<clus scale="   25.915">  1  9  2 -1</clus>
<clus scale="   74.151">  5  6 -1 -1</clus>
<clus scale="   85.867">  7  8 -1 -1</clus>
<clus scale="   99.567">  1  5  2 -1</clus>
<clus scale="   25.915">  1  5  2 -1</clus>
</clustering>
</event>
<event>
 9    1  0.1445593E-005  0.1148102E+03  0.7546771E-02  0.1252901E+00
          2   -1    0    0  502    0 -0.00000000000E+00  0.00000000000E+00  0.23862125374E+03  0.23862125374E+03  0.00000000000E+00 0. -1.
         21   -1    0    0  501  502  0.00000000000E+00 -0.00000000000E+00 -0.28593118102E+03  0.28593118102E+03  0.00000000000E+00 0. -1.
         23    2    1    2    0    0  0.64829725825E+02 -0.26383260981E+02  0.13100478022E+03  0.17617009616E+03  0.94734790495E+02 0.  0.
         23    2    1    2    0    0 -0.30780199955E+02  0.58878565745E+02  0.43564914020E+02  0.12156549290E+03  0.92011744455E+02 0.  0.
        -13    1    3    3    0    0  0.59107012258E+02 -0.63194471076E+01  0.19248058886E+02  0.62482494194E+02  0.00000000000E+00 0. -1.
         13    1    3    3    0    0  0.57227135668E+01 -0.20063813874E+02  0.11175672133E+03  0.11368760197E+03  0.00000000000E+00 0.  1.
        -13    1    4    4    0    0 -0.41742681762E+02 -0.60694949957E+01 -0.73359355183E+00  0.42188012630E+02  0.00000000000E+00 0.  1.
         13    1    4    4    0    0  0.10962481807E+02  0.64948060741E+02  0.44298507572E+02  0.79377480273E+02  0.00000000000E+00 0. -1.
          2    1    1    2  501    0 -0.34049525869E+02 -0.32495304764E+02 -0.22187962152E+03  0.22681684569E+03  0.00000000000E+00 0. -1.
<scales pt_clust_5="13000.00000" pt_clust_6="13000.00000" pt_clust_7="13000.00000" pt_clust_8="13000.00000" pt_clust_9="47.06713"></scales>
<clustering>
<clus scale="   47.067">  2  9  1 -1</clus>
<clus scale="   92.012">  7  8 -1 -1</clus>
<clus scale="   94.735">  5  6 -1 -1</clus>
<clus scale="  112.574">  2  7  1 -1</clus>
<clus scale="   47.067">  2  5  1 -1</clus>
</clustering>
</event>
<event>
 9    1  0.1632633E-005  0.1220995E+03  0.7546771E-02  0.1245667E+00
          1   -1    0    0  502    0 -0.00000000000E+00  0.00000000000E+00  0.17209651858E+03  0.17209651858E+03  0.00000000000E+00 0. -1.
         21   -1    0    0  501  502  0.00000000000E+00 -0.00000000000E+00 -0.28009064071E+03  0.28009064071E+03  0.00000000000E+00 0.  1.
         23    2    1    2    0    0 -0.31124706909E+02 -0.50211454607E+02  0.13511496965E+03  0.17361524117E+03  0.91631104932E+02 0.  0.
         23    2    1    2    0    0  0.26292572575E+02  0.29535039554E+02 -0.20712116389E+03  0.23678681771E+03  0.10772744579E+03 0.  0.
        -11    1    4    4    0    0  0.42852924386E+02  0.53376973321E+02 -0.75110677100E+02  0.10162228212E+03  0.00000000000E+00 0. -1.
         11    1    4    4    0    0 -0.16560351811E+02 -0.23841933768E+02 -0.13201048679E+03  0.13516453558E+03  0.00000000000E+00 0.  1.
        -13    1    3    3    0    0  0.20655070998E+02 -0.53160147431E+02  0.66550715185E+02  0.87644913854E+02  0.00000000000E+00 0.  1.
         13    1    3    3    0    0 -0.51779777907E+02  0.29486928244E+01  0.68564254463E+02  0.85970327320E+02  0.00000000000E+00 0. -1.
          1    1    1    2  501    0  0.48321343346E+01  0.20676415054E+02 -0.35987927896E+02  0.41785100406E+02  0.00000000000E+00 0. -1.
<scales pt_clust_5="13000.00000" pt_clust_6="13000.00000" pt_clust_7="13000.00000" pt_clust_8="13000.00000" pt_clust_9="21.23355"></scales>
<clustering>
<clus scale="   21.234">  2  9  1 -1</clus>
<clus scale="   91.631">  7  8 -1 -1</clus>
<clus scale="  107.727">  5  6 -1 -1</clus>
<clus scale="  108.164">  1  7  2 -1</clus>
<clus scale="   21.234">  2  5  1 -1</clus>
</clustering>
</event>
<event>
 9    1  0.1445593E-005  0.2097675E+03  0.7546771E-02  0.1141873E+00
         -3   -1    0    0    0  501 -0.00000000000E+00  0.00000000000E+00  0.63909803097E+03  0.63909803097E+03  0.00000000000E+00 0.  1.
         21   -1    0    0  501  502  0.00000000000E+00 -0.00000000000E+00 -0.10046578122E+03  0.10046578122E+03  0.00000000000E+00 0.  1.
         23    2    1    2    0    0 -0.46370149656E+02  0.19718051094E+03  0.32259552923E+03  0.39107770637E+03  0.88563831612E+02 0.  0.
         23    2    1    2    0    0  0.75943659543E+02 -0.16021435279E+03  0.22503557561E+03  0.30029825747E+03  0.90010859810E+02 0.  0.
        -13    1    3    3    0    0 -0.48420132082E+02  0.54751184941E+02  0.70660184112E+02  0.10166151220E+03  0.00000000000E+00 0. -1.
         13    1    3    3    0    0  0.20499824266E+01  0.14242932600E+03  0.25193534512E+03  0.28941619417E+03  0.00000000000E+00 0.  1.
        -13    1    4    4    0    0  0.92576445956E+02 -0.12051690356E+03  0.19750843861E+03  0.24920735485E+03  0.00000000000E+00 0.  1.
         13    1    4    4    0    0 -0.16632786413E+02 -0.39697449223E+02  0.27527137005E+02  0.51090902618E+02  0.00000000000E+00 0. -1.
         -3    1    1    2    0  502 -0.29573509888E+02 -0.36966158150E+02 -0.89988550942E+01  0.48187848349E+02  0.00000000000E+00 0.  1.
<scales pt_clust_5="13000.00000" pt_clust_6="13000.00000" pt_clust_7="13000.00000" pt_clust_8="13000.00000" pt_clust_9="47.34015"></scales>
<clustering>
<clus scale="   47.340">  2  9  1 -1</clus>
<clus scale="   88.564">  5  6 -1 -1</clus>
<clus scale="   90.011">  7  8 -1 -1</clus>
<clus scale="  209.151">  1  5  2 -1</clus>
<clus scale="   47.340">  2  5  1 -1</clus>
</clustering>
</event>
<event>
 9    1  0.1445593E-005  0.1017703E+03  0.7546771E-02  0.1278118E+00
         21   -1    0    0  501  502  0.00000000000E+00  0.00000000000E+00  0.35964136691E+03  0.35964136691E+03  0.00000000000E+00 0. -1.
          4   -1    0    0  502    0 -0.00000000000E+00 -0.00000000000E+00 -0.46070949342E+02  0.46070949342E+02  0.00000000000E+00 0. -1.
         23    2    1    2    0    0  0.37668763783E+02 -0.12424842029E+02  0.48008526286E+02  0.10753435008E+03  0.87667014244E+02 0.  0.
         23    2    1    2    0    0 -0.57287445473E+02  0.25660421059E+02  0.20007802559E+03  0.22854887822E+03  0.90901401493E+02 0.  0.
        -11    1    4    4    0    0 -0.43690151380E+02 -0.23642550191E+02  0.52124828510E+02  0.72005536275E+02  0.00000000000E+00 0. -1.
         11    1    4    4    0    0 -0.13597294093E+02  0.49302971249E+02  0.14795319708E+03  0.15654334194E+03  0.00000000000E+00 0.  1.
        -13    1    3    3    0    0  0.18936867008E+02  0.36326550179E+02  0.79883430635E+01  0.41737714419E+02  0.00000000000E+00 0. -1.
         13    1    3    3    0    0  0.18731896774E+02 -0.48751392208E+02  0.40020183223E+02  0.65796635660E+02  0.00000000000E+00 0.  1.
          4    1    1    2  501    0  0.19618681690E+02 -0.13235579030E+02  0.65483865693E+02  0.69629087956E+02  0.00000000000E+00 0. -1.
<scales pt_clust_5="13000.00000" pt_clust_6="13000.00000" pt_clust_7="13000.00000" pt_clust_8="13000.00000" pt_clust_9="23.66587"></scales>
<clustering>
<clus scale="   23.666">  1  9  2 -1</clus>
<clus scale="   87.667">  7  8 -1 -1</clus>
<clus scale="   90.901">  5  6 -1 -1</clus>
<clus scale="   98.892">  2  7  1 -1</clus>
<clus scale="   23.666">  1  5  2 -1</clus>
</clustering>
</event>
<event>
 9    1  0.1445593E-005  0.2545182E+03  0.7546771E-02  0.1136282E+00
          1   -1    0    0  502    0 -0.00000000000E+00  0.00000000000E+00  0.45936882448E+03  0.45936882448E+03  0.00000000000E+00 0. -1.
         21   -1    0    0  501  502  0.00000000000E+00 -0.00000000000E+00 -0.56952837131E+03  0.56952837131E+03  0.00000000000E+00 0. -1.
         23    2    1    2    0    0 -0.97087128858E+02 -0.23446263543E+02  0.17391046630E+03  0.21956084646E+03  0.89367092077E+02 0.  0.
         23    2    1    2    0    0  0.29532493203E+03 -0.91275526217E+02  0.12071189650E+03  0.34424742231E+03  0.91579957674E+02 0.  0.
        -11    1    4    4    0    0  0.27544440090E+03 -0.10321727079E+03  0.12673103240E+03  0.32028764814E+03  0.00000000000E+00 0. -1.
         11    1    4    4    0    0  0.19880531132E+02  0.11941744574E+02 -0.60191359010E+01  0.23959774176E+02  0.00000000000E+00 0.  1.
        -11    1    3    3    0    0 -0.73895062794E+02  0.19869721344E+02  0.66234008671E+02  0.10120390327E+03  0.00000000000E+00 0.  1.
         11    1    3    3    0    0 -0.23192066064E+02 -0.43315984888E+02  0.10767645763E+03  0.11835694320E+03  0.00000000000E+00 0. -1.
          1    1    1    2  501    0 -0.19823780317E+03  0.11472178976E+03 -0.40478190964E+03  0.46508892700E+03  0.00000000000E+00 0. -1.
<scales pt_clust_5="13000.00000" pt_clust_6="13000.00000" pt_clust_7="13000.00000" pt_clust_8="13000.00000" pt_clust_9="237.47126"></scales>
<clustering>
<clus scale="   89.367">  7  8 -1 -1</clus>
<clus scale="   91.580">  5  6 -1 -1</clus>
<clus scale="  134.023">  1  7  2 -1</clus>
<clus scale="  237.471">  2  9  1 -1</clus>
<clus scale="  237.471">  2  5  1 -1</clus>
</clustering>
</event>
<event>
 9    1  0.1445593E-005  0.1111128E+03  0.7546771E-02  0.1261667E+00
          2   -1    0    0  502    0 -0.00000000000E+00  0.00000000000E+00  0.29640113713E+03  0.29640113713E+03  0.00000000000E+00 0. -1.
         21   -1    0    0  501  502  0.00000000000E+00 -0.00000000000E+00 -0.50605799231E+02  0.50605799231E+02  0.00000000000E+00 0.  1.
         23    2    1    2    0    0  0.32618532558E+02 -0.23390190829E+02  0.11666109096E+03  0.15862118140E+03  0.99698542365E+02 0.  0.
         23    2    1    2    0    0 -0.52637000022E+02  0.24278296218E+02  0.12833949231E+03  0.16833184248E+03  0.92219816026E+02 0.  0.
        -13    1    3    3    0    0 -0.24826848018E+02  0.16973562205E+02  0.11544144075E+02  0.32213994767E+02  0.00000000000E+00 0.  1.
         13    1    3    3    0    0  0.57445380575E+02 -0.40363753034E+02  0.10511694689E+03  0.12640718663E+03  0.00000000000E+00 0. -1.
        -13    1    4    4    0    0 -0.79311527004E+02  0.19807454422E+02  0.99919151507E+02  0.12909876221E+03  0.00000000000E+00 0.  1.
         13    1    4    4    0    0  0.26674526982E+02  0.44708417955E+01  0.28420340806E+02  0.39233080272E+02  0.00000000000E+00 0. -1.
          2    1    1    2  501    0  0.20018467464E+02 -0.88810538895E+00  0.79475461946E+00  0.20053912479E+02  0.00000000000E+00 0. -1.
<scales pt_clust_5="13000.00000" pt_clust_6="13000.00000" pt_clust_7="13000.00000" pt_clust_8="13000.00000" pt_clust_9="20.03816"></scales>
<clustering>
<clus scale="   20.038">  2  9  1 -1</clus>
<clus scale="   92.220">  7  8 -1 -1</clus>
<clus scale="   99.699">  5  6 -1 -1</clus>
<clus scale="  104.455">  2  7  1 -1</clus>
<clus scale="   20.038">  2  5  1 -1</clus>
</clustering>
</event>
<event>
 9    1  0.1445593E-005  0.2494123E+03  0.7546771E-02  0.1113769E+00
          1   -1    0    0  502    0 -0.00000000000E+00  0.00000000000E+00  0.75712673030E+03  0.75712673030E+03  0.00000000000E+00 0. -1.
         21   -1    0    0  501  502  0.00000000000E+00 -0.00000000000E+00 -0.16039924481E+03  0.16039924481E+03  0.00000000000E+00 0. -1.
         23    2    1    2    0    0 -0.13965084478E+03  0.20728449158E+03  0.54252980103E+03  0.60572644345E+03  0.10048243820E+03 0.  0.
         23    2    1    2    0    0  0.80036208852E+02 -0.16507545591E+03  0.93919594455E+02  0.22865304862E+03  0.99023358598E+02 0.  0.
        -11    1    4    4    0    0 -0.15871032684E+02 -0.53443845386E+02  0.33636495850E+01  0.55852022583E+02  0.00000000000E+00 0.  1.
         11    1    4    4    0    0  0.95907241536E+02 -0.11163161053E+03  0.90555944870E+02  0.17280102604E+03  0.00000000000E+00 0. -1.
        -11    1    3    3    0    0 -0.94373908698E+02  0.11784910573E+03  0.21155714054E+03  0.25990627171E+03  0.00000000000E+00 0.  1.
         11    1    3    3    0    0 -0.45276936087E+02  0.89435385847E+02  0.33097266049E+03  0.34582017173E+03  0.00000000000E+00 0. -1.
          1    1    1    2  501    0  0.59614635932E+02 -0.42209035663E+02 -0.39721909993E+02  0.83146483043E+02  0.00000000000E+00 0. -1.
<scales pt_clust_5="13000.00000" pt_clust_6="13000.00000" pt_clust_7="13000.00000" pt_clust_8="13000.00000" pt_clust_9="73.04456"></scales>
<clustering>
<clus scale="   73.045">  2  9  1 -1</clus>
<clus scale="   99.023">  5  6 -1 -1</clus>
<clus scale="  100.482">  7  8 -1 -1</clus>
<clus scale="  248.828">  2  5  1 -1</clus>
<clus scale="   73.045">  2  5  1 -1</clus>
</clustering>
</event>
<event>
 9    1  0.1445593E-005  0.1957507E+03  0.7546771E-02  0.1183490E+00
         21   -1    0    0  501  502  0.00000000000E+00  0.00000000000E+00  0.25806158386E+03  0.25806158386E+03  0.00000000000E+00 0. -1.
          1   -1    0    0  502    0 -0.00000000000E+00 -0.00000000000E+00 -0.28025295175E+03  0.28025295175E+03  0.00000000000E+00 0. -1.
         23    2    1    2    0    0 -0.72158953198E+01  0.21368239164E+02 -0.87260107910E+02  0.13129269685E+03  0.95471330901E+02 0.  0.
         23    2    1    2    0    0  0.16421159263E+03  0.46465708013E+02 -0.48542337667E+02  0.20170118628E+03  0.95929666021E+02 0.  0.
        -11    1    3    3    0    0 -0.18152055482E+02 -0.27812328999E+02 -0.32987695057E+01  0.33375210004E+02  0.00000000000E+00 0.  1.
         11    1    3    3    0    0  0.10936160162E+02  0.49180568163E+02 -0.83961338404E+02  0.97917486848E+02  0.00000000000E+00 0. -1.
        -11    1    4    4    0    0  0.98460927695E+02  0.75072135861E+02 -0.25784378547E+02  0.12647218683E+03  0.00000000000E+00 0.  1.
         11    1    4    4    0    0  0.65750664936E+02 -0.28606427848E+02 -0.22757959120E+02  0.75228999442E+02  0.00000000000E+00 0. -1.
          1    1    1    2  501    0 -0.15699569731E+03 -0.67833947176E+02  0.11361107769E+03  0.20532065249E+03  0.00000000000E+00 0. -1.
<scales pt_clust_5="13000.00000" pt_clust_6="13000.00000" pt_clust_7="13000.00000" pt_clust_8="13000.00000" pt_clust_9="170.63366"></scales>
<clustering>
<clus scale="   95.471">  5  6 -1 -1</clus>
<clus scale="   95.930">  7  8 -1 -1</clus>
<clus scale="   98.099">  2  5  1 -1</clus>
<clus scale="  170.634">  1  9  2 -1</clus>
<clus scale="  170.634">  1  5  2 -1</clus>
</clustering>
</event>
<event>
 9    1  0.1445593E-005  0.9307950E+02  0.7546771E-02  0.1300504E+00
          2   -1    0    0  502    0 -0.00000000000E+00  0.00000000000E+00  0.51659272429E+03  0.51659272429E+03  0.00000000000E+00 0. -1.
         21   -1    0    0  501  502  0.00000000000E+00 -0.00000000000E+00 -0.24219912774E+02  0.24219912774E+02  0.00000000000E+00 0.  1.
         23    2    1    2    0    0  0.98507220195E+01  0.13486207512E+02  0.32397180507E+03  0.33518879716E+03  0.84349776213E+02 0.  0.
         23    2    1    2    0    0  0.70112078135E+01  0.47378061260E+01  0.12728158056E+03  0.15759003372E+03  0.92533313656E+02 0.  0.
        -11    1    4    4    0    0 -0.28591625735E+02  0.21000230490E+02  0.10854583503E+03  0.11419583637E+03  0.00000000000E+00 0. -1.
         11    1    4    4    0    0  0.35602833548E+02 -0.16262424364E+02  0.18735745533E+02  0.43394197348E+02  0.00000000000E+00 0.  1.
        -13    1    3    3    0    0 -0.33622897792E+02  0.16483325560E+02  0.20708220817E+03  0.21044058595E+03  0.00000000000E+00 0. -1.
         13    1    3    3    0    0  0.43473619811E+02 -0.29971180478E+01  0.11688959690E+03  0.12474821121E+03  0.00000000000E+00 0.  1.
          2    1    1    2  501    0 -0.16861929833E+02 -0.18224013638E+02  0.41119425881E+02  0.48033806174E+02  0.00000000000E+00 0. -1.
<scales pt_clust_5="13000.00000" pt_clust_6="13000.00000" pt_clust_7="13000.00000" pt_clust_8="13000.00000" pt_clust_9="24.82820"></scales>
<clustering>
<clus scale="   24.828">  2  9  1 -1</clus>
<clus scale="   84.350">  7  8 -1 -1</clus>
<clus scale="   84.949">  1  7  2 -1</clus>
<clus scale="   92.533">  5  6 -1 -1</clus>
<clus scale="   24.828">  2  5  1 -1</clus>
</clustering>
</event>
<event>
 9    1  0.1445593E-005  0.1143053E+03  0.7546771E-02  0.1252898E+00
         -1   -1    0    0    0  501 -0.00000000000E+00  0.00000000000E+00  0.29325800617E+03  0.29325800617E+03  0.00000000000E+00 0.  1.
         21   -1    0    0  501  502  0.00000000000E+00 -0.00000000000E+00 -0.22722208646E+03  0.22722208646E+03  0.00000000000E+00 0.  1.
         23    2    1    2    0    0  0.39879205643E+02  0.54728789016E+02  0.23116024558E+03  0.25785075944E+03  0.92012844855E+02 0.  0.
         23    2    1    2    0    0 -0.63639950417E+02 -0.33774055138E+02 -0.25989100015E+02  0.11993285482E+03  0.92291528632E+02 0.  0.
        -11    1    4    4    0    0 -0.35883025119E+02  0.30195429576E+02 -0.15643923076E+02  0.49437716251E+02  0.00000000000E+00 0.  1.
         11    1    4    4    0    0 -0.27756925298E+02 -0.63969484714E+02 -0.10345176940E+02  0.70495138573E+02  0.00000000000E+00 0. -1.
        -13    1    3    3    0    0  0.48392988199E+02  0.14026612213E+02  0.19900840290E+03  0.20528753391E+03  0.00000000000E+00 0.  1.
         13    1    3    3    0    0 -0.85137825568E+01  0.40702176803E+02  0.32151842682E+02  0.52563225527E+02  0.00000000000E+00 0. -1.
         -1    1    1    2    0  502  0.23760744774E+02 -0.20954733878E+02 -0.13913522585E+03  0.14269647836E+03  0.00000000000E+00 0.  1.
<scales pt_clust_5="13000.00000" pt_clust_6="13000.00000" pt_clust_7="13000.00000" pt_clust_8="13000.00000" pt_clust_9="31.68081"></scales>
<clustering>
<clus scale="   31.681">  2  9  1 -1</clus>
<clus scale="   92.013">  7  8 -1 -1</clus>
<clus scale="   92.292">  5  6 -1 -1</clus>
<clus scale="  114.080">  1  7  2 -1</clus>
<clus scale="   31.681">  2  5  1 -1</clus>
</clustering>
</event>
<event>
 9    1  0.1445593E-005  0.9936182E+02  0.7546771E-02  0.1283408E+00
         21   -1    0    0  501  502  0.00000000000E+00  0.00000000000E+00  0.61435477935E+02  0.61435477935E+02  0.00000000000E+00 0.  1.
          2   -1    0    0  502    0 -0.00000000000E+00 -0.00000000000E+00 -0.20281596955E+03  0.20281596955E+03  0.00000000000E+00 0. -1.
         23    2    1    2    0    0 -0.32015751119E+02 -0.12970512435E+02 -0.85527379035E+02  0.13029027802E+03  0.92018375723E+02 0.  0.
         23    2    1    2    0    0  0.27731185205E+02  0.34760915601E+02 -0.50309938435E+02  0.11107217746E+03  0.88479369426E+02 0.  0.
        -11    1    3    3    0    0 -0.53393723239E+02 -0.40540576515E+01 -0.14347189566E+02  0.55436151681E+02  0.00000000000E+00 0.  1.
         11    1    3    3    0    0  0.21377972120E+02 -0.89164547835E+01 -0.71180189469E+02  0.74854126343E+02  0.00000000000E+00 0. -1.
        -13    1    4    4    0    0  0.26528596449E+02 -0.25442838102E+02 -0.83928321034E+01  0.37703369490E+02  0.00000000000E+00 0. -1.
         13    1    4    4    0    0  0.12025887558E+01  0.60203753702E+02 -0.41917106331E+02  0.73368807969E+02  0.00000000000E+00 0.  1.
          2    1    1    2  501    0  0.42845659147E+01 -0.21790403166E+02 -0.55431741445E+01  0.22888992001E+02  0.00000000000E+00 0. -1.
<scales pt_clust_5="13000.00000" pt_clust_6="13000.00000" pt_clust_7="13000.00000" pt_clust_8="13000.00000" pt_clust_9="22.20764"></scales>
<clustering>
<clus scale="   22.208">  1  9  2 -1</clus>
<clus scale="   88.479">  7  8 -1 -1</clus>
<clus scale="   92.018">  5  6 -1 -1</clus>
<clus scale="   96.094">  1  7  2 -1</clus>
<clus scale="   22.208">  1  5  2 -1</clus>
</clustering>
</event>
<event>
 9    1  0.1445593E-005  0.1438084E+03  0.7546771E-02  0.1223304E+00
         21   -1    0    0  501  502  0.00000000000E+00  0.00000000000E+00  0.68006585987E+02  0.68006585987E+02  0.00000000000E+00 0. -1.
          1   -1    0    0  502    0 -0.00000000000E+00 -0.00000000000E+00 -0.10535327056E+04  0.10535327056E+04  0.00000000000E+00 0. -1.
         23    2    1    2    0    0 -0.60659752937E+02 -0.60083118997E+01 -0.67859311779E+02  0.12476605031E+03  0.85123296908E+02 0.  0.
         23    2    1    2    0    0  0.16170797441E+03 -0.26446049027E+02 -0.85121397527E+03  0.87155340433E+03  0.90505482730E+02 0.  0.
        -11    1    4    4    0    0  0.52069411199E+02  0.32564686039E+02 -0.23549182292E+03  0.24336820051E+03  0.00000000000E+00 0.  1.
         11    1    4    4    0    0  0.10963856321E+03 -0.59010735066E+02 -0.61572215235E+03  0.62818520381E+03  0.00000000000E+00 0. -1.
        -13    1    3    3    0    0  0.14978361742E+02  0.16857839937E+02 -0.28922307228E+02  0.36674758939E+02  0.00000000000E+00 0. -1.
         13    1    3    3    0    0 -0.75638114679E+02 -0.22866151837E+02 -0.38937004551E+02  0.88091291371E+02  0.00000000000E+00 0.  1.
          1    1    1    2  501    0 -0.10104822147E+03  0.32454360927E+02 -0.66452832529E+02  0.12521983691E+03  0.00000000000E+00 0. -1.
<scales pt_clust_5="13000.00000" pt_clust_6="13000.00000" pt_clust_7="13000.00000" pt_clust_8="13000.00000" pt_clust_9="111.75690"></scales>
<clustering>
<clus scale="   85.123">  7  8 -1 -1</clus>
<clus scale="   90.505">  5  6 -1 -1</clus>
<clus scale="  104.698">  2  7  1 -1</clus>
<clus scale="  111.757">  1  9  2 -1</clus>
<clus scale="  111.757">  1  5  2 -1</clus>
</clustering>
</event>
<event>
 9    1  0.1445593E-005  0.1475479E+03  0.7546771E-02  0.1203987E+00
          2   -1    0    0  502    0 -0.00000000000E+00  0.00000000000E+00  0.74884076702E+03  0.74884076702E+03  0.00000000000E+00 0. -1.
         21   -1    0    0  501  502  0.00000000000E+00 -0.00000000000E+00 -0.57754079719E+02  0.57754079719E+02  0.00000000000E+00 0.  1.
         23    2    1    2    0    0  0.11387332555E+03  0.14409826890E+02  0.55733999195E+03  0.57623867319E+03  0.90820506875E+02 0.  0.
         23    2    1    2    0    0 -0.11471494885E+03  0.14903928511E+02  0.78986481591E+02  0.16823785422E+03  0.93185110096E+02 0.  0.
        -11    1    3    3    0    0  0.26286778942E+02  0.41783765477E+02  0.27394009478E+03  0.27835239056E+03  0.00000000000E+00 0.  1.
         11    1    3    3    0    0  0.87586546605E+02 -0.27373938588E+02  0.28339989718E+03  0.29788628263E+03  0.00000000000E+00 0. -1.
        -13    1    4    4    0    0 -0.32997710641E+02  0.42045980421E+02  0.59447427294E+02  0.79941916346E+02  0.00000000000E+00 0. -1.
         13    1    4    4    0    0 -0.81717238207E+02 -0.27142051910E+02  0.19539054296E+02  0.88295937873E+02  0.00000000000E+00 0.  1.
          2    1    1    2  501    0  0.84162330079E+00 -0.29313755401E+02  0.54760213760E+02  0.62118319332E+02  0.00000000000E+00 0. -1.
<scales pt_clust_5="13000.00000" pt_clust_6="13000.00000" pt_clust_7="13000.00000" pt_clust_8="13000.00000" pt_clust_9="29.32585"></scales>
<clustering>
<clus scale="   29.326">  2  9  1 -1</clus>
<clus scale="   90.821">  5  6 -1 -1</clus>
<clus scale="   93.185">  7  8 -1 -1</clus>
<clus scale="  146.066">  1  5  2 -1</clus>
<clus scale="   29.326">  2  5  1 -1</clus>
</clustering>
</event>
<event>
 9    1  0.1445593E-005  0.1452105E+03  0.7546771E-02  0.1225707E+00
          2   -1    0    0  502    0 -0.00000000000E+00  0.00000000000E+00  0.49809946613E+03  0.49809946613E+03  0.00000000000E+00 0. -1.
         21   -1    0    0  501  502  0.00000000000E+00 -0.00000000000E+00 -0.11645973818E+03  0.11645973818E+03  0.00000000000E+00 0. -1.
         23    2    1    2    0    0  0.13678591440E+01  0.26632842264E+02  0.33528988213E+02  0.10237351847E+03  0.92978303425E+02 0.  0.
         23    2    1    2    0    0 -0.11030841984E+03 -0.47439197320E+01  0.37137135486E+03  0.39865935889E+03  0.93926295332E+02 0.  0.
        -11    1    3    3    0    0  0.46714588686E+02  0.86552671805E+01  0.21406102054E+02  0.52109381605E+02  0.00000000000E+00 0.  1.
         11    1    3    3    0    0 -0.45346729542E+02  0.17977575083E+02  0.12122886160E+02  0.50264136866E+02  0.00000000000E+00 0. -1.
        -13    1    4    4    0    0 -0.57595494322E+02  0.21087913126E+02  0.76751558622E+02  0.98248373000E+02  0.00000000000E+00 0. -1.
         13    1    4    4    0    0 -0.52712925516E+02 -0.25831832858E+02  0.29461979624E+03  0.30041098589E+03  0.00000000000E+00 0.  1.
          2    1    1    2  501    0  0.10894056069E+03 -0.21888922532E+02 -0.23260615124E+02  0.11352632695E+03  0.00000000000E+00 0. -1.
<scales pt_clust_5="13000.00000" pt_clust_6="13000.00000" pt_clust_7="13000.00000" pt_clust_8="13000.00000" pt_clust_9="110.74266"></scales>
<clustering>
<clus scale="   92.978">  5  6 -1 -1</clus>
<clus scale="   93.926">  7  8 -1 -1</clus>
<clus scale="   96.727">  1  5  2 -1</clus>
<clus scale="  110.743">  2  9  1 -1</clus>
<clus scale="  110.743">  2  5  1 -1</clus>
</clustering>
</event>
<event>
 9    1  0.1445593E-005  0.1081525E+03  0.7546771E-02  0.1267021E+00
         -1   -1    0    0    0  501 -0.00000000000E+00  0.00000000000E+00  0.15541316085E+03  0.15541316085E+03  0.00000000000E+00 0.  1.
         21   -1    0    0  501  502  0.00000000000E+00 -0.00000000000E+00 -0.28350169364E+03  0.28350169364E+03  0.00000000000E+00 0.  1.
         23    2    1    2    0    0  0.11895938995E+01 -0.54013885138E+02  0.11392682636E+03  0.15823385675E+03  0.95601865752E+02 0.  0.
         23    2    1    2    0    0 -0.51487395005E+01  0.31617333804E+02 -0.10213424727E+03  0.13896294736E+03  0.88617892991E+02 0.  0.
        -13    1    4    4    0    0  0.35594650552E+02  0.33713594954E+01 -0.73440167527E+02  0.81681108092E+02  0.00000000000E+00 0.  1.
         13    1    4    4    0    0 -0.40743390052E+02  0.28245974308E+02 -0.28694079743E+02  0.57281839268E+02  0.00000000000E+00 0. -1.
        -13    1    3    3    0    0  0.46873604456E+02 -0.24270770600E+02  0.72917928698E+02  0.90017939467E+02  0.00000000000E+00 0. -1.
         13    1    3    3    0    0 -0.45684010557E+02 -0.29743114538E+02  0.41008897663E+02  0.68215917281E+02  0.00000000000E+00 0.  1.
         -1    1    1    2    0  502  0.39591456010E+01  0.22396551334E+02 -0.13988111188E+03  0.14171805039E+03  0.00000000000E+00 0.  1.
<scales pt_clust_5="13000.00000" pt_clust_6="13000.00000" pt_clust_7="13000.00000" pt_clust_8="13000.00000" pt_clust_9="22.74380"></scales>
<clustering>
<clus scale="   22.744">  2  9  1 -1</clus>
<clus scale="   88.618">  5  6 -1 -1</clus>
<clus scale="   95.602">  7  8 -1 -1</clus>
<clus scale="  102.031">  2  5  1 -1</clus>
<clus scale="   22.744">  2  5  1 -1</clus>
</clustering>
</event>
<event>
 9    1  0.1445593E-005  0.1266875E+03  0.7546771E-02  0.1236992E+00
          2   -1    0    0  502    0 -0.00000000000E+00  0.00000000000E+00  0.11475058868E+03  0.11475058868E+03  0.00000000000E+00 0. -1.
         21   -1    0    0  501  502  0.00000000000E+00 -0.00000000000E+00 -0.28124854121E+03  0.28124854121E+03  0.00000000000E+00 0.  1.
         23    2    1    2    0    0  0.51949798762E+02 -0.50523436480E+02  0.86954455489E+01  0.10478234274E+03  0.75181974908E+02 0.  0.
         23    2    1    2    0    0 -0.99525041721E+02  0.74384448842E+02 -0.62320402724E+02  0.16642470113E+03  0.91515399742E+02 0.  0.
        -11    1    4    4    0    0 -0.13897416703E+02  0.47250584154E+02  0.11011879037E+02  0.50467983651E+02  0.00000000000E+00 0.  1.
         11    1    4    4    0    0 -0.85627625018E+02  0.27133864689E+02 -0.73332281761E+02  0.11595671747E+03  0.00000000000E+00 0. -1.
        -13    1    3    3    0    0  0.43025235295E+02  0.92245258277E+01  0.42686948980E+01  0.44209552193E+02  0.00000000000E+00 0.  1.
         13    1    3    3    0    0  0.89245634668E+01 -0.59747962308E+02  0.44267506509E+01  0.60572790544E+02  0.00000000000E+00 0. -1.
          2    1    1    2  501    0  0.47575242959E+02 -0.23861012362E+02 -0.11287299535E+03  0.12479208602E+03  0.00000000000E+00 0. -1.
<scales pt_clust_5="13000.00000" pt_clust_6="13000.00000" pt_clust_7="13000.00000" pt_clust_8="13000.00000" pt_clust_9="53.22360"></scales>
<clustering>
<clus scale="   53.224">  2  9  1 -1</clus>
<clus scale="   75.182">  7  8 -1 -1</clus>
<clus scale="   91.515">  5  6 -1 -1</clus>
<clus scale="  115.443">  1  7  2 -1</clus>
<clus scale="   53.224">  2  5  1 -1</clus>
</clustering>
</event>
<event>
 9    1  0.1445593E-005  0.9878718E+02  0.7546771E-02  0.1282999E+00
         -1   -1    0    0    0  501 -0.00000000000E+00  0.00000000000E+00  0.59414032247E+02  0.59414032247E+02  0.00000000000E+00 0.  1.
         21   -1    0    0  501  502  0.00000000000E+00 -0.00000000000E+00 -0.35411080136E+03  0.35411080136E+03  0.00000000000E+00 0.  1.
         23    2    1    2    0    0  0.38174284233E+02 -0.27898081837E+02 -0.87757295582E+02  0.13559666739E+03  0.91921348624E+02 0.  0.
         23    2    1    2    0    0 -0.29928794143E+02 -0.28848632805E+02 -0.19487693675E+03  0.21933053381E+03  0.91656348674E+02 0.  0.
        -11    1    4    4    0    0  0.13060174431E+02  0.17305087076E+02 -0.97832422456E+01  0.23785416198E+02  0.00000000000E+00 0.  1.
         11    1    4    4    0    0 -0.42988968573E+02 -0.46153719881E+02 -0.18509369450E+03  0.19554511762E+03  0.00000000000E+00 0. -1.
        -13    1    3    3    0    0  0.53771878311E+02  0.13820911460E+01 -0.87152993000E+02  0.10241566903E+03  0.00000000000E+00 0.  1.
         13    1    3    3    0    0 -0.15597594078E+02 -0.29280172983E+02 -0.60430258220E+00  0.33180998366E+02  0.00000000000E+00 0. -1.
         -1    1    1    2    0  502 -0.82454900903E+01  0.56746714642E+02 -0.12062536780E+02  0.58597632401E+02  0.00000000000E+00 0.  1.
<scales pt_clust_5="13000.00000" pt_clust_6="13000.00000" pt_clust_7="13000.00000" pt_clust_8="13000.00000" pt_clust_9="57.34266"></scales>
<clustering>
<clus scale="   57.343">  2  9  1 -1</clus>
<clus scale="   91.656">  5  6 -1 -1</clus>
<clus scale="   91.921">  7  8 -1 -1</clus>
<clus scale="   98.541">  2  5  1 -1</clus>
<clus scale="   57.343">  2  5  1 -1</clus>
</clustering>
</event>
<event>
 9    1  0.1445593E-005  0.1006125E+03  0.7546771E-02  0.1279796E+00
         21   -1    0    0  501  502  0.00000000000E+00  0.00000000000E+00  0.20355819974E+03  0.20355819974E+03  0.00000000000E+00 0. -1.
          1   -1    0    0  502    0 -0.00000000000E+00 -0.00000000000E+00 -0.38581127201E+03  0.38581127201E+03  0.00000000000E+00 0. -1.
         23    2    1    2    0    0 -0.49884980115E+02 -0.15109816262E+02 -0.28004099472E+03  0.29822716998E+03  0.88315731340E+02 0.  0.
         23    2    1    2    0    0  0.26797842200E+02  0.43744473139E+01 -0.72660834938E+02  0.11880239641E+03  0.89984178179E+02 0.  0.
        -11    1    3    3    0    0 -0.60962277079E+02  0.18440336129E+02 -0.21467335071E+03  0.22392206843E+03  0.00000000000E+00 0. -1.
         11    1    3    3    0    0  0.11077296964E+02 -0.33550152391E+02 -0.65367644004E+02  0.74305101548E+02  0.00000000000E+00 0.  1.
        -13    1    4    4    0    0  0.48522326123E+02  0.27213615746E+02 -0.23474402362E+02  0.60382485711E+02  0.00000000000E+00 0.  1.
         13    1    4    4    0    0 -0.21724483922E+02 -0.22839168432E+02 -0.49186432576E+02  0.58419910698E+02  0.00000000000E+00 0. -1.
          1    1    1    2  501    0  0.23087137915E+02  0.10735368948E+02  0.17044875739E+03  0.17233990536E+03  0.00000000000E+00 0. -1.
<scales pt_clust_5="13000.00000" pt_clust_6="13000.00000" pt_clust_7="13000.00000" pt_clust_8="13000.00000" pt_clust_9="25.46103"></scales>
<clustering>
<clus scale="   25.461">  1  9  2 -1</clus>
<clus scale="   88.316">  5  6 -1 -1</clus>
<clus scale="   89.984">  7  8 -1 -1</clus>
<clus scale="   99.123">  2  5  1 -1</clus>
<clus scale="   25.461">  1  5  2 -1</clus>
</clustering>
</event>
<event>
 9    1  0.1445593E-005  0.9961726E+02  0.7546771E-02  0.1281734E+00
         21   -1    0    0  501  502  0.00000000000E+00  0.00000000000E+00  0.36245237239E+02  0.36245237239E+02  0.00000000000E+00 0.  1.
          3   -1    0    0  502    0 -0.00000000000E+00 -0.00000000000E+00 -0.39303493071E+03  0.39303493071E+03  0.00000000000E+00 0. -1.
         23    2    1    2    0    0  0.32080439353E+01 -0.37801749792E+02 -0.18406906642E+03  0.20833652802E+03  0.89907863175E+02 0.  0.
         23    2    1    2    0    0  0.24164792781E+02  0.40545006443E+02 -0.16116958285E+03  0.19110701363E+03  0.91205380679E+02 0.  0.
        -13    1    4    4    0    0 -0.25461328827E+02 -0.38372019666E+01 -0.90173775044E+02  0.93777998967E+02  0.00000000000E+00 0. -1.
         13    1    4    4    0    0  0.49626121608E+02  0.44382208410E+02 -0.70995807807E+02  0.97329014663E+02  0.00000000000E+00 0.  1.
        -13    1    3    3    0    0 -0.30574138238E+02  0.15651282306E+02 -0.63948220824E+02  0.72588673451E+02  0.00000000000E+00 0. -1.
         13    1    3    3    0    0  0.33782182173E+02 -0.53453032098E+02 -0.12012084560E+03  0.13574785457E+03  0.00000000000E+00 0.  1.
          3    1    1    2  501    0 -0.27372836717E+02 -0.27432566512E+01 -0.11551044201E+02  0.29836626302E+02  0.00000000000E+00 0. -1.
<scales pt_clust_5="13000.00000" pt_clust_6="13000.00000" pt_clust_7="13000.00000" pt_clust_8="13000.00000" pt_clust_9="27.50996"></scales>
<clustering>
<clus scale="   27.510">  1  9  2 -1</clus>
<clus scale="   89.908">  7  8 -1 -1</clus>
<clus scale="   91.205">  5  6 -1 -1</clus>
<clus scale="   98.431">  2  7  1 -1</clus>
<clus scale="   27.510">  1  5  2 -1</clus>
</clustering>
</event>
<event>
 9    1  0.1445593E-005  0.2522969E+03  0.7546771E-02  0.1111878E+00
          2   -1    0    0  502    0 -0.00000000000E+00  0.00000000000E+00  0.45128822005E+03  0.45128822005E+03  0.00000000000E+00 0. -1.
         21   -1    0    0  501  502  0.00000000000E+00 -0.00000000000E+00 -0.18239200226E+03  0.18239200226E+03  0.00000000000E+00 0. -1.
         23    2    1    2    0    0 -0.24245603003E+03 -0.30402965466E+02  0.21803561460E+03  0.33970800081E+03  0.90292467967E+02 0.  0.
         23    2    1    2    0    0  0.22215035605E+03  0.19727738045E+02  0.82874328413E+02  0.25458745948E+03  0.90590594839E+02 0.  0.
        -13    1    4    4    0    0  0.16577048553E+03  0.46048597256E+02  0.85886138969E+02  0.19229341135E+03  0.00000000000E+00 0. -1.
         13    1    4    4    0    0  0.56379870523E+02 -0.26320859211E+02 -0.30118105562E+01  0.62294048132E+02  0.00000000000E+00 0.  1.
        -13    1    3    3    0    0 -0.26661002296E+02 -0.22036568474E+02  0.26314633137E+01  0.34689248950E+02  0.00000000000E+00 0.  1.
         13    1    3    3    0    0 -0.21579502774E+03 -0.83663969926E+01  0.21540415129E+03  0.30501875186E+03  0.00000000000E+00 0. -1.
          2    1    1    2  501    0  0.20305673978E+02  0.10675227421E+02 -0.32013725225E+02  0.39384762015E+02  0.00000000000E+00 0. -1.
<scales pt_clust_5="13000.00000" pt_clust_6="13000.00000" pt_clust_7="13000.00000" pt_clust_8="13000.00000" pt_clust_9="22.94081"></scales>
<clustering>
<clus scale="   22.941">  2  9  1 -1</clus>
<clus scale="   90.292">  7  8 -1 -1</clus>
<clus scale="   90.591">  5  6 -1 -1</clus>
<clus scale="  252.190">  1  7  2 -1</clus>
<clus scale="   22.941">  2  5  1 -1</clus>
</clustering>
</event>
<event>
 9    1  0.1445593E-005  0.1002019E+03  0.7546771E-02  0.1280153E+00
         21   -1    0    0  501  502  0.00000000000E+00  0.00000000000E+00  0.69186937613E+02  0.69186937613E+02  0.00000000000E+00 0. -1.
         -1   -1    0    0    0  501 -0.00000000000E+00 -0.00000000000E+00 -0.25540236133E+03  0.25540236133E+03  0.00000000000E+00 0.  1.
         23    2    1    2    0    0  0.32957019401E+02  0.83973229964E+00 -0.11366131412E+03  0.14973991193E+03  0.91740267160E+02 0.  0.
         23    2    1    2    0    0 -0.47412599502E+02 -0.19036087815E+02 -0.95954416959E+02  0.14186991560E+03  0.91156434695E+02 0.  0.
        -11    1    3    3    0    0  0.14796156500E+02  0.32912001297E+02 -0.10616259143E+03  0.11212770351E+03  0.00000000000E+00 0.  1.
         11    1    3    3    0    0  0.18160862900E+02 -0.32072268997E+02 -0.74987226952E+01  0.37612208417E+02  0.00000000000E+00 0. -1.
        -11    1    4    4    0    0 -0.48856361686E+02 -0.47948925054E+02 -0.41099485369E+02  0.79844919617E+02  0.00000000000E+00 0.  1.
         11    1    4    4    0    0  0.14437621841E+01  0.28912837239E+02 -0.54854931590E+02  0.62024995979E+02  0.00000000000E+00 0. -1.
         -1    1    1    2    0  502  0.14455580101E+02  0.18196355516E+02  0.23400307365E+02  0.32979471416E+02  0.00000000000E+00 0.  1.
<scales pt_clust_5="13000.00000" pt_clust_6="13000.00000" pt_clust_7="13000.00000" pt_clust_8="13000.00000" pt_clust_9="23.23943"></scales>
<clustering>
<clus scale="   23.239">  1  9  2 -1</clus>
<clus scale="   91.156">  7  8 -1 -1</clus>
<clus scale="   91.740">  5  6 -1 -1</clus>
<clus scale="   99.668">  1  7  2 -1</clus>
<clus scale="   23.239">  1  5  2 -1</clus>
</clustering>
</event>
<event>
 9    1  0.1445593E-005  0.9796033E+02  0.7546771E-02  0.1286333E+00
          1   -1    0    0  502    0 -0.00000000000E+00  0.00000000000E+00  0.16022890527E+03  0.16022890527E+03  0.00000000000E+00 0. -1.
         21   -1    0    0  501  502  0.00000000000E+00 -0.00000000000E+00 -0.30130398339E+03  0.30130398339E+03  0.00000000000E+00 0. -1.
         23    2    1    2    0    0 -0.11808635003E+02  0.30034189482E+02  0.74665165599E+02  0.12266064723E+03  0.91810952651E+02 0.  0.
         23    2    1    2    0    0 -0.76384581754E+02 -0.41054993971E+02 -0.22195996091E+02  0.12589600472E+03  0.88526972732E+02 0.  0.
        -13    1    3    3    0    0  0.24650891378E+02  0.19701922327E+02 -0.72727190949E+01  0.32384018159E+02  0.00000000000E+00 0.  1.
         13    1    3    3    0    0 -0.36459526380E+02  0.10332267156E+02  0.81937884694E+02  0.90276629072E+02  0.00000000000E+00 0. -1.
        -13    1    4    4    0    0 -0.74132003846E+02  0.49348414825E+01  0.10764986117E+01  0.74303872738E+02  0.00000000000E+00 0. -1.
         13    1    4    4    0    0 -0.22525779079E+01 -0.45989835453E+02 -0.23272494702E+02  0.51592131977E+02  0.00000000000E+00 0.  1.
          1    1    1    2  501    0  0.88193216757E+02  0.11020804488E+02 -0.19354424763E+03  0.21297623672E+03  0.00000000000E+00 0. -1.
<scales pt_clust_5="13000.00000" pt_clust_6="13000.00000" pt_clust_7="13000.00000" pt_clust_8="13000.00000" pt_clust_9="88.87914"></scales>
<clustering>
<clus scale="   88.527">  7  8 -1 -1</clus>
<clus scale="   88.879">  2  9  1 -1</clus>
<clus scale="   91.811">  5  6 -1 -1</clus>
<clus scale="   94.889">  2  7  1 -1</clus>
<clus scale="   88.879">  2  5  1 -1</clus>
</clustering>
</event>
<event>
 9    1  0.1445593E-005  0.1752907E+03  0.7546771E-02  0.1173403E+00
         -3   -1    0    0    0  501 -0.00000000000E+00  0.00000000000E+00  0.36037106168E+03  0.36037106168E+03  0.00000000000E+00 0.  1.
         21   -1    0    0  501  502  0.00000000000E+00 -0.00000000000E+00 -0.21760341823E+03  0.21760341823E+03  0.00000000000E+00 0.  1.
         23    2    1    2    0    0  0.51145590713E+02 -0.15668998909E+03  0.24503775073E+03  0.30772612739E+03  0.86511537184E+02 0.  0.
         23    2    1    2    0    0 -0.21288200796E+02  0.10987605874E+03  0.85571560816E+01  0.14628993162E+03  0.93816754352E+02 0.  0.
        -11    1    4    4    0    0 -0.55071431823E+02  0.84910777614E+02 -0.71120850802E+01  0.10145582542E+03  0.00000000000E+00 0.  1.
         11    1    4    4    0    0  0.33783231027E+02  0.24965281126E+02  0.15669241162E+02  0.44834106202E+02  0.00000000000E+00 0. -1.
        -13    1    3    3    0    0  0.31701283472E+02 -0.13697183802E+03  0.24198923373E+03  0.27986611982E+03  0.00000000000E+00 0.  1.
         13    1    3    3    0    0  0.19444307241E+02 -0.19718151076E+02  0.30485170006E+01  0.27860007570E+02  0.00000000000E+00 0. -1.
         -3    1    1    2    0  502 -0.29857389917E+02  0.46813930352E+02 -0.11082726336E+03  0.12395842090E+03  0.00000000000E+00 0.  1.
<scales pt_clust_5="13000.00000" pt_clust_6="13000.00000" pt_clust_7="13000.00000" pt_clust_8="13000.00000" pt_clust_9="55.52484"></scales>
<clustering>
<clus scale="   55.525">  2  9  1 -1</clus>
<clus scale="   86.512">  7  8 -1 -1</clus>
<clus scale="   93.817">  5  6 -1 -1</clus>
<clus scale="  171.492">  1  7  2 -1</clus>
<clus scale="   55.525">  2  5  1 -1</clus>
</clustering>
</event>
<event>
 9    1  0.1445593E-005  0.1539436E+03  0.7546771E-02  0.1218889E+00
         -1   -1    0    0    0  501 -0.00000000000E+00  0.00000000000E+00  0.10834985365E+03  0.10834985365E+03  0.00000000000E+00 0.  1.
         21   -1    0    0  501  502  0.00000000000E+00 -0.00000000000E+00 -0.69849600149E+03  0.69849600149E+03  0.00000000000E+00 0.  1.
         23    2    1    2    0    0 -0.59374151762E+01  0.89084633374E+01 -0.22725563484E+03  0.24578607385E+03  0.93011058020E+02 0.  0.
         23    2    1    2    0    0 -0.10174570640E+03 -0.77381127630E+02  0.21874910564E+02  0.15568515012E+03  0.86135512832E+02 0.  0.
        -11    1    3    3    0    0 -0.27527767667E+02 -0.35038509619E+02 -0.11402750588E+03  0.12242445526E+03  0.00000000000E+00 0.  1.
         11    1    3    3    0    0  0.21590352491E+02  0.43946972957E+02 -0.11322812896E+03  0.12336161859E+03  0.00000000000E+00 0. -1.
        -11    1    4    4    0    0 -0.77006961284E+02 -0.92397091832E+02  0.14940812247E+01  0.12028934676E+03  0.00000000000E+00 0.  1.
         11    1    4    4    0    0 -0.24738745117E+02  0.15015964202E+02  0.20380829339E+02  0.35395803359E+02  0.00000000000E+00 0. -1.
         -1    1    1    2    0  502  0.10768312158E+03  0.68472664293E+02 -0.38476542356E+03  0.40537463117E+03  0.00000000000E+00 0.  1.
<scales pt_clust_5="13000.00000" pt_clust_6="13000.00000" pt_clust_7="13000.00000" pt_clust_8="13000.00000" pt_clust_9="127.59032"></scales>
<clustering>
<clus scale="   86.136">  7  8 -1 -1</clus>
<clus scale="   93.011">  5  6 -1 -1</clus>
<clus scale="   93.625">  1  5  2 -1</clus>
<clus scale="  127.590">  2  9  1 -1</clus>
<clus scale="  127.590">  2  5  1 -1</clus>
</clustering>
</event>
<event>
 9    1  0.1445593E-005  0.1005485E+03  0.7546771E-02  0.1280715E+00
         21   -1    0    0  501  502  0.00000000000E+00  0.00000000000E+00  0.23632172133E+03  0.23632172133E+03  0.00000000000E+00 0.  1.
          3   -1    0    0  502    0 -0.00000000000E+00 -0.00000000000E+00 -0.10673357452E+03  0.10673357452E+03  0.00000000000E+00 0. -1.
         23    2    1    2    0    0 -0.45557757681E+02 -0.45206410748E+01 -0.54412004278E+02  0.11394031885E+03  0.89026875542E+02 0.  0.
         23    2    1    2    0    0  0.51471911054E+02 -0.15516516507E+02  0.98801891503E+02  0.14139264045E+03  0.85673479536E+02 0.  0.
        -11    1    4    4    0    0  0.57262707259E+02 -0.37749022770E+02  0.96377994085E+02  0.11829084540E+03  0.00000000000E+00 0.  1.
         11    1    4    4    0    0 -0.57907962051E+01  0.22232506264E+02  0.24238974186E+01  0.23101795042E+02  0.00000000000E+00 0. -1.
        -11    1    3    3    0    0 -0.21922362544E+02 -0.34926607077E+02  0.66287839884E+01  0.41765998594E+02  0.00000000000E+00 0.  1.
         11    1    3    3    0    0 -0.23635395137E+02  0.30405966002E+02 -0.61040788267E+02  0.72174320253E+02  0.00000000000E+00 0. -1.
          3    1    1    2  501    0 -0.59141533725E+01  0.20037157581E+02  0.85198259589E+02  0.87722336557E+02  0.00000000000E+00 0. -1.
<scales pt_clust_5="13000.00000" pt_clust_6="13000.00000" pt_clust_7="13000.00000" pt_clust_8="13000.00000" pt_clust_9="20.89174"></scales>
<clustering>
<clus scale="   20.892">  1  9  2 -1</clus>
<clus scale="   85.673">  5  6 -1 -1</clus>
<clus scale="   89.027">  7  8 -1 -1</clus>
<clus scale="   97.592">  1  5  2 -1</clus>
<clus scale="   20.892">  1  5  2 -1</clus>
</clustering>
</event>
<event>
 9    1  0.1445593E-005  0.1274448E+03  0.7546771E-02  0.1237678E+00
          2   -1    0    0  502    0 -0.00000000000E+00  0.00000000000E+00  0.65808379269E+03  0.65808379269E+03  0.00000000000E+00 0. -1.
         21   -1    0    0  501  502  0.00000000000E+00 -0.00000000000E+00 -0.57829031559E+02  0.57829031559E+02  0.00000000000E+00 0. -1.
         23    2    1    2    0    0 -0.48059103094E+02 -0.68774930067E+02  0.43267381579E+03  0.44996811254E+03  0.90691802472E+02 0.  0.
         23    2    1    2    0    0  0.25008557696E+02  0.18357835589E+02  0.17634780742E+03  0.20981923684E+03  0.10937607088E+03 0.  0.
        -11    1    4    4    0    0  0.45468334641E+02 -0.32849544078E+02  0.67216504886E+02  0.87547247416E+02  0.00000000000E+00 0.  1.
         11    1    4    4    0    0 -0.20459776945E+02  0.51207379667E+02  0.10913130253E+03  0.12227198942E+03  0.00000000000E+00 0. -1.
        -13    1    3    3    0    0  0.24481781933E+02 -0.35716048384E+02  0.17274288402E+03  0.17808733177E+03  0.00000000000E+00 0.  1.
         13    1    3    3    0    0 -0.72540885027E+02 -0.33058881682E+02  0.25993093177E+03  0.27188078077E+03  0.00000000000E+00 0. -1.
          2    1    1    2  501    0  0.23050545398E+02  0.50417094477E+02 -0.87668620772E+01  0.56125474870E+02  0.00000000000E+00 0. -1.
<scales pt_clust_5="13000.00000" pt_clust_6="13000.00000" pt_clust_7="13000.00000" pt_clust_8="13000.00000" pt_clust_9="55.43655"></scales>
<clustering>
<clus scale="   55.437">  2  9  1 -1</clus>
<clus scale="   90.692">  7  8 -1 -1</clus>
<clus scale="  109.376">  5  6 -1 -1</clus>
<clus scale="  111.822">  1  7  2 -1</clus>
<clus scale="   55.437">  2  5  1 -1</clus>
</clustering>
</event>
<event>
 9    1  0.1445593E-005  0.9907411E+02  0.7546771E-02  0.1282875E+00
         21   -1    0    0  501  502  0.00000000000E+00  0.00000000000E+00  0.59520816255E+02  0.59520816255E+02  0.00000000000E+00 0.  1.
          1   -1    0    0  502    0 -0.00000000000E+00 -0.00000000000E+00 -0.35136690844E+03  0.35136690844E+03  0.00000000000E+00 0. -1.
         23    2    1    2    0    0  0.71876906548E+01 -0.45875277486E+02 -0.15913094209E+03  0.18963398379E+03  0.92098789881E+02 0.  0.
         23    2    1    2    0    0 -0.48457360222E+02  0.14305441747E+01 -0.12202121099E+03  0.15966737651E+03  0.90853359734E+02 0.  0.
        -11    1    3    3    0    0  0.30420028407E+01  0.24426510930E+02 -0.13997451579E+02  0.28316724178E+02  0.00000000000E+00 0. -1.
         11    1    3    3    0    0  0.41456878141E+01 -0.70301788416E+02 -0.14513349051E+03  0.16131725961E+03  0.00000000000E+00 0.  1.
        -11    1    4    4    0    0 -0.62506945840E+02 -0.13926887551E+02 -0.41057603406E+02  0.76071040959E+02  0.00000000000E+00 0.  1.
         11    1    4    4    0    0  0.14049585618E+02  0.15357431726E+02 -0.80963607582E+02  0.83596335553E+02  0.00000000000E+00 0. -1.
          1    1    1    2  501    0  0.41269669568E+02  0.44444733311E+02 -0.10693939109E+02  0.61586364392E+02  0.00000000000E+00 0. -1.
<scales pt_clust_5="13000.00000" pt_clust_6="13000.00000" pt_clust_7="13000.00000" pt_clust_8="13000.00000" pt_clust_9="60.65080"></scales>
<clustering>
<clus scale="   60.651">  1  9  2 -1</clus>
<clus scale="   90.853">  7  8 -1 -1</clus>
<clus scale="   92.099">  5  6 -1 -1</clus>
<clus scale="   97.917">  1  7  2 -1</clus>
<clus scale="   60.651">  1  5  2 -1</clus>
</clustering>
</event>
<event>
 9    1  0.1445593E-005  0.1916319E+03  0.7546771E-02  0.1157019E+00
          2   -1    0    0  502    0 -0.00000000000E+00  0.00000000000E+00  0.44336079068E+03  0.44336079068E+03  0.00000000000E+00 0. -1.
         21   -1    0    0  501  502  0.00000000000E+00 -0.00000000000E+00 -0.16083730477E+03  0.16083730477E+03  0.00000000000E+00 0. -1.
         23    2    1    2    0    0 -0.98497707638E+01  0.17847599037E+03  0.15471842223E+03  0.25386216123E+03  0.92506808413E+02 0.  0.
         23    2    1    2    0    0  0.51883951378E+02 -0.13989373678E+03 -0.34044762161E+02  0.17872349658E+03  0.92308398317E+02 0.  0.
        -11    1    4    4    0    0  0.53292049866E+02 -0.11607752885E+03 -0.61993959994E+02  0.14197635845E+03  0.00000000000E+00 0. -1.
         11    1    4    4    0    0 -0.14080984883E+01 -0.23816207930E+02  0.27949197834E+02  0.36747138134E+02  0.00000000000E+00 0.  1.
        -11    1    3    3    0    0 -0.40964232096E+02  0.41833435266E+02  0.64906287412E+02  0.87412417671E+02  0.00000000000E+00 0. -1.
         11    1    3    3    0    0  0.31114461333E+02  0.13664255510E+03  0.89812134821E+02  0.16644974356E+03  0.00000000000E+00 0.  1.
          2    1    1    2  501    0 -0.42034180614E+02 -0.38582253592E+02  0.16184982583E+03  0.17161243764E+03  0.00000000000E+00 0. -1.
<scales pt_clust_5="13000.00000" pt_clust_6="13000.00000" pt_clust_7="13000.00000" pt_clust_8="13000.00000" pt_clust_9="57.05669"></scales>
<clustering>
<clus scale="   57.057">  2  9  1 -1</clus>
<clus scale="   92.308">  5  6 -1 -1</clus>
<clus scale="   92.507">  7  8 -1 -1</clus>
<clus scale="  191.536">  2  5  1 -1</clus>
<clus scale="   57.057">  2  5  1 -1</clus>
</clustering>
</event>
<event>
 9    1  0.1445593E-005  0.1377150E+03  0.7546771E-02  0.1217045E+00
         21   -1    0    0  501  502  0.00000000000E+00  0.00000000000E+00  0.11753609371E+03  0.11753609371E+03  0.00000000000E+00 0. -1.
         -3   -1    0    0    0  501 -0.00000000000E+00 -0.00000000000E+00 -0.41517197887E+03  0.41517197887E+03  0.00000000000E+00 0.  1.
         23    2    1    2    0    0  0.78338262060E+02 -0.67187587830E+02 -0.33952445250E+03  0.36611951897E+03  0.90086586498E+02 0.  0.
         23    2    1    2    0    0 -0.83060536437E+02  0.43938903734E+02  0.50519056897E+02  0.14134401881E+03  0.92716107381E+02 0.  0.
        -11    1    4    4    0    0 -0.23088908517E+02 -0.24834006693E+02  0.35095977164E+02  0.48801159802E+02  0.00000000000E+00 0.  1.
         11    1    4    4    0    0 -0.59971627921E+02  0.68772910427E+02  0.15423079733E+02  0.92542859004E+02  0.00000000000E+00 0. -1.
        -13    1    3    3    0    0  0.60627685315E+02 -0.11292771451E+02 -0.85527793742E+02  0.10544309563E+03  0.00000000000E+00 0. -1.
         13    1    3    3    0    0  0.17710576745E+02 -0.55894816380E+02 -0.25399665876E+03  0.26067642334E+03  0.00000000000E+00 0.  1.
         -3    1    1    2    0  502  0.47222743775E+01  0.23248684096E+02 -0.86304895586E+01  0.25244534805E+02  0.00000000000E+00 0.  1.
<scales pt_clust_5="13000.00000" pt_clust_6="13000.00000" pt_clust_7="13000.00000" pt_clust_8="13000.00000" pt_clust_9="23.72343"></scales>
<clustering>
<clus scale="   23.723">  1  9  2 -1</clus>
<clus scale="   90.087">  7  8 -1 -1</clus>
<clus scale="   92.716">  5  6 -1 -1</clus>
<clus scale="  135.959">  2  7  1 -1</clus>
<clus scale="   23.723">  1  5  2 -1</clus>
</clustering>
</event>
<event>
 9    1  0.1445593E-005  0.2133675E+03  0.7546771E-02  0.1138986E+00
         21   -1    0    0  501  502  0.00000000000E+00  0.00000000000E+00  0.28853162728E+03  0.28853162728E+03  0.00000000000E+00 0. -1.
          1   -1    0    0  502    0 -0.00000000000E+00 -0.00000000000E+00 -0.83591467897E+03  0.83591467897E+03  0.00000000000E+00 0. -1.
         23    2    1    2    0    0  0.18843450428E+03 -0.21325561564E+02 -0.63389796990E+03  0.66815390998E+03  0.92955199942E+02 0.  0.
         23    2    1    2    0    0 -0.19707734621E+03  0.48099030924E+02 -0.11640999523E+03  0.25142649409E+03  0.92255069097E+02 0.  0.
        -11    1    4    4    0    0 -0.14814312326E+02  0.16270921208E+02 -0.50380122959E+02  0.54976026739E+02  0.00000000000E+00 0. -1.
         11    1    4    4    0    0 -0.18226303389E+03  0.31828109715E+02 -0.66029872272E+02  0.19645046735E+03  0.00000000000E+00 0.  1.
        -13    1    3    3    0    0  0.18562478376E+03  0.26642289747E+01 -0.58242036032E+03  0.61129136636E+03  0.00000000000E+00 0. -1.
         13    1    3    3    0    0  0.28097205200E+01 -0.23989790538E+02 -0.51477609579E+02  0.56862543624E+02  0.00000000000E+00 0.  1.
          1    1    1    2  501    0  0.86428419327E+01 -0.26773469360E+02  0.20292491344E+03  0.20486590218E+03  0.00000000000E+00 0. -1.
<scales pt_clust_5="13000.00000" pt_clust_6="13000.00000" pt_clust_7="13000.00000" pt_clust_8="13000.00000" pt_clust_9="28.13392"></scales>
<clustering>
<clus scale="   28.134">  1  9  2 -1</clus>
<clus scale="   92.255">  5  6 -1 -1</clus>
<clus scale="   92.955">  7  8 -1 -1</clus>
<clus scale="  213.063">  1  5  2 -1</clus>
<clus scale="   28.134">  1  5  2 -1</clus>
</clustering>
</event>
<event>
 9    1  0.1445593E-005  0.9884244E+02  0.7546771E-02  0.1286588E+00
         -4   -1    0    0    0  501 -0.00000000000E+00  0.00000000000E+00  0.64354746472E+02  0.64354746472E+02  0.00000000000E+00 0.  1.
         21   -1    0    0  501  502  0.00000000000E+00 -0.00000000000E+00 -0.30930807906E+03  0.30930807906E+03  0.00000000000E+00 0.  1.
         23    2    1    2    0    0 -0.37510432733E+01 -0.45466016528E+02 -0.41104778141E+02  0.10220547992E+03  0.81701458713E+02 0.  0.
         23    2    1    2    0    0 -0.60492042593E+02  0.23518949767E+02 -0.11289863224E+03  0.15796401466E+03  0.89409734087E+02 0.  0.
        -11    1    4    4    0    0 -0.72097835330E+02  0.25823821508E+01 -0.42785695122E+02  0.83877185598E+02  0.00000000000E+00 0.  1.
         11    1    4    4    0    0  0.11605792737E+02  0.20936567616E+02 -0.70112937119E+02  0.74086829059E+02  0.00000000000E+00 0. -1.
        -13    1    3    3    0    0  0.34469180444E+01  0.23280352790E+02 -0.43984685789E+01  0.23941649815E+02  0.00000000000E+00 0. -1.
         13    1    3    3    0    0 -0.71979613177E+01 -0.68746369318E+02 -0.36706309563E+02  0.78263830109E+02  0.00000000000E+00 0.  1.
         -4    1    1    2    0  502  0.64243085866E+02  0.21947066762E+02 -0.90949922202E+02  0.11349333095E+03  0.00000000000E+00 0.  1.
<scales pt_clust_5="13000.00000" pt_clust_6="13000.00000" pt_clust_7="13000.00000" pt_clust_8="13000.00000" pt_clust_9="67.88850"></scales>
<clustering>
<clus scale="   67.888">  2  9  1 -1</clus>
<clus scale="   81.701">  7  8 -1 -1</clus>
<clus scale="   89.410">  5  6 -1 -1</clus>
<clus scale="   91.929">  1  7  2 -1</clus>
<clus scale="   67.888">  2  5  1 -1</clus>
</clustering>
</event>
<event>
 9    1  0.1445593E-005  0.1003888E+03  0.7546771E-02  0.1283921E+00
          1   -1    0    0  502    0 -0.00000000000E+00  0.00000000000E+00  0.14220206672E+03  0.14220206672E+03  0.00000000000E+00 0. -1.
         21   -1    0    0  501  502  0.00000000000E+00 -0.00000000000E+00 -0.91662882978E+02  0.91662882978E+02  0.00000000000E+00 0.  1.
         23    2    1    2    0    0  0.37915877615E+01  0.16164992442E+02  0.57790276976E+02  0.10774259865E+03  0.89403961502E+02 0.  0.
         23    2    1    2    0    0 -0.15405221887E+02 -0.33924534172E+02 -0.76941044301E+01  0.10489797640E+03  0.97755773897E+02 0.  0.
        -13    1    4    4    0    0 -0.12810215067E+02  0.29164875731E+02  0.18160069430E+02  0.36667147533E+02  0.00000000000E+00 0. -1.
         13    1    4    4    0    0 -0.25950068199E+01 -0.63089409903E+02 -0.25854173860E+02  0.68230828870E+02  0.00000000000E+00 0.  1.
        -13    1    3    3    0    0  0.35355704383E+01 -0.35820742590E+02  0.10576843170E+02  0.37516602584E+02  0.00000000000E+00 0.  1.
         13    1    3    3    0    0  0.25601732321E+00  0.51985735031E+02  0.47213433806E+02  0.70225996065E+02  0.00000000000E+00 0. -1.
          1    1    1    2  501    0  0.11613634126E+02  0.17759541730E+02  0.44301119250E+00  0.21224374643E+02  0.00000000000E+00 0. -1.
<scales pt_clust_5="13000.00000" pt_clust_6="13000.00000" pt_clust_7="13000.00000" pt_clust_8="13000.00000" pt_clust_9="21.21975"></scales>
<clustering>
<clus scale="   21.220">  2  9  1 -1</clus>
<clus scale="   89.404">  7  8 -1 -1</clus>
<clus scale="   92.276">  1  7  2 -1</clus>
<clus scale="   97.756">  5  6 -1 -1</clus>
<clus scale="   21.220">  2  5  1 -1</clus>
</clustering>
</event>
<event>
 9    1  0.1445593E-005  0.1066129E+03  0.7546771E-02  0.1267638E+00
          2   -1    0    0  502    0 -0.00000000000E+00  0.00000000000E+00  0.21767917836E+03  0.21767917836E+03  0.00000000000E+00 0. -1.
         21   -1    0    0  501  502  0.00000000000E+00 -0.00000000000E+00 -0.29140682366E+03  0.29140682366E+03  0.00000000000E+00 0. -1.
         23    2    1    2    0    0  0.23067675873E+01  0.44320978803E+02  0.10103209481E+03  0.14334179220E+03  0.91486145780E+02 0.  0.
         23    2    1    2    0    0 -0.31234423550E+02 -0.68556622202E+02  0.57371929032E+02  0.13056494307E+03  0.89889189876E+02 0.  0.
        -11    1    4    4    0    0 -0.52499332593E+02 -0.76267647899E+02  0.35686191938E+02  0.99229221169E+02  0.00000000000E+00 0.  1.
         11    1    4    4    0    0  0.21264909043E+02  0.77110256973E+01  0.21685737094E+02  0.31335721904E+02  0.00000000000E+00 0. -1.
        -11    1    3    3    0    0 -0.17950195149E+02  0.10195284224E+02  0.10157648065E+03  0.10365295339E+03  0.00000000000E+00 0.  1.
         11    1    3    3    0    0  0.20256962736E+02  0.34125694579E+02 -0.54438583534E+00  0.39688838805E+02  0.00000000000E+00 0. -1.
          2    1    1    2  501    0  0.28927655962E+02  0.24235643399E+02 -0.23213166915E+03  0.23517926675E+03  0.00000000000E+00 0. -1.
<scales pt_clust_5="13000.00000" pt_clust_6="13000.00000" pt_clust_7="13000.00000" pt_clust_8="13000.00000" pt_clust_9="37.73825"></scales>
<clustering>
<clus scale="   37.738">  2  9  1 -1</clus>
<clus scale="   89.889">  5  6 -1 -1</clus>
<clus scale="   91.486">  7  8 -1 -1</clus>
<clus scale="  105.246">  2  5  1 -1</clus>
<clus scale="   37.738">  2  5  1 -1</clus>
</clustering>
</event>
<event>
 9    1  0.1445593E-005  0.1044040E+03  0.7546771E-02  0.1272800E+00
         -3   -1    0    0    0  501 -0.00000000000E+00  0.00000000000E+00  0.79506698834E+02  0.79506698834E+02  0.00000000000E+00 0.  1.
         21   -1    0    0  501  502  0.00000000000E+00 -0.00000000000E+00 -0.22523459253E+03  0.22523459253E+03  0.00000000000E+00 0. -1.
         23    2    1    2    0    0  0.28297607153E+00  0.33525154618E+02 -0.13156409119E+02  0.98055196488E+02  0.91201504318E+02 0.  0.
         23    2    1    2    0    0 -0.13393567431E+02 -0.62495474116E+02 -0.63315342440E+02  0.13047861334E+03  0.94502719635E+02 0.  0.
        -11    1    4    4    0    0 -0.51284130597E+02 -0.48029676371E+02 -0.54627721657E+02  0.89000560879E+02  0.00000000000E+00 0. -1.
         11    1    4    4    0    0  0.37890563166E+02 -0.14465797746E+02 -0.86876207829E+01  0.41478052465E+02  0.00000000000E+00 0.  1.
        -13    1    3    3    0    0  0.32040069158E+02  0.44354831375E+02  0.12124913214E+02  0.56044006088E+02  0.00000000000E+00 0.  1.
         13    1    3    3    0    0 -0.31757093086E+02 -0.10829676757E+02 -0.25281322333E+02  0.42011190400E+02  0.00000000000E+00 0. -1.
         -3    1    1    2    0  502  0.13110591360E+02  0.28970319498E+02 -0.69256142142E+02  0.76207481536E+02  0.00000000000E+00 0.  1.
<scales pt_clust_5="13000.00000" pt_clust_6="13000.00000" pt_clust_7="13000.00000" pt_clust_8="13000.00000" pt_clust_9="31.79885"></scales>
<clustering>
<clus scale="   31.799">  2  9  1 -1</clus>
<clus scale="   91.202">  7  8 -1 -1</clus>
<clus scale="   94.503">  5  6 -1 -1</clus>
<clus scale="  101.426">  1  7  2 -1</clus>
<clus scale="   31.799">  2  5  1 -1</clus>
</clustering>
</event>
<event>
 9    1  0.1445593E-005  0.9836096E+02  0.7546771E-02  0.1285412E+00
         -1   -1    0    0    0  501 -0.00000000000E+00  0.00000000000E+00  0.30556520634E+03  0.30556520634E+03  0.00000000000E+00 0.  1.
         21   -1    0    0  501  502  0.00000000000E+00 -0.00000000000E+00 -0.50698258586E+02  0.50698258586E+02  0.00000000000E+00 0. -1.
         23    2    1    2    0    0 -0.24224247534E+02 -0.29193490064E+02  0.16069416886E+03  0.18745538905E+03  0.88757157170E+02 0.  0.
         23    2    1    2    0    0  0.32647654507E+02  0.99132666872E+01  0.10620800971E+03  0.14456910768E+03  0.91956203530E+02 0.  0.
        -11    1    4    4    0    0  0.56048315603E+02 -0.31767284865E+01  0.10333908277E+03  0.11760302426E+03  0.00000000000E+00 0.  1.
         11    1    4    4    0    0 -0.23400661096E+02  0.13089995174E+02  0.28689269338E+01  0.26966083422E+02  0.00000000000E+00 0. -1.
        -13    1    3    3    0    0  0.65226886679E+01 -0.51090337768E+02  0.55610295801E+02  0.75797579644E+02  0.00000000000E+00 0.  1.
         13    1    3    3    0    0 -0.30746936202E+02  0.21896847704E+02  0.10508387306E+03  0.11165780941E+03  0.00000000000E+00 0. -1.
         -1    1    1    2    0  502 -0.84234069734E+01  0.19280223377E+02 -0.12035230811E+02  0.24238968195E+02  0.00000000000E+00 0.  1.
<scales pt_clust_5="13000.00000" pt_clust_6="13000.00000" pt_clust_7="13000.00000" pt_clust_8="13000.00000" pt_clust_9="21.03998"></scales>
<clustering>
<clus scale="   21.040">  2  9  1 -1</clus>
<clus scale="   88.757">  7  8 -1 -1</clus>
<clus scale="   91.956">  5  6 -1 -1</clus>
<clus scale="   95.377">  1  7  2 -1</clus>
<clus scale="   21.040">  2  5  1 -1</clus>
</clustering>
</event>
<event>
 9    1  0.1445593E-005  0.2225896E+03  0.7546771E-02  0.1132512E+00
         21   -1    0    0  501  502  0.00000000000E+00  0.00000000000E+00  0.85032459988E+03  0.85032459988E+03  0.00000000000E+00 0.  1.
          2   -1    0    0  502    0 -0.00000000000E+00 -0.00000000000E+00 -0.88781635078E+02  0.88781635078E+02  0.00000000000E+00 0. -1.
         23    2    1    2    0    0 -0.15909114070E+03 -0.11607386274E+03  0.14575173682E+03  0.26566367994E+03  0.10271557521E+03 0.  0.
         23    2    1    2    0    0  0.17663205558E+03  0.71677121035E+02  0.54971030665E+03  0.59192297128E+03  0.10888016329E+03 0.  0.
        -11    1    4    4    0    0  0.11305367449E+03 -0.12140954900E+02  0.30765434674E+03  0.32799349562E+03  0.00000000000E+00 0.  1.
         11    1    4    4    0    0  0.63578381087E+02  0.83818075936E+02  0.24205595990E+03  0.26392947566E+03  0.00000000000E+00 0. -1.
        -11    1    3    3    0    0  0.24363051977E+00 -0.21019700353E+02  0.55490686935E+02  0.59338886873E+02  0.00000000000E+00 0. -1.
         11    1    3    3    0    0 -0.15933477122E+03 -0.95054162386E+02  0.90261049886E+02  0.20632479306E+03  0.00000000000E+00 0.  1.
          2    1    1    2  501    0 -0.17540914879E+02  0.44396741703E+02  0.66080921333E+02  0.81519583738E+02  0.00000000000E+00 0. -1.
<scales pt_clust_5="13000.00000" pt_clust_6="13000.00000" pt_clust_7="13000.00000" pt_clust_8="13000.00000" pt_clust_9="47.73632"></scales>
<clustering>
<clus scale="   47.736">  1  9  2 -1</clus>
<clus scale="  102.716">  7  8 -1 -1</clus>
<clus scale="  108.880">  5  6 -1 -1</clus>
<clus scale="  219.640">  2  7  1 -1</clus>
<clus scale="   47.736">  1  5  2 -1</clus>
</clustering>
</event>
<event>
 9    1  0.1445593E-005  0.9371196E+02  0.7546771E-02  0.1294542E+00
         21   -1    0    0  501  502  0.00000000000E+00  0.00000000000E+00  0.46544596794E+03  0.46544596794E+03  0.00000000000E+00 0.  1.
          2   -1    0    0  502    0 -0.00000000000E+00 -0.00000000000E+00 -0.82009254589E+02  0.82009254589E+02  0.00000000000E+00 0. -1.
         23    2    1    2    0    0  0.14017092189E+02 -0.21200523973E+02 -0.42924114539E+02  0.10254274893E+03  0.89591264412E+02 0.  0.
         23    2    1    2    0    0 -0.31553317174E+02 -0.30183922896E+00  0.27912422994E+03  0.29508428337E+03  0.90380836594E+02 0.  0.
        -13    1    3    3    0    0  0.28158345994E+02  0.10874191451E+01 -0.63239977197E+02  0.69234165304E+02  0.00000000000E+00 0. -1.
         13    1    3    3    0    0 -0.14141253805E+02 -0.22287943118E+02  0.20315862658E+02  0.33308583625E+02  0.00000000000E+00 0.  1.
        -13    1    4    4    0    0 -0.49578099441E+02 -0.23905268439E+02  0.23845945136E+03  0.24472915590E+03  0.00000000000E+00 0. -1.
         13    1    4    4    0    0  0.18024782267E+02  0.23603429210E+02  0.40664778578E+02  0.50355127475E+02  0.00000000000E+00 0.  1.
          2    1    1    2  501    0  0.17536224984E+02  0.21502363201E+02  0.14723659795E+03  0.14982819022E+03  0.00000000000E+00 0. -1.
<scales pt_clust_5="13000.00000" pt_clust_6="13000.00000" pt_clust_7="13000.00000" pt_clust_8="13000.00000" pt_clust_9="27.74655"></scales>
<clustering>
<clus scale="   27.747">  1  9  2 -1</clus>
<clus scale="   89.591">  5  6 -1 -1</clus>
<clus scale="   90.381">  7  8 -1 -1</clus>
<clus scale="   92.951">  2  5  1 -1</clus>
<clus scale="   27.747">  1  5  2 -1</clus>
</clustering>
</event>
<event>
 9    1  0.1445593E-005  0.1131667E+03  0.7546771E-02  0.1255436E+00
          1   -1    0    0  502    0 -0.00000000000E+00  0.00000000000E+00  0.22915785793E+03  0.22915785793E+03  0.00000000000E+00 0. -1.
         21   -1    0    0  501  502  0.00000000000E+00 -0.00000000000E+00 -0.15932121414E+03  0.15932121414E+03  0.00000000000E+00 0.  1.
         23    2    1    2    0    0  0.49437739699E+02 -0.27433129857E+02  0.78932118729E+02  0.13280887318E+03  0.90615951734E+02 0.  0.
         23    2    1    2    0    0 -0.65714383171E+02  0.90882107351E+02 -0.74374674129E+02  0.16319276535E+03  0.92316569038E+02 0.  0.
        -11    1    3    3    0    0  0.70518077912E+02 -0.18078735966E+02  0.81875361961E+02  0.10955918447E+03  0.00000000000E+00 0. -1.
         11    1    3    3    0    0 -0.21080338213E+02 -0.93543938918E+01 -0.29432432322E+01  0.23249688708E+02  0.00000000000E+00 0.  1.
        -13    1    4    4    0    0 -0.40851838686E+02  0.96379964420E+02 -0.24977612568E+02  0.10761901038E+03  0.00000000000E+00 0.  1.
         13    1    4    4    0    0 -0.24862544485E+02 -0.54978570693E+01 -0.49397061561E+02  0.55573754970E+02  0.00000000000E+00 0. -1.
          1    1    1    2  501    0  0.16276643472E+02 -0.63448977493E+02  0.65279199182E+02  0.92477433536E+02  0.00000000000E+00 0. -1.
<scales pt_clust_5="13000.00000" pt_clust_6="13000.00000" pt_clust_7="13000.00000" pt_clust_8="13000.00000" pt_clust_9="65.50348"></scales>
<clustering>
<clus scale="   65.503">  2  9  1 -1</clus>
<clus scale="   90.616">  5  6 -1 -1</clus>
<clus scale="   92.317">  7  8 -1 -1</clus>
<clus scale="  111.784">  1  5  2 -1</clus>
<clus scale="   65.503">  2  5  1 -1</clus>
</clustering>
</event>
<event>
 9    1  0.1445593E-005  0.9354981E+02  0.7546771E-02  0.1295031E+00
         21   -1    0    0  501  502  0.00000000000E+00  0.00000000000E+00  0.19425795858E+03  0.19425795858E+03  0.00000000000E+00 0.  1.
         -2   -1    0    0    0  501 -0.00000000000E+00 -0.00000000000E+00 -0.21205617951E+03  0.21205617951E+03  0.00000000000E+00 0.  1.
         23    2    1    2    0    0 -0.58682969056E+01  0.76974964118E+01 -0.11115802672E+03  0.14446253604E+03  0.91758536688E+02 0.  0.
         23    2    1    2    0    0  0.69362522823E+01 -0.33043768140E+02 -0.54970968363E+02  0.11136707599E+03  0.90778940531E+02 0.  0.
        -13    1    4    4    0    0  0.33239127230E+02 -0.51290660717E+01 -0.63698344758E+02  0.72032117994E+02  0.00000000000E+00 0.  1.
         13    1    4    4    0    0 -0.26302874948E+02 -0.27914702068E+02  0.87273763948E+01  0.39334957999E+02  0.00000000000E+00 0. -1.
        -13    1    3    3    0    0  0.24413950621E+02  0.13768971772E+02  0.10828711456E+01  0.28049922968E+02  0.00000000000E+00 0.  1.
         13    1    3    3    0    0 -0.30282247527E+02 -0.60714753597E+01 -0.11224089787E+03  0.11641261307E+03  0.00000000000E+00 0. -1.
         -2    1    1    2    0  502 -0.10679553767E+01  0.25346271728E+02  0.14833077416E+03  0.15048452605E+03  0.00000000000E+00 0.  1.
<scales pt_clust_5="13000.00000" pt_clust_6="13000.00000" pt_clust_7="13000.00000" pt_clust_8="13000.00000" pt_clust_9="25.36876"></scales>
<clustering>
<clus scale="   25.369">  1  9  2 -1</clus>
<clus scale="   90.779">  5  6 -1 -1</clus>
<clus scale="   91.759">  7  8 -1 -1</clus>
<clus scale="   92.589">  1  5  2 -1</clus>
<clus scale="   25.369">  1  5  2 -1</clus>
</clustering>
</event>
<event>
 9    1  0.1445593E-005  0.9121936E+02  0.7546771E-02  0.1300001E+00
         21   -1    0    0  501  502  0.00000000000E+00  0.00000000000E+00  0.14909972455E+03  0.14909972455E+03  0.00000000000E+00 0.  1.
          1   -1    0    0  502    0 -0.00000000000E+00 -0.00000000000E+00 -0.17116850985E+03  0.17116850985E+03  0.00000000000E+00 0. -1.
         23    2    1    2    0    0  0.54079149221E+00 -0.10094587924E+02 -0.13036223672E+03  0.15926091100E+03  0.90925969058E+02 0.  0.
         23    2    1    2    0    0  0.75956002268E+01 -0.14384788744E+02  0.93146505321E+02  0.13109293341E+03  0.90799066331E+02 0.  0.
        -11    1    3    3    0    0  0.45613561072E+02 -0.83839991455E+01 -0.66765191029E+02  0.81292552725E+02  0.00000000000E+00 0. -1.
         11    1    3    3    0    0 -0.45072769580E+02 -0.17105887785E+01 -0.63597045692E+02  0.77968358277E+02  0.00000000000E+00 0.  1.
        -13    1    4    4    0    0 -0.12188678510E+02 -0.48311503744E+02  0.68578252027E+02  0.84767575929E+02  0.00000000000E+00 0.  1.
         13    1    4    4    0    0  0.19784278737E+02  0.33926715000E+02  0.24568253294E+02  0.46325357481E+02  0.00000000000E+00 0. -1.
          1    1    1    2  501    0 -0.81363917190E+01  0.24479376668E+02  0.15146946100E+02  0.29914389989E+02  0.00000000000E+00 0. -1.
<scales pt_clust_5="13000.00000" pt_clust_6="13000.00000" pt_clust_7="13000.00000" pt_clust_8="13000.00000" pt_clust_9="25.79614"></scales>
<clustering>
<clus scale="   25.796">  1  9  2 -1</clus>
<clus scale="   90.799">  7  8 -1 -1</clus>
<clus scale="   90.926">  5  6 -1 -1</clus>
<clus scale="   91.093">  1  7  2 -1</clus>
<clus scale="   25.796">  1  5  2 -1</clus>
</clustering>
</event>
<event>
 9    1  0.1445593E-005  0.9792203E+02  0.7546771E-02  0.1285302E+00
         -3   -1    0    0    0  501 -0.00000000000E+00  0.00000000000E+00  0.27066561111E+02  0.27066561111E+02  0.00000000000E+00 0.  1.
         21   -1    0    0  501  502  0.00000000000E+00 -0.00000000000E+00 -0.56333102265E+03  0.56333102265E+03  0.00000000000E+00 0. -1.
         23    2    1    2    0    0  0.17078507115E+01 -0.24319516350E+02 -0.14026595498E+03  0.16961513076E+03  0.92197607496E+02 0.  0.
         23    2    1    2    0    0 -0.27276948654E+02  0.47049439078E+02 -0.32687564896E+03  0.34365659742E+03  0.91074065556E+02 0.  0.
        -11    1    4    4    0    0  0.88285561037E+01  0.61604495173E+02 -0.24810904905E+03  0.25579514743E+03  0.00000000000E+00 0. -1.
         11    1    4    4    0    0 -0.36105504758E+02 -0.14555056095E+02 -0.78766599917E+02  0.87861449989E+02  0.00000000000E+00 0.  1.
        -11    1    3    3    0    0  0.11389803221E+02  0.34195933908E+02 -0.54355758040E+02  0.65219919850E+02  0.00000000000E+00 0. -1.
         11    1    3    3    0    0 -0.96819525094E+01 -0.58515450258E+02 -0.85910196941E+02  0.10439521091E+03  0.00000000000E+00 0.  1.
         -3    1    1    2    0  502  0.25569097943E+02 -0.22729922727E+02 -0.69122857590E+02  0.77125855575E+02  0.00000000000E+00 0.  1.
<scales pt_clust_5="13000.00000" pt_clust_6="13000.00000" pt_clust_7="13000.00000" pt_clust_8="13000.00000" pt_clust_9="34.21154"></scales>
<clustering>
<clus scale="   34.212">  2  9  1 -1</clus>
<clus scale="   91.074">  5  6 -1 -1</clus>
<clus scale="   92.198">  7  8 -1 -1</clus>
<clus scale="   96.865">  2  5  1 -1</clus>
<clus scale="   34.212">  2  5  1 -1</clus>
</clustering>
</event>
<event>
 9    1  0.1445593E-005  0.1256752E+03  0.7546771E-02  0.1234195E+00
         21   -1    0    0  501  502  0.00000000000E+00  0.00000000000E+00  0.15167713702E+03  0.15167713702E+03  0.00000000000E+00 0.  1.
          1   -1    0    0  502    0 -0.00000000000E+00 -0.00000000000E+00 -0.52601948102E+03  0.52601948102E+03  0.00000000000E+00 0. -1.
         23    2    1    2    0    0 -0.70870621695E+02 -0.44228694815E+02 -0.24491952001E+03  0.27426647244E+03  0.90871910716E+02 0.  0.
         23    2    1    2    0    0  0.90124896049E+02  0.18117539617E+02 -0.24833805487E+03  0.28016883113E+03  0.91498865072E+02 0.  0.
        -11    1    4    4    0    0  0.77465001819E+02  0.37958630609E+02 -0.10974236349E+03  0.13958893398E+03  0.00000000000E+00 0.  1.
         11    1    4    4    0    0  0.12659894230E+02 -0.19841090992E+02 -0.13859569138E+03  0.14057989715E+03  0.00000000000E+00 0. -1.
        -13    1    3    3    0    0 -0.47951565453E+02 -0.82536159798E+01 -0.21902920712E+03  0.22436859936E+03  0.00000000000E+00 0.  1.
         13    1    3    3    0    0 -0.22919056242E+02 -0.35975078836E+02 -0.25890312887E+02  0.49897873078E+02  0.00000000000E+00 0. -1.
          1    1    1    2  501    0 -0.19254274354E+02  0.26111155199E+02  0.11891523089E+03  0.12326131446E+03  0.00000000000E+00 0. -1.
<scales pt_clust_5="13000.00000" pt_clust_6="13000.00000" pt_clust_7="13000.00000" pt_clust_8="13000.00000" pt_clust_9="32.44256"></scales>
<clustering>
<clus scale="   32.443">  1  9  2 -1</clus>
<clus scale="   90.872">  7  8 -1 -1</clus>
<clus scale="   91.499">  5  6 -1 -1</clus>
<clus scale="  125.219">  2  7  1 -1</clus>
<clus scale="   32.443">  1  5  2 -1</clus>
</clustering>
</event>
<event>
 9    1  0.1551113E-005  0.1704539E+03  0.7546771E-02  0.1190154E+00
         21   -1    0    0  501  502  0.00000000000E+00  0.00000000000E+00  0.21679788961E+03  0.21679788961E+03  0.00000000000E+00 0. -1.
          2   -1    0    0  502    0 -0.00000000000E+00 -0.00000000000E+00 -0.60794637741E+03  0.60794637741E+03  0.00000000000E+00 0. -1.
         23    2    1    2    0    0 -0.86423713418E+02  0.15653177056E+02 -0.21183413839E+03  0.24757190226E+03  0.93295575480E+02 0.  0.
         23    2    1    2    0    0  0.77648001967E+01 -0.13910334176E+03 -0.32839445074E+03  0.36824164800E+03  0.91372666755E+02 0.  0.
        -11    1    4    4    0    0  0.14803900780E+02 -0.15212305854E+02 -0.49303376921E+01  0.21791694690E+02  0.00000000000E+00 0.  1.
         11    1    4    4    0    0 -0.70391005828E+01 -0.12389103590E+03 -0.32346411305E+03  0.34644995331E+03  0.00000000000E+00 0. -1.
        -13    1    3    3    0    0 -0.66556462322E+01  0.39381635772E+02 -0.39390240145E+02  0.56096362463E+02  0.00000000000E+00 0. -1.
         13    1    3    3    0    0 -0.79768067186E+02 -0.23728458716E+02 -0.17244389825E+03  0.19147553979E+03  0.00000000000E+00 0.  1.
          2    1    1    2  501    0  0.78658913221E+02  0.12345016470E+03  0.14908010134E+03  0.20893071677E+03  0.00000000000E+00 0. -1.
<scales pt_clust_5="13000.00000" pt_clust_6="13000.00000" pt_clust_7="13000.00000" pt_clust_8="13000.00000" pt_clust_9="143.89424"></scales>
<clustering>
<clus scale="   91.373">  5  6 -1 -1</clus>
<clus scale="   93.296">  7  8 -1 -1</clus>
<clus scale="  128.133">  2  7  1 -1</clus>
<clus scale="  143.894">  1  9  2 -1</clus>
<clus scale="  143.894">  1  5  2 -1</clus>
</clustering>
</event>
<event>
 9    1  0.1571945E-005  0.9211886E+02  0.7546771E-02  0.1298467E+00
          1   -1    0    0  502    0 -0.00000000000E+00  0.00000000000E+00  0.42643986716E+03  0.42643986716E+03  0.00000000000E+00 0. -1.
         21   -1    0    0  501  502  0.00000000000E+00 -0.00000000000E+00 -0.65621772725E+02  0.65621772725E+02  0.00000000000E+00 0.  1.
         23    2    1    2    0    0 -0.46449704536E+01 -0.89744217107E+01  0.31801098058E+03  0.33115464858E+03  0.91816673391E+02 0.  0.
         23    2    1    2    0    0 -0.32438223567E+02 -0.47677607102E+01 -0.77266847260E+01  0.96737873687E+02  0.90683761823E+02 0.  0.
        -13    1    4    4    0    0 -0.62682294441E+01 -0.38469847826E+02 -0.29454455151E+02  0.48854731811E+02  0.00000000000E+00 0.  1.
         13    1    4    4    0    0 -0.26169994123E+02  0.33702087115E+02  0.21727770425E+02  0.47883141876E+02  0.00000000000E+00 0. -1.
        -13    1    3    3    0    0 -0.18290391208E+02 -0.45875595317E+02  0.22136692584E+03  0.22680922493E+03  0.00000000000E+00 0.  1.
         13    1    3    3    0    0  0.13645420755E+02  0.36901173607E+02  0.96644054740E+02  0.10434542365E+03  0.00000000000E+00 0. -1.
          1    1    1    2  501    0  0.37083194020E+02  0.13742182421E+02  0.50533798581E+02  0.64169117614E+02  0.00000000000E+00 0. -1.
<scales pt_clust_5="13000.00000" pt_clust_6="13000.00000" pt_clust_7="13000.00000" pt_clust_8="13000.00000" pt_clust_9="39.54760"></scales>
<clustering>
<clus scale="   39.548">  2  9  1 -1</clus>
<clus scale="   90.684">  5  6 -1 -1</clus>
<clus scale="   90.990">  2  5  1 -1</clus>
<clus scale="   91.817">  7  8 -1 -1</clus>
<clus scale="   39.548">  2  5  1 -1</clus>
</clustering>
</event>
<event>
 9    1  0.1445593E-005  0.1682784E+03  0.7546771E-02  0.1179860E+00
         -1   -1    0    0    0  501 -0.00000000000E+00  0.00000000000E+00  0.13822472039E+03  0.13822472039E+03  0.00000000000E+00 0.  1.
         21   -1    0    0  501  502  0.00000000000E+00 -0.00000000000E+00 -0.37811970543E+03  0.37811970543E+03  0.00000000000E+00 0. -1.
         23    2    1    2    0    0 -0.14353854463E+03 -0.36038336615E+02  0.12025196400E+02  0.17380592647E+03  0.90342787350E+02 0.  0.
         23    2    1    2    0    0  0.12461314804E+03  0.42796414911E+02 -0.96745974254E+02  0.18606844844E+03  0.88891586643E+02 0.  0.
        -13    1    3    3    0    0 -0.33005309112E+02 -0.49180141809E+02  0.19200617084E+02  0.62263155030E+02  0.00000000000E+00 0.  1.
         13    1    3    3    0    0 -0.11053323552E+03  0.13141805194E+02 -0.71754206839E+01  0.11154277143E+03  0.00000000000E+00 0. -1.
        -13    1    4    4    0    0  0.89905527555E+02 -0.13188646463E+02 -0.40638833235E+02  0.99541242946E+02  0.00000000000E+00 0.  1.
         13    1    4    4    0    0  0.34707620483E+02  0.55985061374E+02 -0.56107141019E+02  0.86527205490E+02  0.00000000000E+00 0. -1.
         -1    1    1    2    0  502  0.18925396590E+02 -0.67580782961E+01 -0.15517420718E+03  0.15647005092E+03  0.00000000000E+00 0.  1.
<scales pt_clust_5="13000.00000" pt_clust_6="13000.00000" pt_clust_7="13000.00000" pt_clust_8="13000.00000" pt_clust_9="20.09583"></scales>
<clustering>
<clus scale="   20.096">  2  9  1 -1</clus>
<clus scale="   88.892">  7  8 -1 -1</clus>
<clus scale="   90.343">  5  6 -1 -1</clus>
<clus scale="  167.504">  2  7  1 -1</clus>
<clus scale="   20.096">  2  5  1 -1</clus>
</clustering>
</event>
<event>
 9    1  0.1445593E-005  0.1388103E+03  0.7546771E-02  0.1215304E+00
          1   -1    0    0  502    0 -0.00000000000E+00  0.00000000000E+00  0.54913612191E+03  0.54913612191E+03  0.00000000000E+00 0. -1.
         21   -1    0    0  501  502  0.00000000000E+00 -0.00000000000E+00 -0.19885620952E+03  0.19885620952E+03  0.00000000000E+00 0. -1.
         23    2    1    2    0    0  0.10925345502E+03  0.29858506613E+02  0.39837171647E+03  0.42370888819E+03  0.89450263285E+02 0.  0.
         23    2    1    2    0    0 -0.84046935381E+02 -0.16699238483E+02  0.10823435221E+03  0.16539227889E+03  0.91088852270E+02 0.  0.
        -11    1    4    4    0    0 -0.20112924147E+02 -0.37411758605E+02  0.83677635593E+02  0.93840908446E+02  0.00000000000E+00 0. -1.
         11    1    4    4    0    0 -0.63934011234E+02  0.20712520122E+02  0.24556716613E+02  0.71551370448E+02  0.00000000000E+00 0.  1.
        -13    1    3    3    0    0  0.10465623097E+03 -0.89369954133E+01  0.30047622794E+03  0.31830607931E+03  0.00000000000E+00 0. -1.
         13    1    3    3    0    0  0.45972240444E+01  0.38795502026E+02  0.97895488529E+02  0.10540280888E+03  0.00000000000E+00 0.  1.
          1    1    1    2  501    0 -0.25206519638E+02 -0.13159268130E+02 -0.15632615628E+03  0.15889116435E+03  0.00000000000E+00 0. -1.
<scales pt_clust_5="13000.00000" pt_clust_6="13000.00000" pt_clust_7="13000.00000" pt_clust_8="13000.00000" pt_clust_9="28.43475"></scales>
<clustering>
<clus scale="   28.435">  2  9  1 -1</clus>
<clus scale="   89.450">  7  8 -1 -1</clus>
<clus scale="   91.089">  5  6 -1 -1</clus>
<clus scale="  137.741">  1  7  2 -1</clus>
<clus scale="   28.435">  2  5  1 -1</clus>
</clustering>
</event>
<event>
 9    1  0.1445593E-005  0.1072245E+03  0.7546771E-02  0.1266261E+00
         -1   -1    0    0    0  501 -0.00000000000E+00  0.00000000000E+00  0.93329152339E+02  0.93329152339E+02  0.00000000000E+00 0.  1.
         21   -1    0    0  501  502  0.00000000000E+00 -0.00000000000E+00 -0.34518107946E+03  0.34518107946E+03  0.00000000000E+00 0.  1.
         23    2    1    2    0    0 -0.53059291580E+02  0.10186260490E+01 -0.64626328978E+01  0.10521039834E+03  0.90615320301E+02 0.  0.
         23    2    1    2    0    0  0.52717077418E+02  0.82886567318E+02 -0.19009138619E+03  0.23281074341E+03  0.91743304129E+02 0.  0.
        -11    1    3    3    0    0 -0.47400614201E+02 -0.40537575573E+02  0.20974711675E+01  0.62406030520E+02  0.00000000000E+00 0. -1.
         11    1    3    3    0    0 -0.56586773791E+01  0.41556201622E+02 -0.85601040653E+01  0.42804367821E+02  0.00000000000E+00 0.  1.
        -13    1    4    4    0    0  0.27775538258E+02 -0.10328713223E+02 -0.15780605608E+02  0.33573655680E+02  0.00000000000E+00 0. -1.
         13    1    4    4    0    0  0.24941539159E+02  0.93215280541E+02 -0.17431078058E+03  0.19923708773E+03  0.00000000000E+00 0.  1.
         -1    1    1    2    0  502  0.34221416236E+00 -0.83905193367E+02 -0.55297908030E+02  0.10048909004E+03  0.00000000000E+00 0.  1.
<scales pt_clust_5="13000.00000" pt_clust_6="13000.00000" pt_clust_7="13000.00000" pt_clust_8="13000.00000" pt_clust_9="83.90593"></scales>
<clustering>
<clus scale="   83.906">  2  9  1 -1</clus>
<clus scale="   90.615">  5  6 -1 -1</clus>
<clus scale="   91.743">  7  8 -1 -1</clus>
<clus scale="  106.261">  1  5  2 -1</clus>
<clus scale="   83.906">  2  5  1 -1</clus>
</clustering>
</event>
<event>
 9    1  0.1445593E-005  0.1045000E+03  0.7546771E-02  0.1271448E+00
         21   -1    0    0  501  502  0.00000000000E+00  0.00000000000E+00  0.12927860501E+03  0.12927860501E+03  0.00000000000E+00 0.  1.
         -2   -1    0    0    0  501 -0.00000000000E+00 -0.00000000000E+00 -0.17308960280E+03  0.17308960280E+03  0.00000000000E+00 0.  1.
         23    2    1    2    0    0 -0.43030544197E+02 -0.42661994488E+02 -0.62457423451E+02  0.12698376204E+03  0.92478497885E+02 0.  0.
         23    2    1    2    0    0  0.13927133418E+02  0.35925564129E+02 -0.41849209351E+02  0.10791512037E+03  0.91704447428E+02 0.  0.
        -11    1    4    4    0    0 -0.12489883738E+02 -0.23464903291E+02  0.59398493138E+01  0.27237486891E+02  0.00000000000E+00 0. -1.
         11    1    4    4    0    0  0.26417017155E+02  0.59390467421E+02 -0.47789058665E+02  0.80677633480E+02  0.00000000000E+00 0.  1.
        -11    1    3    3    0    0 -0.53165917084E+02  0.11984118972E+02 -0.36859734587E+02  0.65794178167E+02  0.00000000000E+00 0.  1.
         11    1    3    3    0    0  0.10135372886E+02 -0.54646113460E+02 -0.25597688864E+02  0.61189583877E+02  0.00000000000E+00 0. -1.
         -2    1    1    2    0  502  0.29103410779E+02  0.67364303588E+01  0.60495635012E+02  0.67469325389E+02  0.00000000000E+00 0.  1.
<scales pt_clust_5="13000.00000" pt_clust_6="13000.00000" pt_clust_7="13000.00000" pt_clust_8="13000.00000" pt_clust_9="29.87286"></scales>
<clustering>
<clus scale="   29.873">  1  9  2 -1</clus>
<clus scale="   91.704">  5  6 -1 -1</clus>
<clus scale="   92.478">  7  8 -1 -1</clus>
<clus scale="  103.816">  1  5  2 -1</clus>
<clus scale="   29.873">  1  5  2 -1</clus>
</clustering>
</event>
<event>
 9    1  0.1445593E-005  0.9492901E+02  0.7546771E-02  0.1291579E+00
         21   -1    0    0  501  502  0.00000000000E+00  0.00000000000E+00  0.74149219421E+02  0.74149219421E+02  0.00000000000E+00 0.  1.
         -2   -1    0    0    0  501 -0.00000000000E+00 -0.00000000000E+00 -0.44573648145E+03  0.44573648145E+03  0.00000000000E+00 0.  1.
         23    2    1    2    0    0  0.11618030176E+02  0.31318825924E+02 -0.30818025362E+03  0.32284866374E+03  0.90223852046E+02 0.  0.
         23    2    1    2    0    0 -0.35291424520E+02  0.47123492424E+01 -0.10064605990E+03  0.14006843051E+03  0.90674389831E+02 0.  0.
        -13    1    3    3    0    0 -0.11681899114E+02  0.51039334073E+02 -0.26404193305E+03  0.26918325133E+03  0.00000000000E+00 0.  1.
         13    1    3    3    0    0  0.23299929290E+02 -0.19720508149E+02 -0.44138320570E+02  0.53665412412E+02  0.00000000000E+00 0. -1.
        -13    1    4    4    0    0  0.10334039060E+02  0.36709198713E+02 -0.59996806054E+02  0.71091310089E+02  0.00000000000E+00 0.  1.
         13    1    4    4    0    0 -0.45625463580E+02 -0.31996849471E+02 -0.40649253849E+02  0.68977120420E+02  0.00000000000E+00 0. -1.
         -2    1    1    2    0  502  0.23673394343E+02 -0.36031175167E+02  0.37239051494E+02  0.56968606617E+02  0.00000000000E+00 0.  1.
<scales pt_clust_5="13000.00000" pt_clust_6="13000.00000" pt_clust_7="13000.00000" pt_clust_8="13000.00000" pt_clust_9="43.11236"></scales>
<clustering>
<clus scale="   43.112">  1  9  2 -1</clus>
<clus scale="   90.224">  5  6 -1 -1</clus>
<clus scale="   90.674">  7  8 -1 -1</clus>
<clus scale="   94.499">  2  5  1 -1</clus>
<clus scale="   43.112">  1  5  2 -1</clus>
</clustering>
</event>
<event>
 9    1  0.1445593E-005  0.9292679E+02  0.7546771E-02  0.1298513E+00
          1   -1    0    0  502    0 -0.00000000000E+00  0.00000000000E+00  0.25575762612E+03  0.25575762612E+03  0.00000000000E+00 0. -1.
         21   -1    0    0  501  502  0.00000000000E+00 -0.00000000000E+00 -0.67270661331E+02  0.67270661331E+02  0.00000000000E+00 0. -1.
         23    2    1    2    0    0  0.19798080368E+02 -0.41320671664E+00  0.16431040707E+03  0.18691000022E+03  0.86863706950E+02 0.  0.
         23    2    1    2    0    0 -0.23399915988E+01 -0.29765210107E+02  0.46984670271E+01  0.96181866226E+02  0.91309542245E+02 0.  0.
        -11    1    3    3    0    0 -0.20220168150E+02  0.24002066938E+02  0.25626962358E+02  0.40517843193E+02  0.00000000000E+00 0.  1.
         11    1    3    3    0    0  0.40018248519E+02 -0.24415273654E+02  0.13868344472E+03  0.14639215703E+03  0.00000000000E+00 0. -1.
        -13    1    4    4    0    0 -0.38478859528E+02  0.38488624039E+01  0.21250723120E+02  0.44125158419E+02  0.00000000000E+00 0. -1.
         13    1    4    4    0    0  0.36138867929E+02 -0.33614072511E+02 -0.16552256093E+02  0.52056707807E+02  0.00000000000E+00 0.  1.
          1    1    1    2  501    0 -0.17458088770E+02  0.30178416824E+02  0.19478090687E+02  0.39936421000E+02  0.00000000000E+00 0. -1.
<scales pt_clust_5="13000.00000" pt_clust_6="13000.00000" pt_clust_7="13000.00000" pt_clust_8="13000.00000" pt_clust_9="34.86433"></scales>
<clustering>
<clus scale="   34.864">  2  9  1 -1</clus>
<clus scale="   86.864">  5  6 -1 -1</clus>
<clus scale="   88.562">  1  5  2 -1</clus>
<clus scale="   91.310">  7  8 -1 -1</clus>
<clus scale="   34.864">  2  5  1 -1</clus>
</clustering>
</event>
<event>
 9    1  0.1445593E-005  0.1594582E+03  0.7546771E-02  0.1189458E+00
         -2   -1    0    0    0  501 -0.00000000000E+00  0.00000000000E+00  0.57571396994E+03  0.57571396994E+03  0.00000000000E+00 0.  1.
         21   -1    0    0  501  502  0.00000000000E+00 -0.00000000000E+00 -0.25134123358E+03  0.25134123358E+03  0.00000000000E+00 0.  1.
         23    2    1    2    0    0  0.20320596174E+02  0.11616078997E+03  0.26807559895E+03  0.30703506923E+03  0.92194095442E+02 0.  0.
         23    2    1    2    0    0  0.42044064250E+01 -0.14815879227E+03  0.25970883998E+03  0.31265169733E+03  0.91289087626E+02 0.  0.
        -11    1    4    4    0    0  0.47306938194E+02 -0.89954317697E+02  0.15360664352E+03  0.18418666240E+03  0.00000000000E+00 0.  1.
         11    1    4    4    0    0 -0.43102531769E+02 -0.58204474569E+02  0.10610219646E+03  0.12846503492E+03  0.00000000000E+00 0. -1.
        -11    1    3    3    0    0  0.20287861050E+02 -0.10229599966E+02  0.31865683450E+02  0.39136476632E+02  0.00000000000E+00 0.  1.
         11    1    3    3    0    0  0.32735124587E-01  0.12639038993E+03  0.23620991550E+03  0.26789859260E+03  0.00000000000E+00 0. -1.
         -2    1    1    2    0  502 -0.24525002599E+02  0.31998002299E+02 -0.20341170257E+03  0.20736843696E+03  0.00000000000E+00 0.  1.
<scales pt_clust_5="13000.00000" pt_clust_6="13000.00000" pt_clust_7="13000.00000" pt_clust_8="13000.00000" pt_clust_9="40.31560"></scales>
<clustering>
<clus scale="   40.316">  2  9  1 -1</clus>
<clus scale="   91.289">  5  6 -1 -1</clus>
<clus scale="   92.194">  7  8 -1 -1</clus>
<clus scale="  158.937">  2  5  1 -1</clus>
<clus scale="   40.316">  2  5  1 -1</clus>
</clustering>
</event>
<event>
 9    1  0.1445593E-005  0.1392873E+03  0.7546771E-02  0.1234589E+00
         -2   -1    0    0    0  501 -0.00000000000E+00  0.00000000000E+00  0.33612138192E+03  0.33612138192E+03  0.00000000000E+00 0.  1.
         21   -1    0    0  501  502  0.00000000000E+00 -0.00000000000E+00 -0.93654386634E+02  0.93654386634E+02  0.00000000000E+00 0.  1.
         23    2    1    2    0    0  0.30457912735E+02 -0.89324801776E+01  0.88352153265E+02  0.12700657728E+03  0.85540014236E+02 0.  0.
         23    2    1    2    0    0 -0.70155613843E+01 -0.10055418459E+03  0.13315905042E+03  0.18885686183E+03  0.88177204605E+02 0.  0.
        -11    1    4    4    0    0 -0.11622464265E+02 -0.35773953720E+02  0.11562239251E+03  0.12158698569E+03  0.00000000000E+00 0.  1.
         11    1    4    4    0    0  0.46069028809E+01 -0.64780230866E+02  0.17536657918E+02  0.67269876142E+02  0.00000000000E+00 0. -1.
        -13    1    3    3    0    0 -0.18659801577E+02 -0.21438288901E+02  0.41449069068E+01  0.28722268002E+02  0.00000000000E+00 0.  1.
         13    1    3    3    0    0  0.49117714312E+02  0.12505808723E+02  0.84207246359E+02  0.98284309279E+02  0.00000000000E+00 0. -1.
         -2    1    1    2    0  502 -0.23442351350E+02  0.10948666476E+03  0.20955791599E+02  0.11391232944E+03  0.00000000000E+00 0.  1.
<scales pt_clust_5="13000.00000" pt_clust_6="13000.00000" pt_clust_7="13000.00000" pt_clust_8="13000.00000" pt_clust_9="107.82273"></scales>
<clustering>
<clus scale="   85.540">  7  8 -1 -1</clus>
<clus scale="   88.177">  5  6 -1 -1</clus>
<clus scale="   91.239">  1  7  2 -1</clus>
<clus scale="  107.823">  2  9  1 -1</clus>
<clus scale="  107.823">  2  5  1 -1</clus>
</clustering>
</event>
<event>
 9    1  0.1445593E-005  0.9765301E+02  0.7546771E-02  0.1288640E+00
         21   -1    0    0  501  502  0.00000000000E+00  0.00000000000E+00  0.76320853496E+02  0.76320853496E+02  0.00000000000E+00 0. -1.
          1   -1    0    0  502    0 -0.00000000000E+00 -0.00000000000E+00 -0.25051733285E+03  0.25051733285E+03  0.00000000000E+00 0. -1.
         23    2    1    2    0    0 -0.27770205469E+02  0.17231742047E+02 -0.12558880754E+03  0.15950129074E+03  0.92736162980E+02 0.  0.
         23    2    1    2    0    0  0.32363837500E+02  0.59973200183E+01 -0.83860283205E+02  0.12486999803E+03  0.86467239373E+02 0.  0.
        -11    1    4    4    0    0  0.28067005021E+02  0.35126407140E+02 -0.11004879664E+02  0.46289616825E+02  0.00000000000E+00 0.  1.
         11    1    4    4    0    0  0.42968324794E+01 -0.29129087122E+02 -0.72855403540E+02  0.78580381209E+02  0.00000000000E+00 0. -1.
        -13    1    3    3    0    0 -0.16000007153E+01  0.48668247244E+02 -0.34582901819E+02  0.59725500336E+02  0.00000000000E+00 0.  1.
         13    1    3    3    0    0 -0.26170204753E+02 -0.31436505197E+02 -0.91005905717E+02  0.99775790407E+02  0.00000000000E+00 0. -1.
          1    1    1    2  501    0 -0.45936320313E+01 -0.23229062065E+02  0.35252611386E+02  0.42466897570E+02  0.00000000000E+00 0. -1.
<scales pt_clust_5="13000.00000" pt_clust_6="13000.00000" pt_clust_7="13000.00000" pt_clust_8="13000.00000" pt_clust_9="23.67891"></scales>
<clustering>
<clus scale="   23.679">  1  9  2 -1</clus>
<clus scale="   86.467">  5  6 -1 -1</clus>
<clus scale="   91.721">  1  5  2 -1</clus>
<clus scale="   92.736">  7  8 -1 -1</clus>
<clus scale="   23.679">  1  5  2 -1</clus>
</clustering>
</event>
<event>
 9    1  0.1445593E-005  0.1019544E+03  0.7546771E-02  0.1279097E+00
          1   -1    0    0  502    0 -0.00000000000E+00  0.00000000000E+00  0.75966102795E+03  0.75966102795E+03  0.00000000000E+00 0. -1.
         21   -1    0    0  501  502  0.00000000000E+00 -0.00000000000E+00 -0.23439123442E+02  0.23439123442E+02  0.00000000000E+00 0.  1.
         23    2    1    2    0    0 -0.32331455502E+01  0.36622640562E+02  0.55921962029E+03  0.56866645269E+03  0.96453510378E+02 0.  0.
         23    2    1    2    0    0  0.16947797817E+02 -0.20757695860E+02  0.16522311479E+03  0.19038090283E+03  0.90708878901E+02 0.  0.
        -11    1    4    4    0    0  0.99924959079E+01  0.30556267042E+02  0.11032523080E+03  0.11491384591E+03  0.00000000000E+00 0.  1.
         11    1    4    4    0    0  0.69553019093E+01 -0.51313962902E+02  0.54897883991E+02  0.75467056919E+02  0.00000000000E+00 0. -1.
        -13    1    3    3    0    0  0.42144667461E+02 -0.38465312288E+01  0.21723158065E+03  0.22131545004E+03  0.00000000000E+00 0. -1.
         13    1    3    3    0    0 -0.45377813012E+02  0.40469171790E+02  0.34198803964E+03  0.34735100265E+03  0.00000000000E+00 0.  1.
          1    1    1    2  501    0 -0.13714652267E+02 -0.15864944701E+02  0.11779169428E+02  0.24052795879E+02  0.00000000000E+00 0. -1.
<scales pt_clust_5="13000.00000" pt_clust_6="13000.00000" pt_clust_7="13000.00000" pt_clust_8="13000.00000" pt_clust_9="20.97113"></scales>
<clustering>
<clus scale="   20.971">  2  9  1 -1</clus>
<clus scale="   90.709">  5  6 -1 -1</clus>
<clus scale="   96.454">  7  8 -1 -1</clus>
<clus scale="   96.538">  2  5  1 -1</clus>
<clus scale="   20.971">  2  5  1 -1</clus>
</clustering>
</event>
<event>
 9    1  0.1445593E-005  0.1711544E+03  0.7546771E-02  0.1197733E+00
         21   -1    0    0  501  502  0.00000000000E+00  0.00000000000E+00  0.30127591252E+03  0.30127591252E+03  0.00000000000E+00 0. -1.
          1   -1    0    0  502    0 -0.00000000000E+00 -0.00000000000E+00 -0.26345378169E+03  0.26345378169E+03  0.00000000000E+00 0. -1.
         23    2    1    2    0    0 -0.40356639457E+01 -0.55669928722E+02 -0.33247616780E+02  0.11221101577E+03  0.91490330041E+02 0.  0.
         23    2    1    2    0    0 -0.13320483569E+03  0.57072069490E-01 -0.12697251687E+03  0.20523648523E+03  0.90865083069E+02 0.  0.
        -11    1    3    3    0    0 -0.40668432819E+02 -0.24223812659E+02 -0.41836510993E+02  0.63174426628E+02  0.00000000000E+00 0. -1.
         11    1    3    3    0    0  0.36632768873E+02 -0.31446116063E+02  0.85888942133E+01  0.49036589141E+02  0.00000000000E+00 0.  1.
        -11    1    4    4    0    0 -0.67280250840E+02  0.20775174236E+01 -0.12169446890E+03  0.13907009741E+03  0.00000000000E+00 0. -1.
         11    1    4    4    0    0 -0.65924584848E+02 -0.20204453542E+01 -0.52780479658E+01  0.66166387820E+02  0.00000000000E+00 0.  1.
          1    1    1    2  501    0  0.13724049963E+03  0.55612856652E+02  0.19804226447E+03  0.24728219322E+03  0.00000000000E+00 0. -1.
<scales pt_clust_5="13000.00000" pt_clust_6="13000.00000" pt_clust_7="13000.00000" pt_clust_8="13000.00000" pt_clust_9="145.04266"></scales>
<clustering>
<clus scale="   90.865">  7  8 -1 -1</clus>
<clus scale="   91.490">  5  6 -1 -1</clus>
<clus scale="  107.172">  2  5  1 -1</clus>
<clus scale="  145.043">  1  9  2 -1</clus>
<clus scale="  145.043">  1  5  2 -1</clus>
</clustering>
</event>
<event>
 9    1  0.1445593E-005  0.3206732E+03  0.7546771E-02  0.1075416E+00
         21   -1    0    0  501  502  0.00000000000E+00  0.00000000000E+00  0.59288472756E+03  0.59288472756E+03  0.00000000000E+00 0. -1.
          2   -1    0    0  502    0 -0.00000000000E+00 -0.00000000000E+00 -0.30408818725E+03  0.30408818725E+03  0.00000000000E+00 0. -1.
         23    2    1    2    0    0  0.27185079061E+03  0.11360004126E+03 -0.59936523269E+02  0.31390620741E+03  0.90204758766E+02 0.  0.
         23    2    1    2    0    0 -0.29076984627E+03 -0.16555238140E+03  0.15246746186E+03  0.37916191899E+03  0.92535071190E+02 0.  0.
        -11    1    3    3    0    0  0.24334364065E+03  0.74129762672E+02 -0.28557729342E+02  0.25598221240E+03  0.00000000000E+00 0. -1.
         11    1    3    3    0    0  0.28507149958E+02  0.39470278590E+02 -0.31378793927E+02  0.57923995019E+02  0.00000000000E+00 0.  1.
        -13    1    4    4    0    0 -0.23490549361E+03 -0.15402447785E+03  0.15725285844E+03  0.32192016432E+03  0.00000000000E+00 0. -1.
         13    1    4    4    0    0 -0.55864352659E+02 -0.11527903546E+02 -0.47853965720E+01  0.57241754678E+02  0.00000000000E+00 0.  1.
          2    1    1    2  501    0  0.18919055666E+02  0.51952340137E+02  0.19626560172E+03  0.20390478840E+03  0.00000000000E+00 0. -1.
<scales pt_clust_5="13000.00000" pt_clust_6="13000.00000" pt_clust_7="13000.00000" pt_clust_8="13000.00000" pt_clust_9="55.28993"></scales>
<clustering>
<clus scale="   55.290">  1  9  2 -1</clus>
<clus scale="   90.205">  5  6 -1 -1</clus>
<clus scale="   92.535">  7  8 -1 -1</clus>
<clus scale="  320.009">  2  5  1 -1</clus>
<clus scale="   55.290">  1  5  2 -1</clus>
</clustering>
</event>
<event>
 9    1  0.1445593E-005  0.1128379E+03  0.7546771E-02  0.1255896E+00
          4   -1    0    0  502    0 -0.00000000000E+00  0.00000000000E+00  0.40599134791E+03  0.40599134791E+03  0.00000000000E+00 0. -1.
         21   -1    0    0  501  502  0.00000000000E+00 -0.00000000000E+00 -0.49780078121E+02  0.49780078121E+02  0.00000000000E+00 0.  1.
         23    2    1    2    0    0  0.41320506189E+02 -0.24220181841E+02  0.14010296366E+03  0.17333408218E+03  0.90121374707E+02 0.  0.
         23    2    1    2    0    0 -0.87613764927E+02  0.17530086299E+02  0.18954971763E+03  0.22864903837E+03  0.91475743039E+02 0.  0.
        -13    1    4    4    0    0 -0.92633457316E+02 -0.15779687205E+02  0.13348705867E+03  0.16324445098E+03  0.00000000000E+00 0.  1.
         13    1    4    4    0    0  0.50196923886E+01  0.33309773505E+02  0.56062658959E+02  0.65404587394E+02  0.00000000000E+00 0. -1.
        -13    1    3    3    0    0  0.40085357676E+02 -0.45380284402E+02  0.13956237325E+03  0.15213106895E+03  0.00000000000E+00 0.  1.
         13    1    3    3    0    0  0.12351485136E+01  0.21160102561E+02  0.54059041290E+00  0.21203013235E+02  0.00000000000E+00 0. -1.
          4    1    1    2  501    0  0.46293258738E+02  0.66900955418E+01  0.26558588495E+02  0.53788305474E+02  0.00000000000E+00 0. -1.
<scales pt_clust_5="13000.00000" pt_clust_6="13000.00000" pt_clust_7="13000.00000" pt_clust_8="13000.00000" pt_clust_9="46.77417"></scales>
<clustering>
<clus scale="   46.774">  2  9  1 -1</clus>
<clus scale="   90.121">  7  8 -1 -1</clus>
<clus scale="   91.476">  5  6 -1 -1</clus>
<clus scale="  111.743">  1  7  2 -1</clus>
<clus scale="   46.774">  2  5  1 -1</clus>
</clustering>
</event>
<event>
 9    1  0.1445593E-005  0.9847981E+02  0.7546771E-02  0.1284702E+00
         21   -1    0    0  501  502  0.00000000000E+00  0.00000000000E+00  0.26826896124E+03  0.26826896124E+03  0.00000000000E+00 0.  1.
         -4   -1    0    0    0  501 -0.00000000000E+00 -0.00000000000E+00 -0.10758639048E+03  0.10758639048E+03  0.00000000000E+00 0.  1.
         23    2    1    2    0    0 -0.11967047567E+02  0.28625387645E+02 -0.61040909236E+02  0.11470867861E+03  0.92029697940E+02 0.  0.
         23    2    1    2    0    0 -0.17914292199E+02 -0.21629097468E+02  0.12156338702E+03  0.15639035221E+03  0.94294991809E+02 0.  0.
        -13    1    3    3    0    0 -0.25548445301E+02  0.46705189713E+02 -0.72029394705E+02  0.89567469011E+02  0.00000000000E+00 0.  1.
         13    1    3    3    0    0  0.13581397735E+02 -0.18079802068E+02  0.10988485469E+02  0.25141209600E+02  0.00000000000E+00 0. -1.
        -13    1    4    4    0    0  0.37913861103E+02 -0.24273359605E+01  0.35307743589E+02  0.51865109477E+02  0.00000000000E+00 0. -1.
         13    1    4    4    0    0 -0.55828153303E+02 -0.19201761508E+02  0.86255643429E+02  0.10452524274E+03  0.00000000000E+00 0.  1.
         -4    1    1    2    0  502  0.29881339766E+02 -0.69962901772E+01  0.10016009297E+03  0.10475632089E+03  0.00000000000E+00 0.  1.
<scales pt_clust_5="13000.00000" pt_clust_6="13000.00000" pt_clust_7="13000.00000" pt_clust_8="13000.00000" pt_clust_9="30.68945"></scales>
<clustering>
<clus scale="   30.689">  1  9  2 -1</clus>
<clus scale="   92.030">  5  6 -1 -1</clus>
<clus scale="   94.295">  7  8 -1 -1</clus>
<clus scale="   96.313">  2  5  1 -1</clus>
<clus scale="   30.689">  1  5  2 -1</clus>
</clustering>
</event>
<event>
 9    1  0.1445593E-005  0.1393082E+03  0.7546771E-02  0.1214341E+00
         21   -1    0    0  501  502  0.00000000000E+00  0.00000000000E+00  0.57820483032E+02  0.57820483032E+02  0.00000000000E+00 0.  1.
          1   -1    0    0  502    0 -0.00000000000E+00 -0.00000000000E+00 -0.88334605282E+03  0.88334605282E+03  0.00000000000E+00 0. -1.
         23    2    1    2    0    0 -0.22421902183E+02  0.63742261761E+02 -0.24359239005E+03  0.26835016393E+03  0.90048544466E+02 0.  0.
         23    2    1    2    0    0 -0.18760916961E+02 -0.16099256700E+03 -0.51588578809E+03  0.54825351869E+03  0.90405728649E+02 0.  0.
        -11    1    4    4    0    0 -0.12696042455E+02 -0.76774211282E+02 -0.11690492265E+03  0.14043585707E+03  0.00000000000E+00 0.  1.
         11    1    4    4    0    0 -0.60648745061E+01 -0.84218355714E+02 -0.39898086544E+03  0.40781766162E+03  0.00000000000E+00 0. -1.
        -13    1    3    3    0    0  0.19297359692E+02  0.53835080760E+02 -0.74578121669E+02  0.93981382429E+02  0.00000000000E+00 0. -1.
         13    1    3    3    0    0 -0.41719261874E+02  0.99071810007E+01 -0.16901426838E+03  0.17436878151E+03  0.00000000000E+00 0.  1.
          1    1    1    2  501    0  0.41182819143E+02  0.97250305234E+02 -0.66047391650E+02  0.12456285323E+03  0.00000000000E+00 0. -1.
<scales pt_clust_5="13000.00000" pt_clust_6="13000.00000" pt_clust_7="13000.00000" pt_clust_8="13000.00000" pt_clust_9="105.61083"></scales>
<clustering>
<clus scale="   90.049">  7  8 -1 -1</clus>
<clus scale="   90.406">  5  6 -1 -1</clus>
<clus scale="  105.611">  1  9  2 -1</clus>
<clus scale="  139.077">  2  7  1 -1</clus>
<clus scale="  105.611">  1  5  2 -1</clus>
</clustering>
</event>
<event>
 9    1  0.1445593E-005  0.1186052E+03  0.7546771E-02  0.1245691E+00
         -1   -1    0    0    0  501 -0.00000000000E+00  0.00000000000E+00  0.64587263068E+03  0.64587263068E+03  0.00000000000E+00 0.  1.
         21   -1    0    0  501  502  0.00000000000E+00 -0.00000000000E+00 -0.62587713611E+02  0.62587713611E+02  0.00000000000E+00 0.  1.
         23    2    1    2    0    0  0.75710306250E+02 -0.21025150084E+01  0.40608280839E+03  0.42328401345E+03  0.92356037857E+02 0.  0.
         23    2    1    2    0    0 -0.70536253899E+02  0.21877901304E+02  0.21337106090E+03  0.24363081574E+03  0.91513709732E+02 0.  0.
        -13    1    3    3    0    0  0.41817374503E+02 -0.44351681719E+02  0.15785849745E+03  0.16921899922E+03  0.00000000000E+00 0.  1.
         13    1    3    3    0    0  0.33892931747E+02  0.42249166711E+02  0.24822431095E+03  0.25406501423E+03  0.00000000000E+00 0. -1.
        -13    1    4    4    0    0  0.19385918445E+02 -0.10469600788E+02  0.39998630009E+02  0.45665268829E+02  0.00000000000E+00 0.  1.
         13    1    4    4    0    0 -0.89922172344E+02  0.32347502092E+02  0.17337243089E+03  0.19796554691E+03  0.00000000000E+00 0. -1.
         -1    1    1    2    0  502 -0.51740523512E+01 -0.19775386295E+02 -0.36168952219E+02  0.41545515106E+02  0.00000000000E+00 0.  1.
<scales pt_clust_5="13000.00000" pt_clust_6="13000.00000" pt_clust_7="13000.00000" pt_clust_8="13000.00000" pt_clust_9="20.44105"></scales>
<clustering>
<clus scale="   20.441">  2  9  1 -1</clus>
<clus scale="   91.514">  7  8 -1 -1</clus>
<clus scale="   92.356">  5  6 -1 -1</clus>
<clus scale="  117.950">  2  7  1 -1</clus>
<clus scale="   20.441">  2  5  1 -1</clus>
</clustering>
</event>
<event>
 9    1  0.1445593E-005  0.9155576E+02  0.7546771E-02  0.1299419E+00
         21   -1    0    0  501  502  0.00000000000E+00  0.00000000000E+00  0.33153064504E+02  0.33153064504E+02  0.00000000000E+00 0.  1.
          2   -1    0    0  502    0 -0.00000000000E+00 -0.00000000000E+00 -0.45591492020E+03  0.45591492020E+03  0.00000000000E+00 0. -1.
         23    2    1    2    0    0 -0.14154081614E+02  0.18447549414E+02 -0.31833054608E+03  0.33132906013E+03  0.88904214826E+02 0.  0.
         23    2    1    2    0    0  0.26187078480E+02  0.92119823492E+00 -0.96828034214E+02  0.13370246901E+03  0.88397230303E+02 0.  0.
        -13    1    3    3    0    0  0.13312049107E+02  0.46376496067E+02 -0.12331227442E+03  0.13241566018E+03  0.00000000000E+00 0.  1.
         13    1    3    3    0    0 -0.27466130721E+02 -0.27928946653E+02 -0.19501827166E+03  0.19891339994E+03  0.00000000000E+00 0. -1.
        -13    1    4    4    0    0  0.28209433645E+02  0.40116804788E+02 -0.34188007221E+02  0.59782522619E+02  0.00000000000E+00 0.  1.
         13    1    4    4    0    0 -0.20223551647E+01 -0.39195606553E+02 -0.62640026993E+02  0.73919946396E+02  0.00000000000E+00 0. -1.
          2    1    1    2  501    0 -0.12032996866E+02 -0.19368747648E+02 -0.76032754038E+01  0.24036455561E+02  0.00000000000E+00 0. -1.
<scales pt_clust_5="13000.00000" pt_clust_6="13000.00000" pt_clust_7="13000.00000" pt_clust_8="13000.00000" pt_clust_9="22.80222"></scales>
<clustering>
<clus scale="   22.802">  1  9  2 -1</clus>
<clus scale="   88.397">  7  8 -1 -1</clus>
<clus scale="   88.904">  5  6 -1 -1</clus>
<clus scale="   91.064">  1  7  2 -1</clus>
<clus scale="   22.802">  1  5  2 -1</clus>
</clustering>
</event>
<event>
 9    1  0.1445593E-005  0.1003150E+03  0.7546771E-02  0.1279787E+00
         21   -1    0    0  501  502  0.00000000000E+00  0.00000000000E+00  0.22520274465E+03  0.22520274465E+03  0.00000000000E+00 0.  1.
          1   -1    0    0  502    0 -0.00000000000E+00 -0.00000000000E+00 -0.19995114354E+03  0.19995114354E+03  0.00000000000E+00 0. -1.
         23    2    1    2    0    0 -0.79156401879E+01  0.44862145361E+02 -0.13243184898E+03  0.16806900461E+03  0.92917846727E+02 0.  0.
         23    2    1    2    0    0  0.13559760926E+02 -0.11897262282E+02 -0.95071396485E+00  0.94963516637E+02  0.93229575076E+02 0.  0.
        -13    1    3    3    0    0 -0.50070945996E+02  0.17705375953E+02 -0.62513750241E+02  0.82027732747E+02  0.00000000000E+00 0.  1.
         13    1    3    3    0    0  0.42155305808E+02  0.27156769409E+02 -0.69918098737E+02  0.86041271861E+02  0.00000000000E+00 0. -1.
        -13    1    4    4    0    0 -0.59512095450E+01 -0.41783360325E+02  0.26589251964E+02  0.49882405867E+02  0.00000000000E+00 0. -1.
         13    1    4    4    0    0  0.19510970471E+02  0.29886098042E+02 -0.27539965929E+02  0.45081110770E+02  0.00000000000E+00 0.  1.
          1    1    1    2  501    0 -0.56441207382E+01 -0.32964883079E+02  0.15863416405E+03  0.16212136694E+03  0.00000000000E+00 0. -1.
<scales pt_clust_5="13000.00000" pt_clust_6="13000.00000" pt_clust_7="13000.00000" pt_clust_8="13000.00000" pt_clust_9="33.44458"></scales>
<clustering>
<clus scale="   33.445">  1  9  2 -1</clus>
<clus scale="   92.918">  5  6 -1 -1</clus>
<clus scale="   93.230">  7  8 -1 -1</clus>
<clus scale="  100.025">  2  5  1 -1</clus>
<clus scale="   33.445">  1  5  2 -1</clus>
</clustering>
</event>
<event>
 9    1  0.1445593E-005  0.9718884E+02  0.7546771E-02  0.1286654E+00
         21   -1    0    0  501  502  0.00000000000E+00  0.00000000000E+00  0.64797475979E+02  0.64797475979E+02  0.00000000000E+00 0. -1.
          4   -1    0    0  502    0 -0.00000000000E+00 -0.00000000000E+00 -0.66373731461E+03  0.66373731461E+03  0.00000000000E+00 0. -1.
         23    2    1    2    0    0 -0.43160728341E+01 -0.34507466820E+02 -0.38627206711E+03  0.39854326188E+03  0.91767249101E+02 0.  0.
         23    2    1    2    0    0  0.22172625274E+02  0.18144714625E+02 -0.25967495434E+03  0.27711174653E+03  0.92406613247E+02 0.  0.
        -13    1    4    4    0    0 -0.97235350356E+01  0.42428934149E+02 -0.64180679261E+02  0.77549475672E+02  0.00000000000E+00 0.  1.
         13    1    4    4    0    0  0.31896160309E+02 -0.24284219523E+02 -0.19549427508E+03  0.19956227086E+03  0.00000000000E+00 0. -1.
        -13    1    3    3    0    0  0.35533040229E+02  0.99660471805E+01 -0.11499298086E+03  0.12076963481E+03  0.00000000000E+00 0. -1.
         13    1    3    3    0    0 -0.39849113063E+02 -0.44473514000E+02 -0.27127908625E+03  0.27777362707E+03  0.00000000000E+00 0.  1.
          4    1    1    2  501    0 -0.17856552440E+02  0.16362752195E+02  0.47007182833E+02  0.52879782170E+02  0.00000000000E+00 0. -1.
<scales pt_clust_5="13000.00000" pt_clust_6="13000.00000" pt_clust_7="13000.00000" pt_clust_8="13000.00000" pt_clust_9="24.21975"></scales>
<clustering>
<clus scale="   24.220">  1  9  2 -1</clus>
<clus scale="   91.767">  7  8 -1 -1</clus>
<clus scale="   92.407">  5  6 -1 -1</clus>
<clus scale="   96.581">  2  7  1 -1</clus>
<clus scale="   24.220">  1  5  2 -1</clus>
</clustering>
</event>
<event>
 9    1  0.1445593E-005  0.9307133E+02  0.7546771E-02  0.1300574E+00
          2   -1    0    0  502    0 -0.00000000000E+00  0.00000000000E+00  0.85064326706E+02  0.85064326706E+02  0.00000000000E+00 0. -1.
         21   -1    0    0  501  502  0.00000000000E+00 -0.00000000000E+00 -0.24885256165E+03  0.24885256165E+03  0.00000000000E+00 0. -1.
         23    2    1    2    0    0 -0.27291490984E+02  0.78670314838E+01 -0.41275882228E+01  0.95177432502E+02  0.90746851232E+02 0.  0.
         23    2    1    2    0    0  0.45923585189E+01 -0.18966892751E+02 -0.79742193313E+01  0.84962897858E+02  0.82305972208E+02 0.  0.
        -11    1    4    4    0    0  0.33791702748E+02  0.15304257224E+02 -0.13767542676E+02  0.39568228354E+02  0.00000000000E+00 0.  1.
         11    1    4    4    0    0 -0.29199344229E+02 -0.34271149975E+02  0.57933233444E+01  0.45394669504E+02  0.00000000000E+00 0. -1.
        -13    1    3    3    0    0  0.77413222996E+01 -0.37164898434E+02  0.15383227548E+00  0.37962895186E+02  0.00000000000E+00 0.  1.
         13    1    3    3    0    0 -0.35032813284E+02  0.45031929918E+02 -0.42814204983E+01  0.57214537315E+02  0.00000000000E+00 0. -1.
          2    1    1    2  501    0  0.22699132466E+02  0.11099861267E+02 -0.15168642739E+03  0.15377655799E+03  0.00000000000E+00 0. -1.
<scales pt_clust_5="13000.00000" pt_clust_6="13000.00000" pt_clust_7="13000.00000" pt_clust_8="13000.00000" pt_clust_9="25.26772"></scales>
<clustering>
<clus scale="   25.268">  2  9  1 -1</clus>
<clus scale="   82.306">  5  6 -1 -1</clus>
<clus scale="   84.862">  2  5  1 -1</clus>
<clus scale="   90.747">  7  8 -1 -1</clus>
<clus scale="   25.268">  2  5  1 -1</clus>
</clustering>
</event>
<event>
 9    1  0.1445593E-005  0.1021599E+03  0.7546771E-02  0.1276423E+00
         -1   -1    0    0    0  501 -0.00000000000E+00  0.00000000000E+00  0.36410407818E+03  0.36410407818E+03  0.00000000000E+00 0.  1.
         21   -1    0    0  501  502  0.00000000000E+00 -0.00000000000E+00 -0.17130334136E+03  0.17130334136E+03  0.00000000000E+00 0.  1.
         23    2    1    2    0    0 -0.62156501432E+02 -0.90203035833E+01  0.24573299159E+03  0.26771062569E+03  0.85670761656E+02 0.  0.
         23    2    1    2    0    0  0.36389028679E+02 -0.11660564766E+02  0.83981722352E+02  0.12685256039E+03  0.87054650713E+02 0.  0.
        -11    1    4    4    0    0 -0.28911421774E+02 -0.59806376983E+01  0.26380665024E+02  0.39592648602E+02  0.00000000000E+00 0.  1.
         11    1    4    4    0    0  0.65300450452E+02 -0.56799270672E+01  0.57601057328E+02  0.87259911793E+02  0.00000000000E+00 0. -1.
        -11    1    3    3    0    0  0.14470487726E+02 -0.23977216872E+02  0.71288430060E+02  0.76592050530E+02  0.00000000000E+00 0.  1.
         11    1    3    3    0    0 -0.76626989158E+02  0.14956913289E+02  0.17444456153E+03  0.19111857516E+03  0.00000000000E+00 0. -1.
         -1    1    1    2    0  502  0.25767472753E+02  0.20680868349E+02 -0.13691397712E+03  0.14084423346E+03  0.00000000000E+00 0.  1.
<scales pt_clust_5="13000.00000" pt_clust_6="13000.00000" pt_clust_7="13000.00000" pt_clust_8="13000.00000" pt_clust_9="33.04029"></scales>
<clustering>
<clus scale="   33.040">  2  9  1 -1</clus>
<clus scale="   85.671">  7  8 -1 -1</clus>
<clus scale="   87.055">  5  6 -1 -1</clus>
<clus scale="  100.983">  1  7  2 -1</clus>
<clus scale="   33.040">  2  5  1 -1</clus>
</clustering>
</event>
<event>
 9    1  0.1445593E-005  0.9236090E+02  0.7546771E-02  0.1297451E+00
          2   -1    0    0  502    0 -0.00000000000E+00  0.00000000000E+00  0.36638275255E+03  0.36638275255E+03  0.00000000000E+00 0. -1.
         21   -1    0    0  501  502  0.00000000000E+00 -0.00000000000E+00 -0.33235282216E+02  0.33235282216E+02  0.00000000000E+00 0.  1.
         23    2    1    2    0    0  0.69732839446E+01  0.15743560127E+02  0.15794238434E+03  0.18332421750E+03  0.91463028464E+02 0.  0.
         23    2    1    2    0    0  0.20596726424E+02  0.10493104065E+01  0.12245072072E+03  0.15444618976E+03  0.91837466949E+02 0.  0.
        -11    1    4    4    0    0  0.50066481498E+02  0.10985430772E+02  0.36177452758E+02  0.62738667079E+02  0.00000000000E+00 0.  1.
         11    1    4    4    0    0 -0.29469755074E+02 -0.99361203651E+01  0.86273267959E+02  0.91707522681E+02  0.00000000000E+00 0. -1.
        -11    1    3    3    0    0  0.16640137273E+02  0.49934601052E+02  0.63856530435E+02  0.82752734274E+02  0.00000000000E+00 0.  1.
         11    1    3    3    0    0 -0.96668533280E+01 -0.34191040925E+02  0.94085853902E+02  0.10057148322E+03  0.00000000000E+00 0. -1.
          2    1    1    2  501    0 -0.27570010368E+02 -0.16792870534E+02  0.52754365276E+02  0.61847627506E+02  0.00000000000E+00 0. -1.
<scales pt_clust_5="13000.00000" pt_clust_6="13000.00000" pt_clust_7="13000.00000" pt_clust_8="13000.00000" pt_clust_9="32.28168"></scales>
<clustering>
<clus scale="   32.282">  2  9  1 -1</clus>
<clus scale="   91.463">  7  8 -1 -1</clus>
<clus scale="   91.837">  5  6 -1 -1</clus>
<clus scale="   91.989">  1  7  2 -1</clus>
<clus scale="   32.282">  2  5  1 -1</clus>
</clustering>
</event>
<event>
 9    1  0.1445593E-005  0.1222681E+03  0.7546771E-02  0.1239866E+00
         21   -1    0    0  501  502  0.00000000000E+00  0.00000000000E+00  0.23388296251E+02  0.23388296251E+02  0.00000000000E+00 0.  1.
          2   -1    0    0  502    0 -0.00000000000E+00 -0.00000000000E+00 -0.85945939164E+03  0.85945939164E+03  0.00000000000E+00 0. -1.
         23    2    1    2    0    0 -0.70068620845E+02  0.19297525956E+02 -0.43957694848E+03  0.45452798453E+03  0.89921015086E+02 0.  0.
         23    2    1    2    0    0  0.95815717621E+02 -0.30550171794E+02 -0.33181397943E+03  0.35779978350E+03  0.88352721468E+02 0.  0.
        -13    1    3    3    0    0 -0.85072651183E+02 -0.65003667412E+01 -0.34250071178E+03  0.35296791400E+03  0.00000000000E+00 0. -1.
         13    1    3    3    0    0  0.15004030338E+02  0.25797892697E+02 -0.97076236703E+02  0.10156007053E+03  0.00000000000E+00 0.  1.
        -13    1    4    4    0    0  0.29570068722E+02 -0.42344891014E+02 -0.67141991071E+02  0.84708474925E+02  0.00000000000E+00 0.  1.
         13    1    4    4    0    0  0.66245648900E+02  0.11794719220E+02 -0.26467198836E+03  0.27309130858E+03  0.00000000000E+00 0. -1.
          2    1    1    2  501    0 -0.25747096777E+02  0.11252645838E+02 -0.64680167481E+02  0.70519919854E+02  0.00000000000E+00 0. -1.
<scales pt_clust_5="13000.00000" pt_clust_6="13000.00000" pt_clust_7="13000.00000" pt_clust_8="13000.00000" pt_clust_9="28.09867"></scales>
<clustering>
<clus scale="   28.099">  1  9  2 -1</clus>
<clus scale="   88.353">  7  8 -1 -1</clus>
<clus scale="   89.921">  5  6 -1 -1</clus>
<clus scale="  121.119">  1  7  2 -1</clus>
<clus scale="   28.099">  1  5  2 -1</clus>
</clustering>
</event>
<event>
 9    1  0.1445593E-005  0.1407148E+03  0.7546771E-02  0.1212447E+00
         21   -1    0    0  501  502  0.00000000000E+00  0.00000000000E+00  0.30662060589E+03  0.30662060589E+03  0.00000000000E+00 0.  1.
          3   -1    0    0  502    0 -0.00000000000E+00 -0.00000000000E+00 -0.18803013483E+03  0.18803013483E+03  0.00000000000E+00 0. -1.
         23    2    1    2    0    0 -0.24163261944E+02 -0.10797741297E+03 -0.11836321724E+03  0.18665702372E+03  0.92671507868E+02 0.  0.
         23    2    1    2    0    0  0.68184693010E+02  0.65859576179E+02  0.13608499984E+03  0.19015360974E+03  0.93019524720E+02 0.  0.
        -11    1    4    4    0    0  0.40375150728E+02  0.51375393269E+02  0.17714656121E+02  0.67700759754E+02  0.00000000000E+00 0. -1.
         11    1    4    4    0    0  0.27809542282E+02  0.14484182910E+02  0.11837034372E+03  0.12245284999E+03  0.00000000000E+00 0.  1.
        -13    1    3    3    0    0  0.35476009535E+02 -0.48271726065E+02 -0.47148125252E+02  0.76234195114E+02  0.00000000000E+00 0. -1.
         13    1    3    3    0    0 -0.59639271479E+02 -0.59705686904E+02 -0.71215091983E+02  0.11042282861E+03  0.00000000000E+00 0.  1.
          3    1    1    2  501    0 -0.44021431066E+02  0.42117836789E+02  0.10086868845E+03  0.11784010726E+03  0.00000000000E+00 0. -1.
<scales pt_clust_5="13000.00000" pt_clust_6="13000.00000" pt_clust_7="13000.00000" pt_clust_8="13000.00000" pt_clust_9="60.92453"></scales>
<clustering>
<clus scale="   60.925">  1  9  2 -1</clus>
<clus scale="   92.672">  7  8 -1 -1</clus>
<clus scale="   93.020">  5  6 -1 -1</clus>
<clus scale="  140.485">  2  7  1 -1</clus>
<clus scale="   60.925">  1  5  2 -1</clus>
</clustering>
</event>
<event>
 9    1  0.1445593E-005  0.1080858E+03  0.7546771E-02  0.1264727E+00
          1   -1    0    0  502    0 -0.00000000000E+00  0.00000000000E+00  0.43312834760E+03  0.43312834760E+03  0.00000000000E+00 0. -1.
         21   -1    0    0  501  502  0.00000000000E+00 -0.00000000000E+00 -0.99178025836E+02  0.99178025836E+02  0.00000000000E+00 0. -1.
         23    2    1    2    0    0 -0.38783592433E+02  0.43879681722E+02  0.32318365060E+03  0.34041573417E+03  0.89474055134E+02 0.  0.
         23    2    1    2    0    0  0.21566933098E+02 -0.57325581286E+02 -0.54968506492E+02  0.12262073848E+03  0.90900791675E+02 0.  0.
        -13    1    3    3    0    0  0.86839489508E+01 -0.20659182175E+02  0.37260068728E+02  0.43480173632E+02  0.00000000000E+00 0.  1.
         13    1    3    3    0    0 -0.47467541384E+02  0.64538863897E+02  0.28592358188E+03  0.29693556054E+03  0.00000000000E+00 0. -1.
        -13    1    4    4    0    0 -0.15022837886E+02  0.17817390881E+02 -0.13966794642E+01  0.23347286555E+02  0.00000000000E+00 0.  1.
         13    1    4    4    0    0  0.36589770984E+02 -0.75142972167E+02 -0.53571827027E+02  0.99273451928E+02  0.00000000000E+00 0. -1.
          1    1    1    2  501    0  0.17216659335E+02  0.13445899564E+02  0.65735177651E+02  0.69269900784E+02  0.00000000000E+00 0. -1.
<scales pt_clust_5="13000.00000" pt_clust_6="13000.00000" pt_clust_7="13000.00000" pt_clust_8="13000.00000" pt_clust_9="21.84505"></scales>
<clustering>
<clus scale="   21.845">  2  9  1 -1</clus>
<clus scale="   89.474">  5  6 -1 -1</clus>
<clus scale="   90.901">  7  8 -1 -1</clus>
<clus scale="  106.889">  1  5  2 -1</clus>
<clus scale="   21.845">  2  5  1 -1</clus>
</clustering>
</event>
<event>
 9    1  0.1445593E-005  0.1111717E+03  0.7546771E-02  0.1259187E+00
         21   -1    0    0  501  502  0.00000000000E+00  0.00000000000E+00  0.27996884811E+03  0.27996884811E+03  0.00000000000E+00 0. -1.
         -2   -1    0    0    0  501 -0.00000000000E+00 -0.00000000000E+00 -0.34988572210E+03  0.34988572210E+03  0.00000000000E+00 0. -1.
         23    2    1    2    0    0 -0.52673389752E+02 -0.51431868744E+02 -0.21541465295E+03  0.24579911222E+03  0.92703871291E+02 0.  0.
         23    2    1    2    0    0  0.27104384644E+02  0.35035300895E+02 -0.96809743188E+02  0.13985153346E+03  0.90687402986E+02 0.  0.
        -13    1    4    4    0    0 -0.56240091656E+01  0.58679810057E+02 -0.69371248526E+02  0.91034717056E+02  0.00000000000E+00 0.  1.
         13    1    4    4    0    0  0.32728393809E+02 -0.23644509162E+02 -0.27438494662E+02  0.48816816407E+02  0.00000000000E+00 0. -1.
        -13    1    3    3    0    0 -0.32869206343E+02  0.36672622604E+01 -0.13768556584E+02  0.35824665924E+02  0.00000000000E+00 0.  1.
         13    1    3    3    0    0 -0.19804183409E+02 -0.55099131004E+02 -0.20164609637E+03  0.20997444630E+03  0.00000000000E+00 0. -1.
         -2    1    1    2    0  502  0.25569005109E+02  0.16396567849E+02  0.24230752215E+03  0.24420392452E+03  0.00000000000E+00 0. -1.
<scales pt_clust_5="13000.00000" pt_clust_6="13000.00000" pt_clust_7="13000.00000" pt_clust_8="13000.00000" pt_clust_9="30.37468"></scales>
<clustering>
<clus scale="   30.375">  1  9  2 -1</clus>
<clus scale="   90.687">  5  6 -1 -1</clus>
<clus scale="   92.704">  7  8 -1 -1</clus>
<clus scale="  109.496">  1  5  2 -1</clus>
<clus scale="   30.375">  1  5  2 -1</clus>
</clustering>
</event>
<event>
 9    1  0.1445593E-005  0.1590202E+03  0.7546771E-02  0.1190059E+00
         21   -1    0    0  501  502  0.00000000000E+00  0.00000000000E+00  0.80652695442E+02  0.80652695442E+02  0.00000000000E+00 0.  1.
          2   -1    0    0  502    0 -0.00000000000E+00 -0.00000000000E+00 -0.55873740497E+03  0.55873740497E+03  0.00000000000E+00 0. -1.
         23    2    1    2    0    0 -0.12313355203E+03 -0.54372088002E+02 -0.38591513920E+03  0.41872126184E+03  0.90987938038E+02 0.  0.
         23    2    1    2    0    0  0.12003463766E+03  0.24463248515E+02 -0.10846434477E+03  0.18646852243E+03  0.89438420188E+02 0.  0.
        -13    1    3    3    0    0 -0.11711713477E+03 -0.20443978718E+02 -0.34670316872E+03  0.36652075892E+03  0.00000000000E+00 0.  1.
         13    1    3    3    0    0 -0.60164172600E+01 -0.33928109283E+02 -0.39211970479E+02  0.52200502920E+02  0.00000000000E+00 0. -1.
        -13    1    4    4    0    0  0.88622827898E+02  0.57303881881E+02 -0.83817469817E+02  0.13477057821E+03  0.00000000000E+00 0. -1.
         13    1    4    4    0    0  0.31411809762E+02 -0.32840633366E+02 -0.24646874955E+02  0.51697944229E+02  0.00000000000E+00 0.  1.
          2    1    1    2  501    0  0.30989143675E+01  0.29908839486E+02  0.16294774442E+02  0.34200316136E+02  0.00000000000E+00 0. -1.
<scales pt_clust_5="13000.00000" pt_clust_6="13000.00000" pt_clust_7="13000.00000" pt_clust_8="13000.00000" pt_clust_9="30.06895"></scales>
<clustering>
<clus scale="   30.069">  1  9  2 -1</clus>
<clus scale="   89.438">  7  8 -1 -1</clus>
<clus scale="   90.988">  5  6 -1 -1</clus>
<clus scale="  158.139">  1  7  2 -1</clus>
<clus scale="   30.069">  1  5  2 -1</clus>
</clustering>
</event>
<event>
 9    1  0.1707063E-005  0.9554444E+02  0.7546771E-02  0.1291260E+00
         21   -1    0    0  501  502  0.00000000000E+00  0.00000000000E+00  0.24998565887E+03  0.24998565887E+03  0.00000000000E+00 0.  1.
          2   -1    0    0  502    0 -0.00000000000E+00 -0.00000000000E+00 -0.90204441659E+02  0.90204441659E+02  0.00000000000E+00 0. -1.
         23    2    1    2    0    0  0.10950126279E+02 -0.18457977381E+02 -0.35409192093E+02  0.99307128042E+02  0.90263462158E+02 0.  0.
         23    2    1    2    0    0  0.14627733232E+02  0.43436985207E+02  0.16159221371E+03  0.19182161828E+03  0.92643118714E+02 0.  0.
        -13    1    3    3    0    0  0.33172986575E+02  0.26583471844E+02 -0.17758915936E+02  0.46070675150E+02  0.00000000000E+00 0.  1.
         13    1    3    3    0    0 -0.22222860295E+02 -0.45041449225E+02 -0.17650276157E+02  0.53236452891E+02  0.00000000000E+00 0. -1.
        -13    1    4    4    0    0 -0.25176514607E+01 -0.23404441873E+02  0.87334734447E+02  0.90451436192E+02  0.00000000000E+00 0. -1.
         13    1    4    4    0    0  0.17145384692E+02  0.66841427080E+02  0.74257479267E+02  0.10137018209E+03  0.00000000000E+00 0.  1.
          2    1    1    2  501    0 -0.25577859511E+02 -0.24979007826E+02  0.33598195586E+02  0.49061354198E+02  0.00000000000E+00 0. -1.
<scales pt_clust_5="13000.00000" pt_clust_6="13000.00000" pt_clust_7="13000.00000" pt_clust_8="13000.00000" pt_clust_9="35.75161"></scales>
<clustering>
<clus scale="   35.752">  1  9  2 -1</clus>
<clus scale="   90.263">  5  6 -1 -1</clus>
<clus scale="   92.643">  7  8 -1 -1</clus>
<clus scale="   93.239">  2  5  1 -1</clus>
<clus scale="   35.752">  1  5  2 -1</clus>
</clustering>
</event>
<event>
 9    1  0.1445593E-005  0.1067318E+03  0.7546771E-02  0.1267308E+00
         21   -1    0    0  501  502  0.00000000000E+00  0.00000000000E+00  0.14328054920E+03  0.14328054920E+03  0.00000000000E+00 0.  1.
          2   -1    0    0  502    0 -0.00000000000E+00 -0.00000000000E+00 -0.14859846100E+03  0.14859846100E+03  0.00000000000E+00 0. -1.
         23    2    1    2    0    0 -0.16642689238E+01  0.54505685538E+02 -0.65171506700E+02  0.12409755009E+03  0.90439134820E+02 0.  0.
         23    2    1    2    0    0  0.37655043000E+02 -0.49402129112E+02  0.17900094187E+02  0.11227039518E+03  0.91791914882E+02 0.  0.
        -13    1    3    3    0    0  0.73980692534E+01 -0.22641506924E+02 -0.31359344580E+02  0.39379915654E+02  0.00000000000E+00 0.  1.
         13    1    3    3    0    0 -0.90623381773E+01  0.77147192462E+02 -0.33812162120E+02  0.84717634441E+02  0.00000000000E+00 0. -1.
        -13    1    4    4    0    0  0.25627006268E+02 -0.74158417592E+02  0.27468841255E+02  0.83130930404E+02  0.00000000000E+00 0.  1.
         13    1    4    4    0    0  0.12028036732E+02  0.24756288480E+02 -0.95687470684E+01  0.29139464775E+02  0.00000000000E+00 0. -1.
          2    1    1    2  501    0 -0.35990774076E+02 -0.51035564260E+01  0.41953500715E+02  0.55511064924E+02  0.00000000000E+00 0. -1.
<scales pt_clust_5="13000.00000" pt_clust_6="13000.00000" pt_clust_7="13000.00000" pt_clust_8="13000.00000" pt_clust_9="36.35082"></scales>
<clustering>
<clus scale="   36.351">  1  9  2 -1</clus>
<clus scale="   90.439">  5  6 -1 -1</clus>
<clus scale="   91.792">  7  8 -1 -1</clus>
<clus scale="  105.571">  2  5  1 -1</clus>
<clus scale="   36.351">  1  5  2 -1</clus>
</clustering>
</event>
<event>
 9    1  0.1445593E-005  0.1021276E+03  0.7546771E-02  0.1277050E+00
         21   -1    0    0  501  502  0.00000000000E+00  0.00000000000E+00  0.12465162951E+03  0.12465162951E+03  0.00000000000E+00 0. -1.
          1   -1    0    0  502    0 -0.00000000000E+00 -0.00000000000E+00 -0.32986695124E+03  0.32986695124E+03  0.00000000000E+00 0. -1.
         23    2    1    2    0    0  0.24040498105E+02 -0.17707881247E+02 -0.24436924993E+03  0.26327175031E+03  0.93296139237E+02 0.  0.
         23    2    1    2    0    0 -0.50681389772E+02  0.38909013755E+02 -0.25783153755E+02  0.11792528012E+03  0.95703114124E+02 0.  0.
        -11    1    3    3    0    0  0.45743194720E+02  0.13879729070E+02 -0.70162239586E+02  0.84898919934E+02  0.00000000000E+00 0.  1.
         11    1    3    3    0    0 -0.21702696616E+02 -0.31587610317E+02 -0.17420701034E+03  0.17837283038E+03  0.00000000000E+00 0. -1.
        -11    1    4    4    0    0  0.24093794529E+02  0.76245011859E+01  0.12602751577E+02  0.28239569764E+02  0.00000000000E+00 0.  1.
         11    1    4    4    0    0 -0.74775184300E+02  0.31284512569E+02 -0.38385905332E+02  0.89685710356E+02  0.00000000000E+00 0. -1.
          1    1    1    2  501    0  0.26640891667E+02 -0.21201132508E+02  0.64937081955E+02  0.73321550319E+02  0.00000000000E+00 0. -1.
<scales pt_clust_5="13000.00000" pt_clust_6="13000.00000" pt_clust_7="13000.00000" pt_clust_8="13000.00000" pt_clust_9="34.04740"></scales>
<clustering>
<clus scale="   34.047">  1  9  2 -1</clus>
<clus scale="   93.296">  5  6 -1 -1</clus>
<clus scale="   95.703">  7  8 -1 -1</clus>
<clus scale="   99.876">  2  5  1 -1</clus>
<clus scale="   34.047">  1  5  2 -1</clus>
</clustering>
</event>
<event>
 9    1  0.1445593E-005  0.1449462E+03  0.7546771E-02  0.1207056E+00
          2   -1    0    0  502    0 -0.00000000000E+00  0.00000000000E+00  0.77640559438E+03  0.77640559438E+03  0.00000000000E+00 0. -1.
         21   -1    0    0  501  502  0.00000000000E+00 -0.00000000000E+00 -0.51181815434E+02  0.51181815434E+02  0.00000000000E+00 0.  1.
         23    2    1    2    0    0 -0.89870999232E+02 -0.45234225408E+02  0.36101537269E+03  0.38514831700E+03  0.88792990293E+02 0.  0.
         23    2    1    2    0    0  0.11950430575E+03  0.53893533184E+02  0.37689830407E+03  0.40906020767E+03  0.89956266463E+02 0.  0.
        -13    1    3    3    0    0 -0.26972595125E+01  0.19911517071E+02  0.10592558344E+03  0.10781453032E+03  0.00000000000E+00 0. -1.
         13    1    3    3    0    0 -0.87173739720E+02 -0.65145742480E+02  0.25508978925E+03  0.27733378669E+03  0.00000000000E+00 0.  1.
        -13    1    4    4    0    0  0.10748295913E+03  0.71854009169E+02  0.35697201739E+03  0.37966380699E+03  0.00000000000E+00 0. -1.
         13    1    4    4    0    0  0.12021346620E+02 -0.17960475985E+02  0.19926286678E+02  0.29396400680E+02  0.00000000000E+00 0.  1.
          2    1    1    2  501    0 -0.29633306516E+02 -0.86593077757E+01 -0.12689897815E+02  0.33378885134E+02  0.00000000000E+00 0. -1.
<scales pt_clust_5="13000.00000" pt_clust_6="13000.00000" pt_clust_7="13000.00000" pt_clust_8="13000.00000" pt_clust_9="30.87258"></scales>
<clustering>
<clus scale="   30.873">  2  9  1 -1</clus>
<clus scale="   88.793">  5  6 -1 -1</clus>
<clus scale="   89.956">  7  8 -1 -1</clus>
<clus scale="  144.227">  1  5  2 -1</clus>
<clus scale="   30.873">  2  5  1 -1</clus>
</clustering>
</event>
<event>
 9    1  0.1445593E-005  0.3387520E+03  0.7546771E-02  0.1067368E+00
         -1   -1    0    0    0  501 -0.00000000000E+00  0.00000000000E+00  0.18282267778E+04  0.18282267778E+04  0.00000000000E+00 0.  1.
         21   -1    0    0  501  502  0.00000000000E+00 -0.00000000000E+00 -0.87362577204E+02  0.87362577204E+02  0.00000000000E+00 0.  1.
         23    2    1    2    0    0  0.16835561436E+03 -0.31505038236E+03  0.12050280073E+04  0.12600717051E+04  0.89932459096E+02 0.  0.
         23    2    1    2    0    0 -0.15535260914E+03  0.22888956192E+03  0.41403668309E+03  0.50575822349E+03  0.88544570455E+02 0.  0.
        -11    1    4    4    0    0 -0.13675905634E+03  0.13065977110E+03  0.24719087301E+03  0.31125286019E+03  0.00000000000E+00 0.  1.
         11    1    4    4    0    0 -0.18593552795E+02  0.98229790820E+02  0.16684581008E+03  0.19450536330E+03  0.00000000000E+00 0. -1.
        -13    1    3    3    0    0  0.14892607220E+02 -0.44457545557E+02  0.79019049034E+02  0.91881843783E+02  0.00000000000E+00 0. -1.
         13    1    3    3    0    0  0.15346300714E+03 -0.27059283681E+03  0.11260089583E+04  0.11681898613E+04  0.00000000000E+00 0.  1.
         -1    1    1    2    0  502 -0.13003005217E+02  0.86160820446E+02  0.12179951014E+03  0.14975942640E+03  0.00000000000E+00 0.  1.
<scales pt_clust_5="13000.00000" pt_clust_6="13000.00000" pt_clust_7="13000.00000" pt_clust_8="13000.00000" pt_clust_9="87.13647"></scales>
<clustering>
<clus scale="   87.136">  2  9  1 -1</clus>
<clus scale="   88.545">  5  6 -1 -1</clus>
<clus scale="   89.932">  7  8 -1 -1</clus>
<clus scale="  338.386">  2  5  1 -1</clus>
<clus scale="   87.136">  2  5  1 -1</clus>
</clustering>
</event>
<event>
 9    1  0.1445593E-005  0.9848722E+02  0.7546771E-02  0.1283975E+00
          1   -1    0    0  502    0 -0.00000000000E+00  0.00000000000E+00  0.13092644174E+03  0.13092644174E+03  0.00000000000E+00 0. -1.
         21   -1    0    0  501  502  0.00000000000E+00 -0.00000000000E+00 -0.11336307066E+03  0.11336307066E+03  0.00000000000E+00 0. -1.
         23    2    1    2    0    0 -0.32635759414E+02  0.20282829783E+02  0.48101549550E+02  0.11072166380E+03  0.92027396948E+02 0.  0.
         23    2    1    2    0    0  0.11308154130E+02 -0.32903896414E+02 -0.45036779582E+01  0.97624096895E+02  0.91102362376E+02 0.  0.
        -11    1    3    3    0    0 -0.47211654225E+02 -0.24056745398E+02  0.27580929736E+02  0.59735876816E+02  0.00000000000E+00 0. -1.
         11    1    3    3    0    0  0.14575894811E+02  0.44339575182E+02  0.20520619813E+02  0.50985786984E+02  0.00000000000E+00 0.  1.
        -13    1    4    4    0    0  0.17220568743E+02 -0.58076490791E+02  0.18160829901E+02  0.63239564460E+02  0.00000000000E+00 0. -1.
         13    1    4    4    0    0 -0.59124146131E+01  0.25172594378E+02 -0.22664507859E+02  0.34384532435E+02  0.00000000000E+00 0.  1.
          1    1    1    2  501    0  0.21327605283E+02  0.12621066630E+02 -0.26034500505E+02  0.35943751704E+02  0.00000000000E+00 0. -1.
<scales pt_clust_5="13000.00000" pt_clust_6="13000.00000" pt_clust_7="13000.00000" pt_clust_8="13000.00000" pt_clust_9="24.78221"></scales>
<clustering>
<clus scale="   24.782">  2  9  1 -1</clus>
<clus scale="   91.102">  7  8 -1 -1</clus>
<clus scale="   92.027">  5  6 -1 -1</clus>
<clus scale="   97.623">  2  7  1 -1</clus>
<clus scale="   24.782">  2  5  1 -1</clus>
</clustering>
</event>
<event>
 9    1  0.1445593E-005  0.1176845E+03  0.7546771E-02  0.1247025E+00
         21   -1    0    0  501  502  0.00000000000E+00  0.00000000000E+00  0.11598482594E+03  0.11598482594E+03  0.00000000000E+00 0.  1.
         -4   -1    0    0    0  501 -0.00000000000E+00 -0.00000000000E+00 -0.37045958712E+03  0.37045958712E+03  0.00000000000E+00 0.  1.
         23    2    1    2    0    0 -0.51428653711E+02  0.67824123072E+02 -0.18970080740E+03  0.22692224759E+03  0.90897150833E+02 0.  0.
         23    2    1    2    0    0  0.76166886410E+01 -0.67974771537E+02 -0.13507419160E+03  0.17668718242E+03  0.91075461487E+02 0.  0.
        -11    1    3    3    0    0  0.23160986511E+02  0.11090473863E+02 -0.18158915805E+02  0.31451170564E+02  0.00000000000E+00 0. -1.
         11    1    3    3    0    0 -0.74589640222E+02  0.56733649209E+02 -0.17154189160E+03  0.19547107703E+03  0.00000000000E+00 0.  1.
        -13    1    4    4    0    0  0.40168842715E+02 -0.51751536644E+02 -0.44809220110E+02  0.79370168684E+02  0.00000000000E+00 0. -1.
         13    1    4    4    0    0 -0.32552154074E+02 -0.16223234893E+02 -0.90264971486E+02  0.97317013736E+02  0.00000000000E+00 0.  1.
         -4    1    1    2    0  502  0.43811965070E+02  0.15064846477E+00  0.70300237822E+02  0.82834983045E+02  0.00000000000E+00 0.  1.
<scales pt_clust_5="13000.00000" pt_clust_6="13000.00000" pt_clust_7="13000.00000" pt_clust_8="13000.00000" pt_clust_9="43.81222"></scales>
<clustering>
<clus scale="   43.812">  1  9  2 -1</clus>
<clus scale="   90.897">  5  6 -1 -1</clus>
<clus scale="   91.075">  7  8 -1 -1</clus>
<clus scale="  117.547">  2  5  1 -1</clus>
<clus scale="   43.812">  1  5  2 -1</clus>
</clustering>
</event>
<event>
 9    1  0.1445593E-005  0.9952998E+02  0.7546771E-02  0.1281400E+00
         21   -1    0    0  501  502  0.00000000000E+00  0.00000000000E+00  0.26340814276E+03  0.26340814276E+03  0.00000000000E+00 0.  1.
          3   -1    0    0  502    0 -0.00000000000E+00 -0.00000000000E+00 -0.78500892500E+02  0.78500892500E+02  0.00000000000E+00 0. -1.
         23    2    1    2    0    0  0.20154004660E+02 -0.89345502528E+01  0.31437607598E+02  0.99953929966E+02  0.92284640391E+02 0.  0.
         23    2    1    2    0    0 -0.30103170982E+02  0.48107849429E+02  0.30276196834E+02  0.11230111047E+03  0.92056098321E+02 0.  0.
        -13    1    3    3    0    0 -0.27202455716E+02 -0.16421779094E+01 -0.16758996535E+02  0.31992722769E+02  0.00000000000E+00 0. -1.
         13    1    3    3    0    0  0.47356460376E+02 -0.72923723434E+01  0.48196604133E+02  0.67961207197E+02  0.00000000000E+00 0.  1.
        -13    1    4    4    0    0  0.29509979944E+02  0.14952781339E+02 -0.80654415227E+01  0.34051078295E+02  0.00000000000E+00 0.  1.
         13    1    4    4    0    0 -0.59613150927E+02  0.33155068090E+02  0.38341638357E+02  0.78250032175E+02  0.00000000000E+00 0. -1.
          3    1    1    2  501    0  0.99491663226E+01 -0.39173299176E+02  0.12319344583E+03  0.12965399482E+03  0.00000000000E+00 0. -1.
<scales pt_clust_5="13000.00000" pt_clust_6="13000.00000" pt_clust_7="13000.00000" pt_clust_8="13000.00000" pt_clust_9="40.41699"></scales>
<clustering>
<clus scale="   40.417">  1  9  2 -1</clus>
<clus scale="   92.056">  7  8 -1 -1</clus>
<clus scale="   92.285">  5  6 -1 -1</clus>
<clus scale="   99.318">  1  7  2 -1</clus>
<clus scale="   40.417">  1  5  2 -1</clus>
</clustering>
</event>
<event>
 9    1  0.1445593E-005  0.1169712E+03  0.7546771E-02  0.1248326E+00
          1   -1    0    0  502    0 -0.00000000000E+00  0.00000000000E+00  0.15932904544E+03  0.15932904544E+03  0.00000000000E+00 0. -1.
         21   -1    0    0  501  502  0.00000000000E+00 -0.00000000000E+00 -0.26644353596E+03  0.26644353596E+03  0.00000000000E+00 0. -1.
         23    2    1    2    0    0  0.34017432108E+02  0.58587690936E+02  0.97255780142E+02  0.14990742625E+03  0.91781514784E+02 0.  0.
         23    2    1    2    0    0 -0.74813184428E+02 -0.75204759249E+02 -0.14099966295E+03  0.19868838217E+03  0.91342213026E+02 0.  0.
        -11    1    3    3    0    0  0.44274528147E+02  0.14289178763E+01  0.10525605425E+02  0.45530912779E+02  0.00000000000E+00 0.  1.
         11    1    3    3    0    0 -0.10257096039E+02  0.57158773060E+02  0.86730174717E+02  0.10437651347E+03  0.00000000000E+00 0. -1.
        -11    1    4    4    0    0 -0.71302619181E+02 -0.30257170737E+02 -0.13149603899E+03  0.15261313231E+03  0.00000000000E+00 0.  1.
         11    1    4    4    0    0 -0.35105652466E+01 -0.44947588513E+02 -0.95036239564E+01  0.46075249861E+02  0.00000000000E+00 0. -1.
          1    1    1    2  501    0  0.40795752320E+02  0.16617068313E+02 -0.63370607713E+02  0.77176772986E+02  0.00000000000E+00 0. -1.
<scales pt_clust_5="13000.00000" pt_clust_6="13000.00000" pt_clust_7="13000.00000" pt_clust_8="13000.00000" pt_clust_9="44.05020"></scales>
<clustering>
<clus scale="   44.050">  2  9  1 -1</clus>
<clus scale="   91.342">  7  8 -1 -1</clus>
<clus scale="   91.782">  5  6 -1 -1</clus>
<clus scale="  116.627">  2  7  1 -1</clus>
<clus scale="   44.050">  2  5  1 -1</clus>
</clustering>
</event>
<event>
 9    1  0.1445593E-005  0.1909205E+03  0.7546771E-02  0.1157764E+00
         21   -1    0    0  501  502  0.00000000000E+00  0.00000000000E+00  0.47679538265E+03  0.47679538265E+03  0.00000000000E+00 0. -1.
          2   -1    0    0  502    0 -0.00000000000E+00 -0.00000000000E+00 -0.24061886400E+03  0.24061886400E+03  0.00000000000E+00 0. -1.
         23    2    1    2    0    0  0.15272811106E+03  0.14405014850E+03 -0.12588002871E+03  0.26106483897E+03  0.90734488070E+02 0.  0.
         23    2    1    2    0    0 -0.84156939656E+02 -0.41891266281E+02  0.90556587737E+02  0.15827111118E+03  0.89509666336E+02 0.  0.
        -13    1    3    3    0    0  0.12864181452E+03  0.87225266403E+02 -0.12481257265E+03  0.19933675485E+03  0.00000000000E+00 0. -1.
         13    1    3    3    0    0  0.24086296545E+02  0.56824882097E+02 -0.10674560596E+01  0.61728084119E+02  0.00000000000E+00 0.  1.
        -13    1    4    4    0    0 -0.70849693494E+02  0.98282056637E+01  0.72631162441E+02  0.10193899378E+03  0.00000000000E+00 0.  1.
         13    1    4    4    0    0 -0.13307246162E+02 -0.51719471945E+02  0.17925425295E+02  0.56332117399E+02  0.00000000000E+00 0. -1.
          2    1    1    2  501    0 -0.68571171406E+02 -0.10215888222E+03  0.27149995963E+03  0.29807829650E+03  0.00000000000E+00 0. -1.
<scales pt_clust_5="13000.00000" pt_clust_6="13000.00000" pt_clust_7="13000.00000" pt_clust_8="13000.00000" pt_clust_9="123.03838"></scales>
<clustering>
<clus scale="   89.510">  7  8 -1 -1</clus>
<clus scale="   90.734">  5  6 -1 -1</clus>
<clus scale="  123.038">  1  9  2 -1</clus>
<clus scale="  190.341">  1  7  2 -1</clus>
<clus scale="  123.038">  1  5  2 -1</clus>
</clustering>
</event>
<event>
 9    1  0.1445593E-005  0.1159268E+03  0.7546771E-02  0.1250387E+00
          2   -1    0    0  502    0 -0.00000000000E+00  0.00000000000E+00  0.30341603374E+03  0.30341603374E+03  0.00000000000E+00 0. -1.
         21   -1    0    0  501  502  0.00000000000E+00 -0.00000000000E+00 -0.15944554352E+03  0.15944554352E+03  0.00000000000E+00 0. -1.
         23    2    1    2    0    0 -0.26192051734E+02  0.76892292196E+02  0.21643128423E+03  0.24936617922E+03  0.93501563475E+02 0.  0.
         23    2    1    2    0    0 -0.16612263175E+02 -0.42021988334E+02  0.21041262449E+02  0.10491003055E+03  0.92312323090E+02 0.  0.
        -11    1    4    4    0    0  0.29051648739E+02 -0.47656799431E+02  0.18614015480E+02  0.58835791817E+02  0.00000000000E+00 0.  1.
         11    1    4    4    0    0 -0.45663911914E+02  0.56348110975E+01  0.24272469687E+01  0.46074238737E+02  0.00000000000E+00 0. -1.
        -11    1    3    3    0    0 -0.30787212661E+02 -0.24619460859E+01  0.18335690383E+02  0.35918117765E+02  0.00000000000E+00 0.  1.
         11    1    3    3    0    0  0.45951609274E+01  0.79354238282E+02  0.19809559385E+03  0.21344806146E+03  0.00000000000E+00 0. -1.
          2    1    1    2  501    0  0.42804314909E+02 -0.34870303862E+02 -0.93502056465E+02  0.10858536747E+03  0.00000000000E+00 0. -1.
<scales pt_clust_5="13000.00000" pt_clust_6="13000.00000" pt_clust_7="13000.00000" pt_clust_8="13000.00000" pt_clust_9="55.21003"></scales>
<clustering>
<clus scale="   55.210">  2  9  1 -1</clus>
<clus scale="   92.312">  5  6 -1 -1</clus>
<clus scale="   93.502">  7  8 -1 -1</clus>
<clus scale="  114.970">  2  5  1 -1</clus>
<clus scale="   55.210">  2  5  1 -1</clus>
</clustering>
</event>
<event>
 9    1  0.1445593E-005  0.9396403E+02  0.7546771E-02  0.1293707E+00
         21   -1    0    0  501  502  0.00000000000E+00  0.00000000000E+00  0.67324816753E+02  0.67324816753E+02  0.00000000000E+00 0. -1.
          2   -1    0    0  502    0 -0.00000000000E+00 -0.00000000000E+00 -0.38427202633E+03  0.38427202633E+03  0.00000000000E+00 0. -1.
         23    2    1    2    0    0  0.18538971023E+02 -0.25069758330E+02 -0.30600837780E+03  0.32059709033E+03  0.90383520734E+02 0.  0.
         23    2    1    2    0    0  0.14396172175E+02  0.44039309780E+01 -0.12078460957E+02  0.92101181660E+02  0.90056060667E+02 0.  0.
        -11    1    4    4    0    0 -0.33048553836E+02 -0.10697583960E+02 -0.22291796113E+02  0.41274318736E+02  0.00000000000E+00 0.  1.
         11    1    4    4    0    0  0.47444726011E+02  0.15101514938E+02  0.10213335156E+02  0.50826862924E+02  0.00000000000E+00 0. -1.
        -13    1    3    3    0    0  0.39605832147E+02  0.19977271363E+02 -0.11610449665E+03  0.12428985258E+03  0.00000000000E+00 0. -1.
         13    1    3    3    0    0 -0.21066861124E+02 -0.45047029693E+02 -0.18990388115E+03  0.19630723776E+03  0.00000000000E+00 0.  1.
          2    1    1    2  501    0 -0.32935143198E+02  0.20665827352E+02  0.11396291806E+01  0.38898571083E+02  0.00000000000E+00 0. -1.
<scales pt_clust_5="13000.00000" pt_clust_6="13000.00000" pt_clust_7="13000.00000" pt_clust_8="13000.00000" pt_clust_9="38.88187"></scales>
<clustering>
<clus scale="   38.882">  1  9  2 -1</clus>
<clus scale="   90.056">  5  6 -1 -1</clus>
<clus scale="   90.384">  7  8 -1 -1</clus>
<clus scale="   93.649">  1  5  2 -1</clus>
<clus scale="   38.882">  1  5  2 -1</clus>
</clustering>
</event>
<event>
 9    1  0.1445593E-005  0.1053097E+03  0.7546771E-02  0.1272834E+00
          1   -1    0    0  502    0 -0.00000000000E+00  0.00000000000E+00  0.27959059339E+03  0.27959059339E+03  0.00000000000E+00 0. -1.
         21   -1    0    0  501  502  0.00000000000E+00 -0.00000000000E+00 -0.21442953542E+03  0.21442953542E+03  0.00000000000E+00 0.  1.
         23    2    1    2    0    0 -0.37233545808E+02  0.16010844367E+02  0.24880348585E+03  0.27016098996E+03  0.97165332587E+02 0.  0.
         23    2    1    2    0    0  0.47941649980E+02  0.70640586082E+01 -0.14031248374E+03  0.17361375397E+03  0.90032437200E+02 0.  0.
        -11    1    3    3    0    0 -0.13394440292E+02  0.49223581734E+02  0.69245448499E+02  0.86007582034E+02  0.00000000000E+00 0.  1.
         11    1    3    3    0    0 -0.23839105517E+02 -0.33212737367E+02  0.17955803735E+03  0.18415340793E+03  0.00000000000E+00 0. -1.
        -11    1    4    4    0    0  0.12559087038E+02  0.36766393721E+02 -0.11402242131E+03  0.12045999725E+03  0.00000000000E+00 0.  1.
         11    1    4    4    0    0  0.35382562943E+02 -0.29702335113E+02 -0.26290062423E+02  0.53153756723E+02  0.00000000000E+00 0. -1.
          1    1    1    2  501    0 -0.10708104172E+02 -0.23074902975E+02 -0.43329944137E+02  0.50245384874E+02  0.00000000000E+00 0. -1.
<scales pt_clust_5="13000.00000" pt_clust_6="13000.00000" pt_clust_7="13000.00000" pt_clust_8="13000.00000" pt_clust_9="25.43845"></scales>
<clustering>
<clus scale="   25.438">  2  9  1 -1</clus>
<clus scale="   90.032">  7  8 -1 -1</clus>
<clus scale="   97.165">  5  6 -1 -1</clus>
<clus scale="   98.767">  2  7  1 -1</clus>
<clus scale="   25.438">  2  5  1 -1</clus>
</clustering>
</event>
<event>
 9    1  0.1445593E-005  0.1174824E+03  0.7546771E-02  0.1247685E+00
          2   -1    0    0  502    0 -0.00000000000E+00  0.00000000000E+00  0.10117859749E+03  0.10117859749E+03  0.00000000000E+00 0. -1.
         21   -1    0    0  501  502  0.00000000000E+00 -0.00000000000E+00 -0.36948841865E+03  0.36948841865E+03  0.00000000000E+00 0.  1.
         23    2    1    2    0    0  0.52676752380E+02  0.60184405599E+02  0.41659631146E+02  0.12823264235E+03  0.91165140154E+02 0.  0.
         23    2    1    2    0    0 -0.15671175215E+02 -0.31986577643E+02 -0.21614718010E+03  0.23771021705E+03  0.92292019918E+02 0.  0.
        -11    1    3    3    0    0 -0.57372804811E+01  0.62439134240E+02  0.18741828326E+02  0.65443242592E+02  0.00000000000E+00 0.  1.
         11    1    3    3    0    0  0.58414032862E+02 -0.22547286412E+01  0.22917802820E+02  0.62789399762E+02  0.00000000000E+00 0. -1.
        -11    1    4    4    0    0 -0.40769803507E+02  0.16154728913E+02 -0.81929018009E+02  0.92927477832E+02  0.00000000000E+00 0.  1.
         11    1    4    4    0    0  0.25098628292E+02 -0.48141306556E+02 -0.13421816209E+03  0.14478273922E+03  0.00000000000E+00 0. -1.
          2    1    1    2  501    0 -0.37005577165E+02 -0.28197827956E+02 -0.93822272208E+02  0.10472415674E+03  0.00000000000E+00 0. -1.
<scales pt_clust_5="13000.00000" pt_clust_6="13000.00000" pt_clust_7="13000.00000" pt_clust_8="13000.00000" pt_clust_9="46.52451"></scales>
<clustering>
<clus scale="   46.525">  2  9  1 -1</clus>
<clus scale="   91.165">  5  6 -1 -1</clus>
<clus scale="   92.292">  7  8 -1 -1</clus>
<clus scale="  116.599">  1  5  2 -1</clus>
<clus scale="   46.525">  2  5  1 -1</clus>
</clustering>
</event>
<event>
 9    1  0.1445593E-005  0.9775238E+02  0.7546771E-02  0.1286070E+00
         -2   -1    0    0    0  501 -0.00000000000E+00  0.00000000000E+00  0.86537538746E+02  0.86537538746E+02  0.00000000000E+00 0.  1.
         21   -1    0    0  501  502  0.00000000000E+00 -0.00000000000E+00 -0.30979452806E+03  0.30979452806E+03  0.00000000000E+00 0. -1.
         23    2    1    2    0    0 -0.14574820750E+02 -0.31320619272E+02  0.38914843966E+02  0.10442991648E+03  0.90541900706E+02 0.  0.
         23    2    1    2    0    0  0.36650550728E+02  0.40835815432E+02 -0.21696132720E+03  0.24069798378E+03  0.88614193015E+02 0.  0.
        -11    1    4    4    0    0  0.47746754857E+02 -0.81183292819E+01 -0.67833906558E+02  0.83349257637E+02  0.00000000000E+00 0. -1.
         11    1    4    4    0    0 -0.11096204130E+02  0.48954144714E+02 -0.14912742064E+03  0.15734872614E+03  0.00000000000E+00 0.  1.
        -13    1    3    3    0    0  0.24719970220E+02 -0.48149201354E+02  0.20297229643E+02  0.57804844519E+02  0.00000000000E+00 0.  1.
         13    1    3    3    0    0 -0.39294790969E+02  0.16828582081E+02  0.18617614324E+02  0.46625071960E+02  0.00000000000E+00 0. -1.
         -2    1    1    2    0  502 -0.22075729978E+02 -0.95151961601E+01 -0.45210506081E+02  0.51204166550E+02  0.00000000000E+00 0.  1.
<scales pt_clust_5="13000.00000" pt_clust_6="13000.00000" pt_clust_7="13000.00000" pt_clust_8="13000.00000" pt_clust_9="24.03907"></scales>
<clustering>
<clus scale="   24.039">  2  9  1 -1</clus>
<clus scale="   88.614">  5  6 -1 -1</clus>
<clus scale="   90.542">  7  8 -1 -1</clus>
<clus scale="   95.970">  2  5  1 -1</clus>
<clus scale="   24.039">  2  5  1 -1</clus>
</clustering>
</event>
<event>
 9    1  0.1445593E-005  0.1048338E+03  0.7546771E-02  0.1272553E+00
          2   -1    0    0  502    0 -0.00000000000E+00  0.00000000000E+00  0.40026716959E+03  0.40026716959E+03  0.00000000000E+00 0. -1.
         21   -1    0    0  501  502  0.00000000000E+00 -0.00000000000E+00 -0.18831523264E+03  0.18831523264E+03  0.00000000000E+00 0. -1.
         23    2    1    2    0    0 -0.20863397783E+02  0.46477747729E+02  0.29240666884E+03  0.31044140553E+03  0.90976611715E+02 0.  0.
         23    2    1    2    0    0 -0.32615066331E+02 -0.69453372392E+02  0.57148277304E+02  0.12873412405E+03  0.86133823837E+02 0.  0.
        -11    1    4    4    0    0 -0.61989572530E+02 -0.45218659355E+02  0.43980820276E+02  0.88440640027E+02  0.00000000000E+00 0. -1.
         11    1    4    4    0    0  0.29374506199E+02 -0.24234713037E+02  0.13167457028E+02  0.40293484027E+02  0.00000000000E+00 0.  1.
        -13    1    3    3    0    0 -0.20713059362E+02  0.73761700226E+02  0.22664852214E+03  0.23924751166E+03  0.00000000000E+00 0. -1.
         13    1    3    3    0    0 -0.15033842100E+00 -0.27283952497E+02  0.65758146704E+02  0.71193893863E+02  0.00000000000E+00 0.  1.
          2    1    1    2  501    0  0.53478464114E+02  0.22975624663E+02 -0.13760300920E+03  0.14940687265E+03  0.00000000000E+00 0. -1.
<scales pt_clust_5="13000.00000" pt_clust_6="13000.00000" pt_clust_7="13000.00000" pt_clust_8="13000.00000" pt_clust_9="58.20503"></scales>
<clustering>
<clus scale="   58.205">  2  9  1 -1</clus>
<clus scale="   86.134">  5  6 -1 -1</clus>
<clus scale="   90.977">  7  8 -1 -1</clus>
<clus scale="  100.660">  2  5  1 -1</clus>
<clus scale="   58.205">  2  5  1 -1</clus>
</clustering>
</event>
<event>
 9    1  0.1445593E-005  0.1163454E+03  0.7546771E-02  0.1249526E+00
          2   -1    0    0  502    0 -0.00000000000E+00  0.00000000000E+00  0.93207611720E+03  0.93207611720E+03  0.00000000000E+00 0. -1.
         21   -1    0    0  501  502  0.00000000000E+00 -0.00000000000E+00 -0.27452700512E+02  0.27452700512E+02  0.00000000000E+00 0.  1.
         23    2    1    2    0    0 -0.24567014578E+02  0.66271217785E+02  0.58542128594E+03  0.59663536816E+03  0.90886016554E+02 0.  0.
         23    2    1    2    0    0 -0.25067811878E+01 -0.77148642514E+02  0.30989512879E+03  0.33226782186E+03  0.91699059963E+02 0.  0.
        -11    1    3    3    0    0 -0.22072177708E+02 -0.19299125824E+02  0.16546530752E+03  0.16804286738E+03  0.00000000000E+00 0.  1.
         11    1    3    3    0    0 -0.24948368695E+01  0.85570343609E+02  0.41995597842E+03  0.42859250078E+03  0.00000000000E+00 0. -1.
        -13    1    4    4    0    0 -0.41275583094E+02 -0.66257927859E+02  0.22828939150E+03  0.24126714040E+03  0.00000000000E+00 0.  1.
         13    1    4    4    0    0  0.38768801907E+02 -0.10890714655E+02  0.81605737290E+02  0.91000681457E+02  0.00000000000E+00 0. -1.
          2    1    1    2  501    0  0.27073795765E+02  0.10877424729E+02  0.93070019549E+01  0.30625627688E+02  0.00000000000E+00 0. -1.
<scales pt_clust_5="13000.00000" pt_clust_6="13000.00000" pt_clust_7="13000.00000" pt_clust_8="13000.00000" pt_clust_9="29.17720"></scales>
<clustering>
<clus scale="   29.177">  2  9  1 -1</clus>
<clus scale="   90.886">  5  6 -1 -1</clus>
<clus scale="   91.699">  7  8 -1 -1</clus>
<clus scale="  115.706">  1  5  2 -1</clus>
<clus scale="   29.177">  2  5  1 -1</clus>
</clustering>
</event>
<event>
 9    1  0.1731684E-005  0.1002684E+03  0.7546771E-02  0.1279973E+00
         21   -1    0    0  501  502  0.00000000000E+00  0.00000000000E+00  0.81277552181E+02  0.81277552181E+02  0.00000000000E+00 0.  1.
          1   -1    0    0  502    0 -0.00000000000E+00 -0.00000000000E+00 -0.28789146082E+03  0.28789146082E+03  0.00000000000E+00 0. -1.
         23    2    1    2    0    0 -0.61773127138E+01 -0.35006305769E+02 -0.17663751372E+03  0.20303666968E+03  0.93592079499E+02 0.  0.
         23    2    1    2    0    0 -0.39617660744E+02  0.36525638756E+02 -0.46814546283E+02  0.11731624651E+03  0.93101120418E+02 0.  0.
        -11    1    4    4    0    0  0.30387649630E+02  0.17315173065E+02 -0.15631639462E+02  0.38308910459E+02  0.00000000000E+00 0. -1.
         11    1    4    4    0    0 -0.70005310374E+02  0.19210465692E+02 -0.31182906822E+02  0.79007336055E+02  0.00000000000E+00 0.  1.
        -13    1    3    3    0    0 -0.22130371741E+02 -0.63329116010E+02 -0.12839899805E+03  0.14486763955E+03  0.00000000000E+00 0. -1.
         13    1    3    3    0    0  0.15953059027E+02  0.28322810241E+02 -0.48238515674E+02  0.58169030134E+02  0.00000000000E+00 0.  1.
          1    1    1    2  501    0  0.45794973458E+02 -0.15193329873E+01  0.16838151361E+02  0.48816096812E+02  0.00000000000E+00 0. -1.
<scales pt_clust_5="13000.00000" pt_clust_6="13000.00000" pt_clust_7="13000.00000" pt_clust_8="13000.00000" pt_clust_9="45.82017"></scales>
<clustering>
<clus scale="   45.820">  1  9  2 -1</clus>
<clus scale="   93.101">  5  6 -1 -1</clus>
<clus scale="   93.592">  7  8 -1 -1</clus>
<clus scale="   99.810">  1  5  2 -1</clus>
<clus scale="   45.820">  1  5  2 -1</clus>
</clustering>
</event>
<event>
 9    1  0.1445593E-005  0.9682923E+02  0.7546771E-02  0.1287855E+00
         21   -1    0    0  501  502  0.00000000000E+00  0.00000000000E+00  0.19893316617E+03  0.19893316617E+03  0.00000000000E+00 0. -1.
         -1   -1    0    0    0  501 -0.00000000000E+00 -0.00000000000E+00 -0.69273864437E+02  0.69273864437E+02  0.00000000000E+00 0.  1.
         23    2    1    2    0    0  0.39732532907E+02  0.25664438862E+02  0.24524313477E+02  0.10381783464E+03  0.89103104575E+02 0.  0.
         23    2    1    2    0    0 -0.17199653733E+02 -0.36796341805E+01  0.62618924937E+02  0.11148666369E+03  0.90547107212E+02 0.  0.
        -11    1    4    4    0    0 -0.43867870114E+02 -0.75405325149E+01  0.13248111569E+01  0.44530941867E+02  0.00000000000E+00 0. -1.
         11    1    4    4    0    0  0.26668216381E+02  0.38608983344E+01  0.61294113780E+02  0.66955721824E+02  0.00000000000E+00 0.  1.
        -11    1    3    3    0    0  0.20105011122E+02  0.41984556253E+02  0.49609014848E+02  0.68029176021E+02  0.00000000000E+00 0. -1.
         11    1    3    3    0    0  0.19627521785E+02 -0.16320117391E+02 -0.25084701370E+02  0.35788658621E+02  0.00000000000E+00 0.  1.
         -1    1    1    2    0  502 -0.22532879174E+02 -0.21984804681E+02  0.42516063316E+02  0.52902532270E+02  0.00000000000E+00 0.  1.
<scales pt_clust_5="13000.00000" pt_clust_6="13000.00000" pt_clust_7="13000.00000" pt_clust_8="13000.00000" pt_clust_9="31.48114"></scales>
<clustering>
<clus scale="   31.481">  1  9  2 -1</clus>
<clus scale="   89.103">  7  8 -1 -1</clus>
<clus scale="   90.547">  5  6 -1 -1</clus>
<clus scale="   95.480">  2  7  1 -1</clus>
<clus scale="   31.481">  1  5  2 -1</clus>
</clustering>
</event>
<event>
 9    1  0.1445593E-005  0.1048874E+03  0.7546771E-02  0.1271140E+00
          1   -1    0    0  502    0 -0.00000000000E+00  0.00000000000E+00  0.34555595096E+03  0.34555595096E+03  0.00000000000E+00 0. -1.
         21   -1    0    0  501  502  0.00000000000E+00 -0.00000000000E+00 -0.79140432349E+02  0.79140432349E+02  0.00000000000E+00 0. -1.
         23    2    1    2    0    0 -0.55754723466E+02 -0.13096286917E+02  0.22771383637E+03  0.25207533602E+03  0.91696683880E+02 0.  0.
         23    2    1    2    0    0  0.29813572881E+02  0.31153531709E+02  0.74820150147E+02  0.12462572348E+03  0.89856131788E+02 0.  0.
        -11    1    4    4    0    0  0.59481972309E+02  0.78955281962E+01  0.33616592294E+02  0.68778773417E+02  0.00000000000E+00 0.  1.
         11    1    4    4    0    0 -0.29668399428E+02  0.23258003513E+02  0.41203557853E+02  0.55846950067E+02  0.00000000000E+00 0. -1.
        -13    1    3    3    0    0 -0.80430437722E+02 -0.13013482405E+02  0.15225993969E+03  0.17268901318E+03  0.00000000000E+00 0. -1.
         13    1    3    3    0    0  0.24675714256E+02 -0.82804511195E-01  0.75453896673E+02  0.79386322838E+02  0.00000000000E+00 0.  1.
          1    1    1    2  501    0  0.25941150585E+02 -0.18057244792E+02 -0.36118467908E+02  0.47995323806E+02  0.00000000000E+00 0. -1.
<scales pt_clust_5="13000.00000" pt_clust_6="13000.00000" pt_clust_7="13000.00000" pt_clust_8="13000.00000" pt_clust_9="31.60708"></scales>
<clustering>
<clus scale="   31.607">  2  9  1 -1</clus>
<clus scale="   89.856">  5  6 -1 -1</clus>
<clus scale="   91.697">  7  8 -1 -1</clus>
<clus scale="  103.282">  2  5  1 -1</clus>
<clus scale="   31.607">  2  5  1 -1</clus>
</clustering>
</event>
<event>
 9    1  0.1445593E-005  0.1080645E+03  0.7546771E-02  0.1266232E+00
         21   -1    0    0  501  502  0.00000000000E+00  0.00000000000E+00  0.27884586587E+03  0.27884586587E+03  0.00000000000E+00 0.  1.
          3   -1    0    0  502    0 -0.00000000000E+00 -0.00000000000E+00 -0.65225497680E+02  0.65225497680E+02  0.00000000000E+00 0. -1.
         23    2    1    2    0    0 -0.42095908696E+02  0.22881136871E+02  0.21174786228E+02  0.10753406769E+03  0.93912683855E+02 0.  0.
         23    2    1    2    0    0  0.52527879538E+02 -0.45043613132E+02  0.15223421036E+03  0.18945273601E+03  0.89044815496E+02 0.  0.
        -11    1    3    3    0    0 -0.50160204826E+02  0.53239226620E+02  0.84107958616E+01  0.73628818314E+02  0.00000000000E+00 0. -1.
         11    1    3    3    0    0  0.80642961299E+01 -0.30358089749E+02  0.12763990366E+02  0.33905249377E+02  0.00000000000E+00 0.  1.
        -13    1    4    4    0    0 -0.48227232600E+01 -0.52195716166E+02  0.92605571678E+02  0.10641166925E+03  0.00000000000E+00 0.  1.
         13    1    4    4    0    0  0.57350602798E+02  0.71521030346E+01  0.59628638681E+02  0.83041066768E+02  0.00000000000E+00 0. -1.
          3    1    1    2  501    0 -0.10431970841E+02  0.22162476261E+02  0.40211371608E+02  0.47084559850E+02  0.00000000000E+00 0. -1.
<scales pt_clust_5="13000.00000" pt_clust_6="13000.00000" pt_clust_7="13000.00000" pt_clust_8="13000.00000" pt_clust_9="24.49493"></scales>
<clustering>
<clus scale="   24.495">  1  9  2 -1</clus>
<clus scale="   89.045">  7  8 -1 -1</clus>
<clus scale="   93.913">  5  6 -1 -1</clus>
<clus scale="  103.862">  1  7  2 -1</clus>
<clus scale="   24.495">  1  5  2 -1</clus>
</clustering>
</event>
<event>
 9    1  0.1445593E-005  0.9873708E+02  0.7546771E-02  0.1285244E+00
         -4   -1    0    0    0  501 -0.00000000000E+00  0.00000000000E+00  0.18800589750E+03  0.18800589750E+03  0.00000000000E+00 0.  1.
         21   -1    0    0  501  502  0.00000000000E+00 -0.00000000000E+00 -0.25703146788E+03  0.25703146788E+03  0.00000000000E+00 0. -1.
         23    2    1    2    0    0  0.38178004330E+02  0.39008403708E+01  0.14879281894E+03  0.17913098629E+03  0.92064274891E+02 0.  0.
         23    2    1    2    0    0  0.11277546099E+01  0.10341705804E+02 -0.20336013392E+03  0.22167026311E+03  0.87602161890E+02 0.  0.
        -11    1    3    3    0    0 -0.14079530546E+02  0.20644916492E+02  0.53568944449E+01  0.25556644448E+02  0.00000000000E+00 0. -1.
         11    1    3    3    0    0  0.52257534876E+02 -0.16744076121E+02  0.14343592450E+03  0.15357434185E+03  0.00000000000E+00 0.  1.
        -13    1    4    4    0    0 -0.35416557857E+02 -0.18572646481E+02 -0.73073878654E+02  0.83301065474E+02  0.00000000000E+00 0.  1.
         13    1    4    4    0    0  0.36544312467E+02  0.28914352285E+02 -0.13028625527E+03  0.13836919763E+03  0.00000000000E+00 0. -1.
         -4    1    1    2    0  502 -0.39305758940E+02 -0.14242546175E+02 -0.14458255403E+02  0.44236115976E+02  0.00000000000E+00 0.  1.
<scales pt_clust_5="13000.00000" pt_clust_6="13000.00000" pt_clust_7="13000.00000" pt_clust_8="13000.00000" pt_clust_9="41.80661"></scales>
<clustering>
<clus scale="   41.807">  2  9  1 -1</clus>
<clus scale="   87.602">  7  8 -1 -1</clus>
<clus scale="   92.064">  5  6 -1 -1</clus>
<clus scale="   94.590">  2  7  1 -1</clus>
<clus scale="   41.807">  2  5  1 -1</clus>
</clustering>
</event>
<event>
 9    1  0.1445593E-005  0.1115764E+03  0.7546771E-02  0.1258494E+00
         21   -1    0    0  501  502  0.00000000000E+00  0.00000000000E+00  0.15401713604E+03  0.15401713604E+03  0.00000000000E+00 0. -1.
         -1   -1    0    0    0  501 -0.00000000000E+00 -0.00000000000E+00 -0.15942383879E+03  0.15942383879E+03  0.00000000000E+00 0.  1.
         23    2    1    2    0    0 -0.31254733872E+02 -0.30185882617E+02 -0.41747128879E+02  0.11141560110E+03  0.93715353594E+02 0.  0.
         23    2    1    2    0    0  0.63325890886E+02  0.81460160368E+02  0.30247726402E+02  0.14124106933E+03  0.91587054375E+02 0.  0.
        -11    1    4    4    0    0 -0.14846462562E+02  0.37483870290E+02 -0.12043947890E+02  0.42077484042E+02  0.00000000000E+00 0.  1.
         11    1    4    4    0    0  0.78172353448E+02  0.43976290078E+02  0.42291674292E+02  0.99163585288E+02  0.00000000000E+00 0. -1.
        -11    1    3    3    0    0 -0.57108015175E+02 -0.45275265704E+02 -0.24600131662E+02  0.76917758415E+02  0.00000000000E+00 0.  1.
         11    1    3    3    0    0  0.25853281304E+02  0.15089383086E+02 -0.17146997217E+02  0.34497842681E+02  0.00000000000E+00 0. -1.
         -1    1    1    2    0  502 -0.32071157015E+02 -0.51274277751E+02  0.60926997270E+01  0.60784304398E+02  0.00000000000E+00 0.  1.
<scales pt_clust_5="13000.00000" pt_clust_6="13000.00000" pt_clust_7="13000.00000" pt_clust_8="13000.00000" pt_clust_9="60.47818"></scales>
<clustering>
<clus scale="   60.478">  1  9  2 -1</clus>
<clus scale="   91.587">  5  6 -1 -1</clus>
<clus scale="   93.715">  7  8 -1 -1</clus>
<clus scale="  109.795">  1  5  2 -1</clus>
<clus scale="   60.478">  1  5  2 -1</clus>
</clustering>
</event>
<event>
 9    1  0.1445593E-005  0.1650438E+03  0.7546771E-02  0.1183268E+00
          2   -1    0    0  502    0 -0.00000000000E+00  0.00000000000E+00  0.72818213629E+03  0.72818213629E+03  0.00000000000E+00 0. -1.
         21   -1    0    0  501  502  0.00000000000E+00 -0.00000000000E+00 -0.73166759021E+02  0.73166759021E+02  0.00000000000E+00 0.  1.
         23    2    1    2    0    0 -0.10985111070E+03 -0.75498314707E+02  0.49647964824E+03  0.52215674882E+03  0.91588029676E+02 0.  0.
         23    2    1    2    0    0  0.11025878123E+03  0.11164563398E+03  0.91369796932E+02  0.20291595544E+03  0.90579792201E+02 0.  0.
        -11    1    3    3    0    0 -0.31436429532E+02  0.17388588216E+02  0.69851643362E+02  0.78548483004E+02  0.00000000000E+00 0.  1.
         11    1    3    3    0    0 -0.78414681164E+02 -0.92886902923E+02  0.42662800488E+03  0.44360826582E+03  0.00000000000E+00 0. -1.
        -13    1    4    4    0    0  0.26376163733E+02  0.28038213263E+01  0.54545020990E+02  0.60652475152E+02  0.00000000000E+00 0. -1.
         13    1    4    4    0    0  0.83882617496E+02  0.10884181266E+03  0.36824775943E+02  0.14226348029E+03  0.00000000000E+00 0.  1.
          2    1    1    2  501    0 -0.40767053256E+00 -0.36147319278E+02  0.67165932103E+02  0.76276191052E+02  0.00000000000E+00 0. -1.
<scales pt_clust_5="13000.00000" pt_clust_6="13000.00000" pt_clust_7="13000.00000" pt_clust_8="13000.00000" pt_clust_9="36.14964"></scales>
<clustering>
<clus scale="   36.150">  2  9  1 -1</clus>
<clus scale="   90.580">  7  8 -1 -1</clus>
<clus scale="   91.588">  5  6 -1 -1</clus>
<clus scale="  164.486">  2  7  1 -1</clus>
<clus scale="   36.150">  2  5  1 -1</clus>
</clustering>
</event>
<event>
 9    1  0.1445593E-005  0.1152553E+03  0.7546771E-02  0.1251184E+00
          2   -1    0    0  502    0 -0.00000000000E+00  0.00000000000E+00  0.72018309602E+03  0.72018309602E+03  0.00000000000E+00 0. -1.
         21   -1    0    0  501  502  0.00000000000E+00 -0.00000000000E+00 -0.29471364633E+02  0.29471364633E+02  0.00000000000E+00 0. -1.
         23    2    1    2    0    0 -0.51841018962E+02 -0.68046305606E+02  0.36228858352E+03  0.38338580736E+03  0.91727142012E+02 0.  0.
         23    2    1    2    0    0  0.55624809167E+02  0.14846899671E+02  0.20782140961E+03  0.23440026007E+03  0.91865084799E+02 0.  0.
        -11    1    3    3    0    0  0.11052432897E+01 -0.48923472351E+02  0.68096316220E+02  0.83856043266E+02  0.00000000000E+00 0.  1.
         11    1    3    3    0    0 -0.52946262252E+02 -0.19122833256E+02  0.29419226730E+03  0.29952976409E+03  0.00000000000E+00 0. -1.
        -11    1    4    4    0    0  0.16286661602E+02  0.51374282377E+02  0.89562109672E+02  0.10452723915E+03  0.00000000000E+00 0.  1.
         11    1    4    4    0    0  0.39338147566E+02 -0.36527382706E+02  0.11825929994E+03  0.12987302092E+03  0.00000000000E+00 0. -1.
          2    1    1    2  501    0 -0.37837902055E+01  0.53199405935E+02  0.12060173825E+03  0.13186839322E+03  0.00000000000E+00 0. -1.
<scales pt_clust_5="13000.00000" pt_clust_6="13000.00000" pt_clust_7="13000.00000" pt_clust_8="13000.00000" pt_clust_9="53.33380"></scales>
<clustering>
<clus scale="   53.334">  2  9  1 -1</clus>
<clus scale="   91.727">  5  6 -1 -1</clus>
<clus scale="   91.865">  7  8 -1 -1</clus>
<clus scale="  115.145">  1  5  2 -1</clus>
<clus scale="   53.334">  2  5  1 -1</clus>
</clustering>
</event>
<event>
 9    1  0.1445593E-005  0.1090948E+03  0.7546771E-02  0.1262632E+00
         21   -1    0    0  501  502  0.00000000000E+00  0.00000000000E+00  0.29359798078E+03  0.29359798078E+03  0.00000000000E+00 0. -1.
          1   -1    0    0  502    0 -0.00000000000E+00 -0.00000000000E+00 -0.19091361745E+03  0.19091361745E+03  0.00000000000E+00 0. -1.
         23    2    1    2    0    0 -0.50121029830E+02  0.14075580180E-01 -0.11321935676E+03  0.15404589590E+03  0.91648226770E+02 0.  0.
         23    2    1    2    0    0  0.96750519362E+02  0.33891680254E+02  0.35970539201E+02  0.14152163877E+03  0.90692808761E+02 0.  0.
        -11    1    4    4    0    0  0.34863378749E+01  0.41913228487E+02  0.19959237999E+02  0.46553672846E+02  0.00000000000E+00 0.  1.
         11    1    4    4    0    0  0.93264181488E+02 -0.80215482329E+01  0.16011301202E+02  0.94967965919E+02  0.00000000000E+00 0. -1.
        -11    1    3    3    0    0 -0.70073768308E+02 -0.17284551233E+02 -0.57121274798E+02  0.92043080950E+02  0.00000000000E+00 0.  1.
         11    1    3    3    0    0  0.19952738478E+02  0.17298626813E+02 -0.56098081958E+02  0.62002814950E+02  0.00000000000E+00 0. -1.
          1    1    1    2  501    0 -0.46629489532E+02 -0.33905755834E+02  0.17993318089E+03  0.18894406357E+03  0.00000000000E+00 0. -1.
<scales pt_clust_5="13000.00000" pt_clust_6="13000.00000" pt_clust_7="13000.00000" pt_clust_8="13000.00000" pt_clust_9="57.65336"></scales>
<clustering>
<clus scale="   57.653">  1  9  2 -1</clus>
<clus scale="   90.693">  5  6 -1 -1</clus>
<clus scale="   91.648">  7  8 -1 -1</clus>
<clus scale="  108.293">  1  5  2 -1</clus>
<clus scale="   57.653">  1  5  2 -1</clus>
</clustering>
</event>
<event>
 9    1  0.1445593E-005  0.1010243E+03  0.7546771E-02  0.1278252E+00
         -1   -1    0    0    0  501 -0.00000000000E+00  0.00000000000E+00  0.46761731048E+03  0.46761731048E+03  0.00000000000E+00 0.  1.
         21   -1    0    0  501  502  0.00000000000E+00 -0.00000000000E+00 -0.37327156137E+02  0.37327156137E+02  0.00000000000E+00 0. -1.
         23    2    1    2    0    0 -0.12427636060E+02  0.32560741032E+02  0.22890988405E+03  0.24936050202E+03  0.92554183883E+02 0.  0.
         23    2    1    2    0    0  0.46987623656E+02 -0.25390259746E+02  0.19074078616E+03  0.21871925021E+03  0.92755381734E+02 0.  0.
        -11    1    3    3    0    0  0.35231827398E+02  0.23542553976E+02  0.58846897885E+02  0.72515452838E+02  0.00000000000E+00 0. -1.
         11    1    3    3    0    0 -0.47659463458E+02  0.90181870565E+01  0.17006298617E+03  0.17684504918E+03  0.00000000000E+00 0.  1.
        -11    1    4    4    0    0  0.47027688068E+02  0.42727851818E+01  0.18166030818E+03  0.18769743660E+03  0.00000000000E+00 0.  1.
         11    1    4    4    0    0 -0.40064412566E-01 -0.29663044928E+02  0.90804779867E+01  0.31021813616E+02  0.00000000000E+00 0. -1.
         -1    1    1    2    0  502 -0.34559987595E+02 -0.71704812861E+01  0.10639484128E+02  0.36864714389E+02  0.00000000000E+00 0.  1.
<scales pt_clust_5="13000.00000" pt_clust_6="13000.00000" pt_clust_7="13000.00000" pt_clust_8="13000.00000" pt_clust_9="35.29601"></scales>
<clustering>
<clus scale="   35.296">  2  9  1 -1</clus>
<clus scale="   92.554">  5  6 -1 -1</clus>
<clus scale="   92.755">  7  8 -1 -1</clus>
<clus scale="  100.840">  1  5  2 -1</clus>
<clus scale="   35.296">  2  5  1 -1</clus>
</clustering>
</event>
<event>
 9    1  0.1445593E-005  0.9804645E+02  0.7546771E-02  0.1284655E+00
         21   -1    0    0  501  502  0.00000000000E+00  0.00000000000E+00  0.19343959649E+03  0.19343959649E+03  0.00000000000E+00 0. -1.
          3   -1    0    0  502    0 -0.00000000000E+00 -0.00000000000E+00 -0.81521263400E+02  0.81521263400E+02  0.00000000000E+00 0. -1.
         23    2    1    2    0    0  0.16527149566E+02  0.58355856120E+01  0.23099789678E+02  0.96401875276E+02  0.91937590470E+02 0.  0.
         23    2    1    2    0    0 -0.48532571654E+02 -0.23569685567E+02  0.32001522126E+02  0.11097925946E+03  0.91549757085E+02 0.  0.
        -11    1    4    4    0    0 -0.52296029604E+02  0.24562852735E+02  0.13967224527E+02  0.59441499038E+02  0.00000000000E+00 0. -1.
         11    1    4    4    0    0  0.37634579506E+01 -0.48132538302E+02  0.18034297599E+02  0.51537760420E+02  0.00000000000E+00 0.  1.
        -13    1    3    3    0    0  0.29807645750E+02 -0.37469587560E+02  0.16415366580E+02  0.50615511427E+02  0.00000000000E+00 0. -1.
         13    1    3    3    0    0 -0.13280496184E+02  0.43305173172E+02  0.66844230976E+01  0.45786363849E+02  0.00000000000E+00 0.  1.
          3    1    1    2  501    0  0.32005422088E+02  0.17734099955E+02  0.56817021285E+02  0.67579725154E+02  0.00000000000E+00 0. -1.
<scales pt_clust_5="13000.00000" pt_clust_6="13000.00000" pt_clust_7="13000.00000" pt_clust_8="13000.00000" pt_clust_9="36.59024"></scales>
<clustering>
<clus scale="   36.590">  1  9  2 -1</clus>
<clus scale="   91.550">  5  6 -1 -1</clus>
<clus scale="   91.938">  7  8 -1 -1</clus>
<clus scale="   97.683">  1  5  2 -1</clus>
<clus scale="   36.590">  1  5  2 -1</clus>
</clustering>
</event>
<event>
 9    1  0.1445593E-005  0.1155825E+03  0.7546771E-02  0.1252270E+00
          2   -1    0    0  502    0 -0.00000000000E+00  0.00000000000E+00  0.68789477621E+03  0.68789477621E+03  0.00000000000E+00 0. -1.
         21   -1    0    0  501  502  0.00000000000E+00 -0.00000000000E+00 -0.27816026965E+02  0.27816026965E+02  0.00000000000E+00 0.  1.
         23    2    1    2    0    0 -0.69803290844E+02  0.34976436065E+02  0.46160894757E+03  0.47740443309E+03  0.93468292825E+02 0.  0.
         23    2    1    2    0    0  0.40814877513E+02 -0.28381082122E+02  0.16211604959E+03  0.19134444837E+03  0.88655199148E+02 0.  0.
        -11    1    3    3    0    0  0.21313536602E+02  0.17586965002E+02  0.13921158394E+03  0.14192756350E+03  0.00000000000E+00 0. -1.
         11    1    3    3    0    0 -0.91116827446E+02  0.17389471063E+02  0.32239736364E+03  0.33547686959E+03  0.00000000000E+00 0.  1.
        -13    1    4    4    0    0  0.26343108032E+02 -0.58637941157E+02  0.12941594351E+03  0.14450208967E+03  0.00000000000E+00 0. -1.
         13    1    4    4    0    0  0.14471769481E+02  0.30256859035E+02  0.32700106086E+02  0.46842358700E+02  0.00000000000E+00 0.  1.
          2    1    1    2  501    0  0.28988413332E+02 -0.65953539437E+01  0.36353752073E+02  0.46961921713E+02  0.00000000000E+00 0. -1.
<scales pt_clust_5="13000.00000" pt_clust_6="13000.00000" pt_clust_7="13000.00000" pt_clust_8="13000.00000" pt_clust_9="29.72922"></scales>
<clustering>
<clus scale="   29.729">  2  9  1 -1</clus>
<clus scale="   88.655">  7  8 -1 -1</clus>
<clus scale="   93.468">  5  6 -1 -1</clus>
<clus scale="  111.726">  2  7  1 -1</clus>
<clus scale="   29.729">  2  5  1 -1</clus>
</clustering>
</event>
<event>
 9    1  0.1445593E-005  0.9533726E+02  0.7546771E-02  0.1291331E+00
         21   -1    0    0  501  502  0.00000000000E+00  0.00000000000E+00  0.58426347789E+02  0.58426347789E+02  0.00000000000E+00 0.  1.
          4   -1    0    0  502    0 -0.00000000000E+00 -0.00000000000E+00 -0.22778175823E+03  0.22778175823E+03  0.00000000000E+00 0. -1.
         23    2    1    2    0    0 -0.17171269272E+02 -0.13698967069E+02 -0.84374787164E+02  0.12638195469E+03  0.91491964540E+02 0.  0.
         23    2    1    2    0    0  0.24648840434E+02 -0.21432201673E+02 -0.54706683488E+02  0.11285142921E+03  0.93143541124E+02 0.  0.
        -11    1    4    4    0    0 -0.28820619958E+02  0.15117467673E+02 -0.96235461837E+01  0.33937863880E+02  0.00000000000E+00 0.  1.
         11    1    4    4    0    0  0.53469460391E+02 -0.36549669346E+02 -0.45083137304E+02  0.78913565329E+02  0.00000000000E+00 0. -1.
        -13    1    3    3    0    0  0.79450299980E+01 -0.28868516878E+02 -0.91426556572E+02  0.96204625746E+02  0.00000000000E+00 0.  1.
         13    1    3    3    0    0 -0.25116299270E+02  0.15169549809E+02  0.70517694082E+01  0.30177328944E+02  0.00000000000E+00 0. -1.
          4    1    1    2  501    0 -0.74775711617E+01  0.35131168742E+02 -0.30273939786E+02  0.46974722116E+02  0.00000000000E+00 0. -1.
<scales pt_clust_5="13000.00000" pt_clust_6="13000.00000" pt_clust_7="13000.00000" pt_clust_8="13000.00000" pt_clust_9="35.91816"></scales>
<clustering>
<clus scale="   35.918">  1  9  2 -1</clus>
<clus scale="   91.492">  7  8 -1 -1</clus>
<clus scale="   93.144">  5  6 -1 -1</clus>
<clus scale="   93.724">  2  7  1 -1</clus>
<clus scale="   35.918">  1  5  2 -1</clus>
</clustering>
</event>
<event>
 9    1  0.1445593E-005  0.1054587E+03  0.7546771E-02  0.1269350E+00
         -2   -1    0    0    0  501 -0.00000000000E+00  0.00000000000E+00  0.11616654310E+03  0.11616654310E+03  0.00000000000E+00 0.  1.
         21   -1    0    0  501  502  0.00000000000E+00 -0.00000000000E+00 -0.15615192888E+03  0.15615192888E+03  0.00000000000E+00 0. -1.
         23    2    1    2    0    0 -0.49953979643E+01  0.50757344596E+02  0.46869696545E+02  0.11566852591E+03  0.92634644711E+02 0.  0.
         23    2    1    2    0    0 -0.18654439424E+02 -0.47047559098E+02 -0.76430387886E+02  0.13053957320E+03  0.92938232451E+02 0.  0.
        -11    1    4    4    0    0 -0.49765618364E+02 -0.10019880699E+02 -0.16181260581E+02  0.53280840594E+02  0.00000000000E+00 0.  1.
         11    1    4    4    0    0  0.31111178940E+02 -0.37027678400E+02 -0.60249127305E+02  0.77258732605E+02  0.00000000000E+00 0. -1.
        -13    1    3    3    0    0 -0.36479123177E+02  0.33441586842E+02  0.59673454211E+02  0.77524107836E+02  0.00000000000E+00 0.  1.
         13    1    3    3    0    0  0.31483725212E+02  0.17315757754E+02 -0.12803757666E+02  0.38144418074E+02  0.00000000000E+00 0. -1.
         -2    1    1    2    0  502  0.23649837389E+02 -0.37097854972E+01 -0.10424694439E+02  0.26110372864E+02  0.00000000000E+00 0.  1.
<scales pt_clust_5="13000.00000" pt_clust_6="13000.00000" pt_clust_7="13000.00000" pt_clust_8="13000.00000" pt_clust_9="23.93903"></scales>
<clustering>
<clus scale="   23.939">  2  9  1 -1</clus>
<clus scale="   92.635">  7  8 -1 -1</clus>
<clus scale="   92.938">  5  6 -1 -1</clus>
<clus scale="  105.191">  1  7  2 -1</clus>
<clus scale="   23.939">  2  5  1 -1</clus>
</clustering>
</event>
<event>
 9    1  0.1445593E-005  0.3567639E+03  0.7546771E-02  0.1059878E+00
         21   -1    0    0  501  502  0.00000000000E+00  0.00000000000E+00  0.66211120840E+02  0.66211120840E+02  0.00000000000E+00 0. -1.
          1   -1    0    0  502    0 -0.00000000000E+00 -0.00000000000E+00 -0.25611299150E+04  0.25611299150E+04  0.00000000000E+00 0. -1.
         23    2    1    2    0    0 -0.24622389699E+03 -0.21079556876E+03 -0.12188365921E+04  0.12644814383E+04  0.91047735339E+02 0.  0.
         23    2    1    2    0    0  0.28618047636E+03  0.23575442516E+03 -0.12539632162E+04  0.13108142108E+04  0.91272853694E+02 0.  0.
        -13    1    4    4    0    0  0.66924864628E+02  0.83164003828E+02 -0.24821561660E+03  0.27019656060E+03  0.00000000000E+00 0.  1.
         13    1    4    4    0    0  0.21925561173E+03  0.15259042133E+03 -0.10057475996E+04  0.10406176502E+04  0.00000000000E+00 0. -1.
        -13    1    3    3    0    0 -0.62691775842E+02 -0.10604264006E+03 -0.38181842348E+03  0.40119896408E+03  0.00000000000E+00 0.  1.
         13    1    3    3    0    0 -0.18353212115E+03 -0.10475292870E+03 -0.83701816865E+03  0.86328247418E+03  0.00000000000E+00 0. -1.
          1    1    1    2  501    0 -0.39956579371E+02 -0.24958856399E+02 -0.22118985900E+02  0.52045386779E+02  0.00000000000E+00 0. -1.
<scales pt_clust_5="13000.00000" pt_clust_6="13000.00000" pt_clust_7="13000.00000" pt_clust_8="13000.00000" pt_clust_9="47.11128"></scales>
<clustering>
<clus scale="   47.111">  1  9  2 -1</clus>
<clus scale="   91.048">  7  8 -1 -1</clus>
<clus scale="   91.273">  5  6 -1 -1</clus>
<clus scale="  356.706">  2  7  1 -1</clus>
<clus scale="   47.111">  1  5  2 -1</clus>
</clustering>
</event>
<event>
 9    1  0.1445593E-005  0.9913110E+02  0.7546771E-02  0.1283227E+00
         21   -1    0    0  501  502  0.00000000000E+00  0.00000000000E+00  0.80302325986E+02  0.80302325986E+02  0.00000000000E+00 0.  1.
         -3   -1    0    0    0  501 -0.00000000000E+00 -0.00000000000E+00 -0.37960991547E+03  0.37960991547E+03  0.00000000000E+00 0.  1.
         23    2    1    2    0    0  0.12985592672E+01 -0.32102113146E+02 -0.28725935383E+03  0.30358644179E+03  0.92814650538E+02 0.  0.
         23    2    1    2    0    0  0.17082788598E+02  0.45264513874E+02 -0.48356056716E+02  0.11355454047E+03  0.90640099059E+02 0.  0.
        -13    1    3    3    0    0  0.43103126986E+01 -0.64653070243E+02 -0.17275578428E+03  0.18450788408E+03  0.00000000000E+00 0. -1.
         13    1    3    3    0    0 -0.30117534314E+01  0.32550957097E+02 -0.11450356955E+03  0.11907855771E+03  0.00000000000E+00 0.  1.
        -13    1    4    4    0    0 -0.14063336298E+02  0.60532098786E+02 -0.11974822262E+02  0.63287508874E+02  0.00000000000E+00 0.  1.
         13    1    4    4    0    0  0.31146124896E+02 -0.15267584911E+02 -0.36381234454E+02  0.50267031596E+02  0.00000000000E+00 0. -1.
         -3    1    1    2    0  502 -0.18381347865E+02 -0.13162400728E+02  0.36307821063E+02  0.42771259189E+02  0.00000000000E+00 0.  1.
<scales pt_clust_5="13000.00000" pt_clust_6="13000.00000" pt_clust_7="13000.00000" pt_clust_8="13000.00000" pt_clust_9="22.60802"></scales>
<clustering>
<clus scale="   22.608">  1  9  2 -1</clus>
<clus scale="   90.640">  7  8 -1 -1</clus>
<clus scale="   92.815">  5  6 -1 -1</clus>
<clus scale="   97.098">  1  7  2 -1</clus>
<clus scale="   22.608">  1  5  2 -1</clus>
</clustering>
</event>
<event>
 9    1  0.1445593E-005  0.1262907E+03  0.7546771E-02  0.1233686E+00
         21   -1    0    0  501  502  0.00000000000E+00  0.00000000000E+00  0.12538417576E+03  0.12538417576E+03  0.00000000000E+00 0. -1.
         -3   -1    0    0    0  501 -0.00000000000E+00 -0.00000000000E+00 -0.25827488085E+03  0.25827488085E+03  0.00000000000E+00 0.  1.
         23    2    1    2    0    0  0.52377199235E+02  0.44368711045E+02 -0.99792393549E+02  0.15312509562E+03  0.93684681663E+02 0.  0.
         23    2    1    2    0    0 -0.81647574195E+02 -0.72501189366E+02 -0.84025698633E+02  0.16540493564E+03  0.91518991872E+02 0.  0.
        -13    1    4    4    0    0 -0.33881974976E+02 -0.27722797093E+02  0.15357313101E+02  0.46393844125E+02  0.00000000000E+00 0. -1.
         13    1    4    4    0    0 -0.47765599219E+02 -0.44778392272E+02 -0.99383011734E+02  0.11901109152E+03  0.00000000000E+00 0.  1.
        -13    1    3    3    0    0  0.39936256597E+02  0.63723020584E+02 -0.32349891538E+02  0.81866008977E+02  0.00000000000E+00 0.  1.
         13    1    3    3    0    0  0.12440942638E+02 -0.19354309539E+02 -0.67442502011E+02  0.71259086641E+02  0.00000000000E+00 0. -1.
         -3    1    1    2    0  502  0.29270374960E+02  0.28132478321E+02  0.50927387089E+02  0.65129025346E+02  0.00000000000E+00 0.  1.
<scales pt_clust_5="13000.00000" pt_clust_6="13000.00000" pt_clust_7="13000.00000" pt_clust_8="13000.00000" pt_clust_9="40.59792"></scales>
<clustering>
<clus scale="   40.598">  1  9  2 -1</clus>
<clus scale="   91.519">  5  6 -1 -1</clus>
<clus scale="   93.685">  7  8 -1 -1</clus>
<clus scale="  124.693">  1  5  2 -1</clus>
<clus scale="   40.598">  1  5  2 -1</clus>
</clustering>
</event>
<event>
 9    1  0.1445593E-005  0.1560398E+03  0.7546771E-02  0.1193247E+00
          1   -1    0    0  502    0 -0.00000000000E+00  0.00000000000E+00  0.68313160235E+02  0.68313160235E+02  0.00000000000E+00 0. -1.
         21   -1    0    0  501  502  0.00000000000E+00 -0.00000000000E+00 -0.49223052599E+03  0.49223052599E+03  0.00000000000E+00 0.  1.
         23    2    1    2    0    0 -0.85474098944E+02  0.10268933502E+03 -0.10777807895E+03  0.19360100724E+03  0.89522704297E+02 0.  0.
         23    2    1    2    0    0  0.54354156351E+02 -0.10722810520E+03 -0.22356641109E+03  0.26917362161E+03  0.89555890636E+02 0.  0.
        -13    1    4    4    0    0  0.59446114009E+02 -0.28370673350E+02 -0.13669991395E+03  0.15174189287E+03  0.00000000000E+00 0.  1.
         13    1    4    4    0    0 -0.50919576581E+01 -0.78857431849E+02 -0.86866497133E+02  0.11743172874E+03  0.00000000000E+00 0. -1.
        -13    1    3    3    0    0 -0.40345863358E+02  0.10800715798E+03 -0.80191963056E+02  0.14044246439E+03  0.00000000000E+00 0.  1.
         13    1    3    3    0    0 -0.45128235586E+02 -0.53178229561E+01 -0.27586115898E+02  0.53158542855E+02  0.00000000000E+00 0. -1.
          1    1    1    2  501    0  0.31119942592E+02  0.45387701798E+01 -0.92572875711E+02  0.97769057371E+02  0.00000000000E+00 0. -1.
<scales pt_clust_5="13000.00000" pt_clust_6="13000.00000" pt_clust_7="13000.00000" pt_clust_8="13000.00000" pt_clust_9="31.44919"></scales>
<clustering>
<clus scale="   31.449">  2  9  1 -1</clus>
<clus scale="   89.523">  7  8 -1 -1</clus>
<clus scale="   89.556">  5  6 -1 -1</clus>
<clus scale="  156.021">  1  7  2 -1</clus>
<clus scale="   31.449">  2  5  1 -1</clus>
</clustering>
</event>
<event>
 9    1  0.1445593E-005  0.1576368E+03  0.7546771E-02  0.1191606E+00
         21   -1    0    0  501  502  0.00000000000E+00  0.00000000000E+00  0.25298521009E+03  0.25298521009E+03  0.00000000000E+00 0. -1.
          1   -1    0    0  502    0 -0.00000000000E+00 -0.00000000000E+00 -0.14658823542E+03  0.14658823542E+03  0.00000000000E+00 0. -1.
         23    2    1    2    0    0  0.11527802285E+03  0.58003563483E+02 -0.61997785016E+01  0.15850445646E+03  0.91824776258E+02 0.  0.
         23    2    1    2    0    0 -0.99270710527E+02 -0.82005588105E+02  0.39210631752E+02  0.16221561849E+03  0.90536416928E+02 0.  0.
        -11    1    4    4    0    0 -0.24399116845E+02 -0.70507799537E+02 -0.45246524579E+01  0.74747168363E+02  0.00000000000E+00 0. -1.
         11    1    4    4    0    0 -0.74871593682E+02 -0.11497788568E+02  0.43735284210E+02  0.87468450126E+02  0.00000000000E+00 0.  1.
        -11    1    3    3    0    0  0.51058316460E+02  0.75503348806E+02 -0.10800465815E+02  0.91784298344E+02  0.00000000000E+00 0.  1.
         11    1    3    3    0    0  0.64219706386E+02 -0.17499785323E+02  0.46006873135E+01  0.66720158111E+02  0.00000000000E+00 0. -1.
          1    1    1    2  501    0 -0.16007312319E+02  0.24002024622E+02  0.73386121413E+02  0.78853370566E+02  0.00000000000E+00 0. -1.
<scales pt_clust_5="13000.00000" pt_clust_6="13000.00000" pt_clust_7="13000.00000" pt_clust_8="13000.00000" pt_clust_9="28.85015"></scales>
<clustering>
<clus scale="   28.850">  1  9  2 -1</clus>
<clus scale="   90.536">  5  6 -1 -1</clus>
<clus scale="   91.825">  7  8 -1 -1</clus>
<clus scale="  156.890">  1  5  2 -1</clus>
<clus scale="   28.850">  1  5  2 -1</clus>
</clustering>
</event>
<event>
 9    1  0.1445593E-005  0.1065528E+03  0.7546771E-02  0.1267197E+00
         21   -1    0    0  501  502  0.00000000000E+00  0.00000000000E+00  0.56217451510E+02  0.56217451510E+02  0.00000000000E+00 0. -1.
         -3   -1    0    0    0  501 -0.00000000000E+00 -0.00000000000E+00 -0.50617969415E+03  0.50617969415E+03  0.00000000000E+00 0.  1.
         23    2    1    2    0    0  0.42094219103E+02 -0.14898339953E+02 -0.29160679468E+03  0.30884862826E+03  0.91427942473E+02 0.  0.
         23    2    1    2    0    0 -0.57787389421E+02  0.64090508499E+02 -0.15814533807E+03  0.20191336283E+03  0.91170622884E+02 0.  0.
        -11    1    3    3    0    0  0.57368184957E+02  0.10779133436E+02 -0.25500831779E+03  0.26160378534E+03  0.00000000000E+00 0.  1.
         11    1    3    3    0    0 -0.15273965854E+02 -0.25677473389E+02 -0.36598476889E+02  0.47244842927E+02  0.00000000000E+00 0. -1.
        -11    1    4    4    0    0 -0.76429756169E+02  0.30431374625E+02 -0.79706683001E+02  0.11454576162E+03  0.00000000000E+00 0. -1.
         11    1    4    4    0    0  0.18642366747E+02  0.33659133874E+02 -0.78438655073E+02  0.87367601207E+02  0.00000000000E+00 0.  1.
         -3    1    1    2    0  502  0.15693170318E+02 -0.49192168546E+02 -0.21010988616E+00  0.51635154566E+02  0.00000000000E+00 0.  1.
<scales pt_clust_5="13000.00000" pt_clust_6="13000.00000" pt_clust_7="13000.00000" pt_clust_8="13000.00000" pt_clust_9="51.63473"></scales>
<clustering>
<clus scale="   51.635">  1  9  2 -1</clus>
<clus scale="   91.171">  7  8 -1 -1</clus>
<clus scale="   91.428">  5  6 -1 -1</clus>
<clus scale="  106.332">  1  7  2 -1</clus>
<clus scale="   51.635">  1  5  2 -1</clus>
</clustering>
</event>
<event>
 9    1  0.1445593E-005  0.1046130E+03  0.7546771E-02  0.1275697E+00
          3   -1    0    0  502    0 -0.00000000000E+00  0.00000000000E+00  0.15760742425E+03  0.15760742425E+03  0.00000000000E+00 0. -1.
         21   -1    0    0  501  502  0.00000000000E+00 -0.00000000000E+00 -0.88536294176E+02  0.88536294176E+02  0.00000000000E+00 0.  1.
         23    2    1    2    0    0  0.13566906970E+01  0.11778826754E+02  0.41347268016E+02  0.11026141639E+03  0.10152537615E+03 0.  0.
         23    2    1    2    0    0  0.12721814702E+02 -0.38247705978E+02  0.32467879345E+02  0.10552918718E+03  0.91964746371E+02 0.  0.
        -11    1    4    4    0    0 -0.36142662502E+02 -0.37405668562E+01  0.27372509705E+02  0.45492177137E+02  0.00000000000E+00 0.  1.
         11    1    4    4    0    0  0.48864477203E+02 -0.34507139122E+02  0.50953696404E+01  0.60037010040E+02  0.00000000000E+00 0. -1.
        -11    1    3    3    0    0 -0.33543245099E+02  0.35288904877E+02 -0.34380357782E+01  0.48808566760E+02  0.00000000000E+00 0.  1.
         11    1    3    3    0    0  0.34899935796E+02 -0.23510078123E+02  0.44785303794E+02  0.61452849632E+02  0.00000000000E+00 0. -1.
          3    1    1    2  501    0 -0.14078505399E+02  0.26468879225E+02 -0.47440172851E+01  0.30353114860E+02  0.00000000000E+00 0. -1.
<scales pt_clust_5="13000.00000" pt_clust_6="13000.00000" pt_clust_7="13000.00000" pt_clust_8="13000.00000" pt_clust_9="29.98009"></scales>
<clustering>
<clus scale="   29.980">  2  9  1 -1</clus>
<clus scale="   91.965">  5  6 -1 -1</clus>
<clus scale="   95.362">  2  5  1 -1</clus>
<clus scale="  101.525">  7  8 -1 -1</clus>
<clus scale="   29.980">  2  5  1 -1</clus>
</clustering>
</event>
<event>
 9    1  0.1445593E-005  0.1256988E+03  0.7546771E-02  0.1234523E+00
         21   -1    0    0  501  502  0.00000000000E+00  0.00000000000E+00  0.10412414043E+03  0.10412414043E+03  0.00000000000E+00 0.  1.
          2   -1    0    0  502    0 -0.00000000000E+00 -0.00000000000E+00 -0.46177691945E+03  0.46177691945E+03  0.00000000000E+00 0. -1.
         23    2    1    2    0    0 -0.10121302633E+03 -0.35802736784E+01 -0.36670915572E+03  0.39092675296E+03  0.89951243598E+02 0.  0.
         23    2    1    2    0    0  0.25218921006E+02  0.16935016121E+02 -0.34136143529E+01  0.96814509931E+02  0.91861895378E+02 0.  0.
        -11    1    3    3    0    0 -0.53897866944E+02  0.31678410727E+02 -0.10131115584E+03  0.11904810820E+03  0.00000000000E+00 0.  1.
         11    1    3    3    0    0 -0.47315159390E+02 -0.35258684405E+02 -0.26539799988E+03  0.27187864476E+03  0.00000000000E+00 0. -1.
        -13    1    4    4    0    0 -0.47666380123E+01 -0.35526246492E+02 -0.59504508727E+01  0.36335146805E+02  0.00000000000E+00 0. -1.
         13    1    4    4    0    0  0.29985559018E+02  0.52461262613E+02  0.25368365198E+01  0.60479363126E+02  0.00000000000E+00 0.  1.
          2    1    1    2  501    0  0.75994105329E+02 -0.13354742443E+02  0.12469991058E+02  0.78159797002E+02  0.00000000000E+00 0. -1.
<scales pt_clust_5="13000.00000" pt_clust_6="13000.00000" pt_clust_7="13000.00000" pt_clust_8="13000.00000" pt_clust_9="77.15862"></scales>
<clustering>
<clus scale="   77.159">  1  9  2 -1</clus>
<clus scale="   89.951">  5  6 -1 -1</clus>
<clus scale="   91.862">  7  8 -1 -1</clus>
<clus scale="  124.309">  2  5  1 -1</clus>
<clus scale="   77.159">  1  5  2 -1</clus>
</clustering>
</event>
<event>
 9    1  0.1445593E-005  0.9808051E+02  0.7546771E-02  0.1285714E+00
         21   -1    0    0  501  502  0.00000000000E+00  0.00000000000E+00  0.20746892801E+03  0.20746892801E+03  0.00000000000E+00 0. -1.
          2   -1    0    0  502    0 -0.00000000000E+00 -0.00000000000E+00 -0.19124365871E+03  0.19124365871E+03  0.00000000000E+00 0. -1.
         23    2    1    2    0    0  0.69340515845E+01  0.27745699721E+02 -0.12386708558E+03  0.15728491230E+03  0.92615246158E+02 0.  0.
         23    2    1    2    0    0 -0.11303504901E+02 -0.79437262061E+01 -0.37190660177E+01  0.96193604530E+02  0.95123635819E+02 0.  0.
        -11    1    3    3    0    0  0.33508002904E+02  0.13333835086E+02 -0.12175177923E+03  0.12698060152E+03  0.00000000000E+00 0. -1.
         11    1    3    3    0    0 -0.26573951319E+02  0.14411864635E+02 -0.21153063590E+01  0.30304310782E+02  0.00000000000E+00 0.  1.
        -11    1    4    4    0    0 -0.26326892516E+02  0.33622644498E+02  0.18719122784E+02  0.46626098383E+02  0.00000000000E+00 0.  1.
         11    1    4    4    0    0  0.15023387614E+02 -0.41566370705E+02 -0.22438188802E+02  0.49567506147E+02  0.00000000000E+00 0. -1.
          2    1    1    2  501    0  0.43694533169E+01 -0.19801973515E+02  0.14381142090E+03  0.14523406990E+03  0.00000000000E+00 0. -1.
<scales pt_clust_5="13000.00000" pt_clust_6="13000.00000" pt_clust_7="13000.00000" pt_clust_8="13000.00000" pt_clust_9="20.27832"></scales>
<clustering>
<clus scale="   20.278">  1  9  2 -1</clus>
<clus scale="   92.615">  5  6 -1 -1</clus>
<clus scale="   95.124">  7  8 -1 -1</clus>
<clus scale="   95.650">  2  5  1 -1</clus>
<clus scale="   20.278">  1  5  2 -1</clus>
</clustering>
</event>
<event>
 9    1  0.1445593E-005  0.1044728E+03  0.7546771E-02  0.1273235E+00
         21   -1    0    0  501  502  0.00000000000E+00  0.00000000000E+00  0.83338041246E+02  0.83338041246E+02  0.00000000000E+00 0. -1.
         -2   -1    0    0    0  501 -0.00000000000E+00 -0.00000000000E+00 -0.48918141995E+03  0.48918141995E+03  0.00000000000E+00 0.  1.
         23    2    1    2    0    0 -0.36618693659E+02 -0.49387463157E+02 -0.25262177645E+03  0.27573593078E+03  0.91828597639E+02 0.  0.
         23    2    1    2    0    0 -0.43193923823E+02  0.50280420563E+02 -0.18161455939E+03  0.21206628722E+03  0.87146005317E+02 0.  0.
        -11    1    3    3    0    0 -0.40348780118E+02  0.14985828445E+02 -0.13370254623E+03  0.14045985184E+03  0.00000000000E+00 0. -1.
         11    1    3    3    0    0  0.37300864594E+01 -0.64373291602E+02 -0.11891923021E+03  0.13527607893E+03  0.00000000000E+00 0.  1.
        -13    1    4    4    0    0 -0.29338673037E+02 -0.20720170003E+02 -0.75907058242E+02  0.83975976752E+02  0.00000000000E+00 0. -1.
         13    1    4    4    0    0 -0.13855250786E+02  0.71000590566E+02 -0.10570750115E+03  0.12809031046E+03  0.00000000000E+00 0.  1.
         -2    1    1    2    0  502  0.79812617482E+02 -0.89295740628E+00  0.28392957129E+02  0.84717243208E+02  0.00000000000E+00 0.  1.
<scales pt_clust_5="13000.00000" pt_clust_6="13000.00000" pt_clust_7="13000.00000" pt_clust_8="13000.00000" pt_clust_9="79.81761"></scales>
<clustering>
<clus scale="   79.818">  1  9  2 -1</clus>
<clus scale="   87.146">  7  8 -1 -1</clus>
<clus scale="   91.829">  5  6 -1 -1</clus>
<clus scale="  100.382">  1  7  2 -1</clus>
<clus scale="   79.818">  1  5  2 -1</clus>
</clustering>
</event>
<event>
 9    1  0.1445593E-005  0.3630051E+03  0.7546771E-02  0.1057518E+00
         21   -1    0    0  501  502  0.00000000000E+00  0.00000000000E+00  0.22496829823E+03  0.22496829823E+03  0.00000000000E+00 0.  1.
          2   -1    0    0  502    0 -0.00000000000E+00 -0.00000000000E+00 -0.98995560384E+03  0.98995560384E+03  0.00000000000E+00 0. -1.
         23    2    1    2    0    0 -0.41616483811E+02 -0.36239483020E+03 -0.66005600262E+03  0.76041361186E+03  0.97431975340E+02 0.  0.
         23    2    1    2    0    0  0.76044913197E+02  0.31090996968E+03 -0.16175705698E+03  0.37045570123E+03  0.92866802605E+02 0.  0.
        -11    1    3    3    0    0 -0.55378796147E+02 -0.13369346657E+03 -0.30901259498E+03  0.34121772803E+03  0.00000000000E+00 0. -1.
         11    1    3    3    0    0  0.13762312336E+02 -0.22870136363E+03 -0.35104340764E+03  0.41919588383E+03  0.00000000000E+00 0.  1.
        -13    1    4    4    0    0  0.12991023808E+02  0.22709910523E+03 -0.12335781222E+03  0.25876614951E+03  0.00000000000E+00 0. -1.
         13    1    4    4    0    0  0.63053889389E+02  0.83810864445E+02 -0.38399244763E+02  0.11168955172E+03  0.00000000000E+00 0.  1.
          2    1    1    2  501    0 -0.34428429386E+02  0.51484860521E+02  0.56825753990E+02  0.84054588984E+02  0.00000000000E+00 0. -1.
<scales pt_clust_5="13000.00000" pt_clust_6="13000.00000" pt_clust_7="13000.00000" pt_clust_8="13000.00000" pt_clust_9="61.93551"></scales>
<clustering>
<clus scale="   61.936">  1  9  2 -1</clus>
<clus scale="   92.867">  7  8 -1 -1</clus>
<clus scale="   97.432">  5  6 -1 -1</clus>
<clus scale="  361.806">  1  7  2 -1</clus>
<clus scale="   61.936">  1  5  2 -1</clus>
</clustering>
</event>
<event>
 9    1  0.1445593E-005  0.9520181E+02  0.7546771E-02  0.1291693E+00
         21   -1    0    0  501  502  0.00000000000E+00  0.00000000000E+00  0.81919724052E+03  0.81919724052E+03  0.00000000000E+00 0. -1.
          2   -1    0    0  502    0 -0.00000000000E+00 -0.00000000000E+00 -0.77541697666E+02  0.77541697666E+02  0.00000000000E+00 0. -1.
         23    2    1    2    0    0  0.15189752867E+02  0.29704599717E+02 -0.31362565624E+02  0.10223797533E+03  0.91410618857E+02 0.  0.
         23    2    1    2    0    0 -0.37491730482E+01  0.45513912404E+02  0.32976427324E+03  0.34476473585E+03  0.89625189863E+02 0.  0.
        -11    1    4    4    0    0  0.40269785846E+02  0.23795221284E+02  0.21349530822E+03  0.21855917926E+03  0.00000000000E+00 0. -1.
         11    1    4    4    0    0 -0.44018958895E+02  0.21718691121E+02  0.11626896502E+03  0.12620555658E+03  0.00000000000E+00 0.  1.
        -11    1    3    3    0    0  0.38206553571E+02 -0.10582091063E+02  0.90988520017E+01  0.40675674485E+02  0.00000000000E+00 0.  1.
         11    1    3    3    0    0 -0.23016800704E+02  0.40286690780E+02 -0.40461417626E+02  0.61562300842E+02  0.00000000000E+00 0. -1.
          2    1    1    2  501    0 -0.11440579819E+02 -0.75218512121E+02  0.44325383524E+03  0.44973622701E+03  0.00000000000E+00 0. -1.
<scales pt_clust_5="13000.00000" pt_clust_6="13000.00000" pt_clust_7="13000.00000" pt_clust_8="13000.00000" pt_clust_9="76.08358"></scales>
<clustering>
<clus scale="   76.084">  1  9  2 -1</clus>
<clus scale="   89.625">  5  6 -1 -1</clus>
<clus scale="   91.411">  7  8 -1 -1</clus>
<clus scale="   93.489">  1  5  2 -1</clus>
<clus scale="   76.084">  1  5  2 -1</clus>
</clustering>
</event>
<event>
 9    1  0.1445593E-005  0.1148859E+03  0.7546771E-02  0.1253219E+00
          2   -1    0    0  502    0 -0.00000000000E+00  0.00000000000E+00  0.44247881954E+03  0.44247881954E+03  0.00000000000E+00 0. -1.
         21   -1    0    0  501  502  0.00000000000E+00 -0.00000000000E+00 -0.67089830991E+02  0.67089830991E+02  0.00000000000E+00 0. -1.
         23    2    1    2    0    0 -0.87870023671E+02  0.17422112652E+02  0.24777537789E+03  0.27892372607E+03  0.91548544551E+02 0.  0.
         23    2    1    2    0    0  0.50587302057E+02  0.10447336642E+02  0.14827055451E+03  0.17971932319E+03  0.87445158930E+02 0.  0.
        -11    1    4    4    0    0  0.15882162114E+02 -0.27236124645E+02  0.11351617356E+03  0.11781328965E+03  0.00000000000E+00 0.  1.
         11    1    4    4    0    0  0.34705139943E+02  0.37683461286E+02  0.34754380952E+02  0.61906033537E+02  0.00000000000E+00 0. -1.
        -13    1    3    3    0    0 -0.61383017751E+02  0.42810027319E+02  0.22148705434E+03  0.23378855521E+03  0.00000000000E+00 0. -1.
         13    1    3    3    0    0 -0.26487005920E+02 -0.25387914667E+02  0.26288323547E+02  0.45135170861E+02  0.00000000000E+00 0.  1.
          2    1    1    2  501    0  0.37282721614E+02 -0.27869449294E+02 -0.20656943854E+02  0.50925601265E+02  0.00000000000E+00 0. -1.
<scales pt_clust_5="13000.00000" pt_clust_6="13000.00000" pt_clust_7="13000.00000" pt_clust_8="13000.00000" pt_clust_9="46.54791"></scales>
<clustering>
<clus scale="   46.548">  2  9  1 -1</clus>
<clus scale="   87.445">  5  6 -1 -1</clus>
<clus scale="   91.549">  7  8 -1 -1</clus>
<clus scale="  111.644">  2  5  1 -1</clus>
<clus scale="   46.548">  2  5  1 -1</clus>
</clustering>
</event>
<event>
 9    1  0.2244227E-005  0.9727485E+02  0.7546771E-02  0.1286664E+00
          4   -1    0    0  502    0 -0.00000000000E+00  0.00000000000E+00  0.26368614944E+03  0.26368614944E+03  0.00000000000E+00 0. -1.
         21   -1    0    0  501  502  0.00000000000E+00 -0.00000000000E+00 -0.96609405478E+02  0.96609405478E+02  0.00000000000E+00 0.  1.
         23    2    1    2    0    0 -0.27718133832E+02 -0.13303693256E+02  0.20181364307E+03  0.22401033626E+03  0.92231236697E+02 0.  0.
         23    2    1    2    0    0  0.19049853628E+02  0.32565847003E+02 -0.49591160068E+02  0.11046238541E+03  0.91209780828E+02 0.  0.
        -11    1    4    4    0    0  0.48970602672E+02  0.42251820103E+02 -0.21119532430E+02  0.68039480290E+02  0.00000000000E+00 0. -1.
         11    1    4    4    0    0 -0.29920749044E+02 -0.96859731004E+01 -0.28471627638E+02  0.42422905118E+02  0.00000000000E+00 0.  1.
        -13    1    3    3    0    0 -0.33078263426E+02  0.15834901082E+02  0.18759791187E+03  0.19114887428E+03  0.00000000000E+00 0.  1.
         13    1    3    3    0    0  0.53601295938E+01 -0.29138594338E+02  0.14215731204E+02  0.32861461972E+02  0.00000000000E+00 0. -1.
          4    1    1    2  501    0  0.86682802041E+01 -0.19262153747E+02  0.14854260961E+02  0.25822833256E+02  0.00000000000E+00 0. -1.
<scales pt_clust_5="13000.00000" pt_clust_6="13000.00000" pt_clust_7="13000.00000" pt_clust_8="13000.00000" pt_clust_9="21.12274"></scales>
<clustering>
<clus scale="   21.123">  2  9  1 -1</clus>
<clus scale="   91.210">  5  6 -1 -1</clus>
<clus scale="   92.231">  7  8 -1 -1</clus>
<clus scale="   96.307">  2  5  1 -1</clus>
<clus scale="   21.123">  2  5  1 -1</clus>
</clustering>
</event>
<event>
 9    1  0.1445593E-005  0.9446942E+02  0.7546771E-02  0.1293523E+00
         21   -1    0    0  501  502  0.00000000000E+00  0.00000000000E+00  0.18181702492E+03  0.18181702492E+03  0.00000000000E+00 0.  1.
          4   -1    0    0  502    0 -0.00000000000E+00 -0.00000000000E+00 -0.74709035402E+02  0.74709035402E+02  0.00000000000E+00 0. -1.
         23    2    1    2    0    0  0.21891135520E+02 -0.40683075575E+01  0.51879729978E+01  0.91592373888E+02  0.88693150524E+02 0.  0.
         23    2    1    2    0    0 -0.32894756944E+02 -0.15378546551E+02  0.53135049176E+02  0.11127520287E+03  0.90775947229E+02 0.  0.
        -11    1    4    4    0    0  0.18588680268E+02  0.24870629055E+02  0.86855686323E+01  0.32241686156E+02  0.00000000000E+00 0. -1.
         11    1    4    4    0    0 -0.51483437213E+02 -0.40249175606E+02  0.44449480544E+02  0.79033516718E+02  0.00000000000E+00 0.  1.
        -11    1    3    3    0    0 -0.53705914731E+00  0.41045752519E+02  0.31403904191E+01  0.41169215251E+02  0.00000000000E+00 0. -1.
         11    1    3    3    0    0  0.22428194668E+02 -0.45114060076E+02  0.20475825787E+01  0.50423158638E+02  0.00000000000E+00 0.  1.
          4    1    1    2  501    0  0.11003621424E+02  0.19446854108E+02  0.48784967341E+02  0.53658483556E+02  0.00000000000E+00 0. -1.
<scales pt_clust_5="13000.00000" pt_clust_6="13000.00000" pt_clust_7="13000.00000" pt_clust_8="13000.00000" pt_clust_9="22.34412"></scales>
<clustering>
<clus scale="   22.344">  1  9  2 -1</clus>
<clus scale="   88.693">  7  8 -1 -1</clus>
<clus scale="   90.776">  5  6 -1 -1</clus>
<clus scale="   92.470">  2  7  1 -1</clus>
<clus scale="   22.344">  1  5  2 -1</clus>
</clustering>
</event>
<event>
 9    1  0.1445593E-005  0.9834033E+02  0.7546771E-02  0.1284538E+00
         21   -1    0    0  501  502  0.00000000000E+00  0.00000000000E+00  0.82498043177E+02  0.82498043177E+02  0.00000000000E+00 0. -1.
          1   -1    0    0  502    0 -0.00000000000E+00 -0.00000000000E+00 -0.20396904088E+03  0.20396904088E+03  0.00000000000E+00 0. -1.
         23    2    1    2    0    0 -0.53245630396E+01 -0.45801385650E+02 -0.10690864908E+03  0.14690963303E+03  0.89592762706E+02 0.  0.
         23    2    1    2    0    0  0.86835273824E+01  0.22685305773E+02 -0.42326722431E+02  0.10327389768E+03  0.91016041250E+02 0.  0.
        -11    1    4    4    0    0 -0.34662496936E+02 -0.50774712412E+01 -0.37897395475E+02  0.51608933257E+02  0.00000000000E+00 0.  1.
         11    1    4    4    0    0  0.43346024319E+02  0.27762777014E+02 -0.44293269553E+01  0.51664964425E+02  0.00000000000E+00 0. -1.
        -13    1    3    3    0    0  0.29389959902E+02  0.76436113853E+01 -0.61715538946E+02  0.68782281770E+02  0.00000000000E+00 0.  1.
         13    1    3    3    0    0 -0.34714522941E+02 -0.53444997035E+02 -0.45193110136E+02  0.78127351260E+02  0.00000000000E+00 0. -1.
          1    1    1    2  501    0 -0.33589643428E+01  0.23116079876E+02  0.27764373810E+02  0.36283553345E+02  0.00000000000E+00 0. -1.
<scales pt_clust_5="13000.00000" pt_clust_6="13000.00000" pt_clust_7="13000.00000" pt_clust_8="13000.00000" pt_clust_9="23.35885"></scales>
<clustering>
<clus scale="   23.359">  1  9  2 -1</clus>
<clus scale="   89.593">  7  8 -1 -1</clus>
<clus scale="   91.016">  5  6 -1 -1</clus>
<clus scale="   97.025">  2  7  1 -1</clus>
<clus scale="   23.359">  1  5  2 -1</clus>
</clustering>
</event>
<event>
 9    1  0.1445593E-005  0.1018610E+03  0.7546771E-02  0.1281232E+00
          2   -1    0    0  502    0 -0.00000000000E+00  0.00000000000E+00  0.79802691608E+03  0.79802691608E+03  0.00000000000E+00 0. -1.
         21   -1    0    0  501  502  0.00000000000E+00 -0.00000000000E+00 -0.24478224487E+02  0.24478224487E+02  0.00000000000E+00 0.  1.
         23    2    1    2    0    0 -0.97925430067E+01  0.77478466225E+01  0.31215123529E+03  0.32744838903E+03  0.98123038896E+02 0.  0.
         23    2    1    2    0    0 -0.32153064137E+02 -0.56951748669E+02  0.23494666759E+03  0.25955639560E+03  0.88838418917E+02 0.  0.
        -11    1    4    4    0    0 -0.29202446627E+01 -0.54003519223E+02  0.22008091786E+03  0.22662859114E+03  0.00000000000E+00 0.  1.
         11    1    4    4    0    0 -0.29232819475E+02 -0.29482294450E+01  0.14865749728E+02  0.32927804456E+02  0.00000000000E+00 0. -1.
        -13    1    3    3    0    0 -0.32752932044E+02 -0.26410113535E+02  0.24575390329E+03  0.24932956030E+03  0.00000000000E+00 0.  1.
         13    1    3    3    0    0  0.22960389037E+02  0.34157960157E+02  0.66397331995E+02  0.78118828735E+02  0.00000000000E+00 0. -1.
          2    1    1    2  501    0  0.41945607144E+02  0.49203902046E+02  0.22645078872E+03  0.23550035594E+03  0.00000000000E+00 0. -1.
<scales pt_clust_5="13000.00000" pt_clust_6="13000.00000" pt_clust_7="13000.00000" pt_clust_8="13000.00000" pt_clust_9="64.65649"></scales>
<clustering>
<clus scale="   64.656">  2  9  1 -1</clus>
<clus scale="   88.838">  5  6 -1 -1</clus>
<clus scale="   92.951">  2  5  1 -1</clus>
<clus scale="   98.123">  7  8 -1 -1</clus>
<clus scale="   64.656">  2  5  1 -1</clus>
</clustering>
</event>
<event>
 9    1  0.1445593E-005  0.2742602E+03  0.7546771E-02  0.1099014E+00
          2   -1    0    0  502    0 -0.00000000000E+00  0.00000000000E+00  0.16646850850E+04  0.16646850850E+04  0.00000000000E+00 0. -1.
         21   -1    0    0  501  502  0.00000000000E+00 -0.00000000000E+00 -0.78278538325E+02  0.78278538325E+02  0.00000000000E+00 0.  1.
         23    2    1    2    0    0  0.16162639831E+03 -0.19607413012E+03  0.10190050064E+04  0.10542128021E+04  0.91789280825E+02 0.  0.
         23    2    1    2    0    0 -0.96371451913E+02  0.26257701931E+03  0.46922864582E+03  0.55340400920E+03  0.88579498341E+02 0.  0.
        -11    1    4    4    0    0 -0.83334314685E+02  0.24093914824E+03  0.35898308531E+03  0.44030118861E+03  0.00000000000E+00 0.  1.
         11    1    4    4    0    0 -0.13037137228E+02  0.21637871070E+02  0.11024556051E+03  0.11310282059E+03  0.00000000000E+00 0. -1.
        -13    1    3    3    0    0  0.83724239732E+02 -0.86066356676E+02  0.30867985358E+03  0.33121053436E+03  0.00000000000E+00 0.  1.
         13    1    3    3    0    0  0.77902158576E+02 -0.11000777344E+03  0.71032515280E+03  0.72300226779E+03  0.00000000000E+00 0. -1.
          2    1    1    2  501    0 -0.65254946395E+02 -0.66502889191E+02  0.98172894456E+02  0.13534681195E+03  0.00000000000E+00 0. -1.
<scales pt_clust_5="13000.00000" pt_clust_6="13000.00000" pt_clust_7="13000.00000" pt_clust_8="13000.00000" pt_clust_9="93.17104"></scales>
<clustering>
<clus scale="   88.579">  5  6 -1 -1</clus>
<clus scale="   91.789">  7  8 -1 -1</clus>
<clus scale="   93.171">  2  9  1 -1</clus>
<clus scale="  273.203">  2  5  1 -1</clus>
<clus scale="   93.171">  2  5  1 -1</clus>
</clustering>
</event>
<event>
 9    1  0.1445593E-005  0.9374980E+02  0.7546771E-02  0.1296394E+00
         -1   -1    0    0    0  501 -0.00000000000E+00  0.00000000000E+00  0.81335185170E+02  0.81335185170E+02  0.00000000000E+00 0.  1.
         21   -1    0    0  501  502  0.00000000000E+00 -0.00000000000E+00 -0.14999835478E+03  0.14999835478E+03  0.00000000000E+00 0.  1.
         23    2    1    2    0    0 -0.13748253446E+02  0.71268527257E+01  0.43421188076E+01  0.94567196538E+02  0.93189560374E+02 0.  0.
         23    2    1    2    0    0  0.46155724227E+01  0.12618875471E+02 -0.43400980902E+02  0.10002788035E+03  0.89114489152E+02 0.  0.
        -11    1    4    4    0    0  0.43358825970E+01  0.47427300241E+02 -0.45165556455E+01  0.47838770479E+02  0.00000000000E+00 0.  1.
         11    1    4    4    0    0  0.27968982563E+00 -0.34808424770E+02 -0.38884425257E+02  0.52189109869E+02  0.00000000000E+00 0. -1.
        -13    1    3    3    0    0  0.10013729186E+02 -0.18527895669E+02 -0.35672824772E+02  0.41425935323E+02  0.00000000000E+00 0. -1.
         13    1    3    3    0    0 -0.23761982632E+02  0.25654748395E+02  0.40014943580E+02  0.53141261215E+02  0.00000000000E+00 0.  1.
         -1    1    1    2    0  502  0.91326810234E+01 -0.19745728197E+02 -0.29604307511E+02  0.36738463059E+02  0.00000000000E+00 0.  1.
<scales pt_clust_5="13000.00000" pt_clust_6="13000.00000" pt_clust_7="13000.00000" pt_clust_8="13000.00000" pt_clust_9="21.75545"></scales>
<clustering>
<clus scale="   21.755">  2  9  1 -1</clus>
<clus scale="   89.114">  5  6 -1 -1</clus>
<clus scale="   89.700">  2  5  1 -1</clus>
<clus scale="   93.190">  7  8 -1 -1</clus>
<clus scale="   21.755">  2  5  1 -1</clus>
</clustering>
</event>
<event>
 9    1  0.1445593E-005  0.9910550E+02  0.7546771E-02  0.1282253E+00
          3   -1    0    0  502    0 -0.00000000000E+00  0.00000000000E+00  0.34807632129E+03  0.34807632129E+03  0.00000000000E+00 0. -1.
         21   -1    0    0  501  502  0.00000000000E+00 -0.00000000000E+00 -0.52277973381E+02  0.52277973381E+02  0.00000000000E+00 0. -1.
         23    2    1    2    0    0 -0.39449413107E+02  0.12831625583E+02  0.17309230737E+03  0.20143703883E+03  0.94313450425E+02 0.  0.
         23    2    1    2    0    0  0.19555799134E+02  0.94289500562E+01  0.13537689027E+03  0.16648518010E+03  0.94440872482E+02 0.  0.
        -11    1    3    3    0    0 -0.60767269365E+01  0.24718602505E+02  0.72301112589E+00  0.25464851563E+02  0.00000000000E+00 0.  1.
         11    1    3    3    0    0 -0.33372686170E+02 -0.11886976922E+02  0.17236929625E+03  0.17597218727E+03  0.00000000000E+00 0. -1.
        -11    1    4    4    0    0 -0.15646173388E+02 -0.33327085119E+02  0.80496153702E+02  0.88516258987E+02  0.00000000000E+00 0. -1.
         11    1    4    4    0    0  0.35201972521E+02  0.42756035175E+02  0.54880736563E+02  0.77968921110E+02  0.00000000000E+00 0.  1.
          3    1    1    2  501    0  0.19893613973E+02 -0.22260575639E+02 -0.12670849724E+02  0.32432075750E+02  0.00000000000E+00 0. -1.
<scales pt_clust_5="13000.00000" pt_clust_6="13000.00000" pt_clust_7="13000.00000" pt_clust_8="13000.00000" pt_clust_9="29.85447"></scales>
<clustering>
<clus scale="   29.854">  2  9  1 -1</clus>
<clus scale="   94.313">  5  6 -1 -1</clus>
<clus scale="   94.441">  7  8 -1 -1</clus>
<clus scale="   98.984">  1  5  2 -1</clus>
<clus scale="   29.854">  2  5  1 -1</clus>
</clustering>
</event>
<event>
 9    1  0.1445593E-005  0.9339744E+02  0.7546771E-02  0.1295518E+00
         21   -1    0    0  501  502  0.00000000000E+00  0.00000000000E+00  0.44685927575E+02  0.44685927575E+02  0.00000000000E+00 0. -1.
         -1   -1    0    0    0  501 -0.00000000000E+00 -0.00000000000E+00 -0.29998504593E+03  0.29998504593E+03  0.00000000000E+00 0.  1.
         23    2    1    2    0    0  0.18748559556E+02 -0.17872702865E+02 -0.13470218642E+03  0.16499436455E+03  0.91692525935E+02 0.  0.
         23    2    1    2    0    0 -0.16465816877E+02 -0.18716667245E+02 -0.10186809086E+03  0.13850911684E+03  0.90477791501E+02 0.  0.
        -13    1    4    4    0    0  0.24283610663E+02 -0.13082426003E+02 -0.92218571226E+02  0.96255433592E+02  0.00000000000E+00 0.  1.
         13    1    4    4    0    0 -0.40749427540E+02 -0.56342412419E+01 -0.96495196354E+01  0.42253683252E+02  0.00000000000E+00 0. -1.
        -13    1    3    3    0    0  0.55941034373E+02 -0.70167964688E+01 -0.84450440437E+02  0.10154068962E+03  0.00000000000E+00 0. -1.
         13    1    3    3    0    0 -0.37192474817E+02 -0.10855906396E+02 -0.50251745985E+02  0.63453674923E+02  0.00000000000E+00 0.  1.
         -1    1    1    2    0  502 -0.22827426794E+01  0.36589370110E+02 -0.18728841075E+02  0.41167492117E+02  0.00000000000E+00 0.  1.
<scales pt_clust_5="13000.00000" pt_clust_6="13000.00000" pt_clust_7="13000.00000" pt_clust_8="13000.00000" pt_clust_9="36.66051"></scales>
<clustering>
<clus scale="   36.661">  1  9  2 -1</clus>
<clus scale="   90.478">  5  6 -1 -1</clus>
<clus scale="   91.693">  7  8 -1 -1</clus>
<clus scale="   92.205">  1  5  2 -1</clus>
<clus scale="   36.661">  1  5  2 -1</clus>
</clustering>
</event>
<event>
 9    1  0.1445593E-005  0.1314659E+03  0.7546771E-02  0.1225363E+00
         21   -1    0    0  501  502  0.00000000000E+00  0.00000000000E+00  0.10222428557E+03  0.10222428557E+03  0.00000000000E+00 0.  1.
         -1   -1    0    0    0  501 -0.00000000000E+00 -0.00000000000E+00 -0.24233715467E+03  0.24233715467E+03  0.00000000000E+00 0.  1.
         23    2    1    2    0    0  0.69576650252E+02 -0.38957032485E+02 -0.63147480112E+02  0.13427268537E+03  0.87652661976E+02 0.  0.
         23    2    1    2    0    0 -0.11051325046E+03  0.52163183844E+02 -0.73182499963E+02  0.16710869096E+03  0.87381119340E+02 0.  0.
        -13    1    3    3    0    0  0.61087501882E+01 -0.49412149554E+02 -0.98853828848E+01  0.50760202395E+02  0.00000000000E+00 0.  1.
         13    1    3    3    0    0  0.63467900064E+02  0.10455117069E+02 -0.53262097228E+02  0.83512482974E+02  0.00000000000E+00 0. -1.
        -13    1    4    4    0    0 -0.45925790454E+02  0.33007580429E+02 -0.81529125704E+02  0.99225384517E+02  0.00000000000E+00 0.  1.
         13    1    4    4    0    0 -0.64587460004E+02  0.19155603415E+02  0.83466257408E+01  0.67883306440E+02  0.00000000000E+00 0. -1.
         -1    1    1    2    0  502  0.40936600205E+02 -0.13206151358E+02 -0.37828890226E+01  0.43180063912E+02  0.00000000000E+00 0.  1.
<scales pt_clust_5="13000.00000" pt_clust_6="13000.00000" pt_clust_7="13000.00000" pt_clust_8="13000.00000" pt_clust_9="43.01404"></scales>
<clustering>
<clus scale="   43.014">  1  9  2 -1</clus>
<clus scale="   87.381">  7  8 -1 -1</clus>
<clus scale="   87.653">  5  6 -1 -1</clus>
<clus scale="  131.285">  1  7  2 -1</clus>
<clus scale="   43.014">  1  5  2 -1</clus>
</clustering>
</event>
<event>
 9    1  0.1445593E-005  0.1158830E+03  0.7546771E-02  0.1250326E+00
          2   -1    0    0  502    0 -0.00000000000E+00  0.00000000000E+00  0.77964554702E+03  0.77964554702E+03  0.00000000000E+00 0. -1.
         21   -1    0    0  501  502  0.00000000000E+00 -0.00000000000E+00 -0.11716470881E+03  0.11716470881E+03  0.00000000000E+00 0. -1.
         23    2    1    2    0    0  0.61860483579E+02 -0.86554164958E+01  0.54105141407E+03  0.55231492535E+03  0.91725178871E+02 0.  0.
         23    2    1    2    0    0 -0.10084010478E+03  0.56634458582E+01  0.20860107306E+03  0.24895864049E+03  0.90913121391E+02 0.  0.
        -11    1    4    4    0    0 -0.66487537303E+02  0.43905832942E+02  0.93132754228E+02  0.12256436959E+03  0.00000000000E+00 0. -1.
         11    1    4    4    0    0 -0.34352567482E+02 -0.38242387084E+02  0.11546831883E+03  0.12639427090E+03  0.00000000000E+00 0.  1.
        -11    1    3    3    0    0 -0.21122032833E+01  0.33978533394E+02  0.15836365517E+03  0.16198163295E+03  0.00000000000E+00 0. -1.
         11    1    3    3    0    0  0.63972686862E+02 -0.42633949890E+02  0.38268775890E+03  0.39033329240E+03  0.00000000000E+00 0.  1.
          2    1    1    2  501    0  0.38979621206E+02  0.29919706375E+01 -0.87171648917E+02  0.95536689981E+02  0.00000000000E+00 0. -1.
<scales pt_clust_5="13000.00000" pt_clust_6="13000.00000" pt_clust_7="13000.00000" pt_clust_8="13000.00000" pt_clust_9="39.09428"></scales>
<clustering>
<clus scale="   39.094">  2  9  1 -1</clus>
<clus scale="   90.913">  5  6 -1 -1</clus>
<clus scale="   91.725">  7  8 -1 -1</clus>
<clus scale="  115.241">  2  5  1 -1</clus>
<clus scale="   39.094">  2  5  1 -1</clus>
</clustering>
</event>
<event>
 9    1  0.1445593E-005  0.1703833E+03  0.7546771E-02  0.1179928E+00
         21   -1    0    0  501  502  0.00000000000E+00  0.00000000000E+00  0.21374871530E+03  0.21374871530E+03  0.00000000000E+00 0. -1.
         -4   -1    0    0    0  501 -0.00000000000E+00 -0.00000000000E+00 -0.30657833955E+03  0.30657833955E+03  0.00000000000E+00 0.  1.
         23    2    1    2    0    0  0.32100154344E+02  0.12535609696E+03 -0.10411980220E+03  0.19978849174E+03  0.11104025066E+03 0.  0.
         23    2    1    2    0    0 -0.11671309088E+03 -0.95012231568E+02  0.90929173109E+02  0.20044497983E+03  0.96233080001E+02 0.  0.
        -11    1    4    4    0    0 -0.64432100218E+02  0.60847107174E+01  0.29752497920E+02  0.71230122670E+02  0.00000000000E+00 0.  1.
         11    1    4    4    0    0 -0.52280990666E+02 -0.10109694229E+03  0.61176675189E+02  0.12921485716E+03  0.00000000000E+00 0. -1.
        -13    1    3    3    0    0  0.30116775790E+01  0.13757356925E+03 -0.74338253513E+02  0.15640247150E+03  0.00000000000E+00 0.  1.
         13    1    3    3    0    0  0.29088476765E+02 -0.12217472285E+02 -0.29781548689E+02  0.43386020235E+02  0.00000000000E+00 0. -1.
         -4    1    1    2    0  502  0.84612936540E+02 -0.30343865393E+02 -0.79638995153E+02  0.12009358328E+03  0.00000000000E+00 0.  1.
<scales pt_clust_5="13000.00000" pt_clust_6="13000.00000" pt_clust_7="13000.00000" pt_clust_8="13000.00000" pt_clust_9="89.88942"></scales>
<clustering>
<clus scale="   89.889">  1  9  2 -1</clus>
<clus scale="   96.233">  5  6 -1 -1</clus>
<clus scale="  111.040">  7  8 -1 -1</clus>
<clus scale="  161.125">  1  5  2 -1</clus>
<clus scale="   89.889">  1  5  2 -1</clus>
</clustering>
</event>
<event>
 9    1  0.1445593E-005  0.9454173E+02  0.7546771E-02  0.1292556E+00
          1   -1    0    0  502    0 -0.00000000000E+00  0.00000000000E+00  0.24557307433E+03  0.24557307433E+03  0.00000000000E+00 0. -1.
         21   -1    0    0  501  502  0.00000000000E+00 -0.00000000000E+00 -0.71583009859E+02  0.71583009859E+02  0.00000000000E+00 0.  1.
         23    2    1    2    0    0 -0.71070219186E+01  0.25915008218E+02  0.17728422675E+03  0.20139004614E+03  0.91685092677E+02 0.  0.
         23    2    1    2    0    0  0.14027960041E+02 -0.49396879248E+01  0.44117589416E+01  0.92372776883E+02  0.91060870369E+02 0.  0.
        -11    1    4    4    0    0 -0.84128670370E+01 -0.34870737875E+02 -0.25883691777E+02  0.44234717041E+02  0.00000000000E+00 0. -1.
         11    1    4    4    0    0  0.22440827078E+02  0.29931049950E+02  0.30295450718E+02  0.48138059841E+02  0.00000000000E+00 0.  1.
        -13    1    3    3    0    0  0.23818554599E+02  0.48198281711E+02  0.12983961565E+03  0.14053015226E+03  0.00000000000E+00 0.  1.
         13    1    3    3    0    0 -0.30925576518E+02 -0.22283273493E+02  0.47444611108E+02  0.60859893885E+02  0.00000000000E+00 0. -1.
          1    1    1    2  501    0 -0.69209381224E+01 -0.20975320293E+02 -0.77059212228E+01  0.23393261162E+02  0.00000000000E+00 0. -1.
<scales pt_clust_5="13000.00000" pt_clust_6="13000.00000" pt_clust_7="13000.00000" pt_clust_8="13000.00000" pt_clust_9="22.08763"></scales>
<clustering>
<clus scale="   22.088">  2  9  1 -1</clus>
<clus scale="   91.061">  5  6 -1 -1</clus>
<clus scale="   91.685">  7  8 -1 -1</clus>
<clus scale="   93.936">  2  5  1 -1</clus>
<clus scale="   22.088">  2  5  1 -1</clus>
</clustering>
</event>
<event>
 9    1  0.1445593E-005  0.9751734E+02  0.7546771E-02  0.1287202E+00
          1   -1    0    0  502    0 -0.00000000000E+00  0.00000000000E+00  0.25012296174E+03  0.25012296174E+03  0.00000000000E+00 0. -1.
         21   -1    0    0  501  502  0.00000000000E+00 -0.00000000000E+00 -0.15364027954E+03  0.15364027954E+03  0.00000000000E+00 0. -1.
         23    2    1    2    0    0  0.28238133616E+02 -0.36380794046E+02  0.18045574254E+03  0.20762562007E+03  0.91777822651E+02 0.  0.
         23    2    1    2    0    0  0.29893007841E+02 -0.19651773246E+02 -0.35830202052E+02  0.10213436058E+03  0.88700846234E+02 0.  0.
        -13    1    4    4    0    0  0.61041630725E+02 -0.18438792657E+02 -0.18155676202E+02  0.66300062855E+02  0.00000000000E+00 0. -1.
         13    1    4    4    0    0 -0.31148622884E+02 -0.12129805892E+01 -0.17674525850E+02  0.35834297726E+02  0.00000000000E+00 0.  1.
        -13    1    3    3    0    0 -0.13703556295E+02 -0.36184513146E+02  0.23741050057E+02  0.45395417219E+02  0.00000000000E+00 0.  1.
         13    1    3    3    0    0  0.41941689910E+02 -0.19628089973E+00  0.15671469248E+03  0.16223020285E+03  0.00000000000E+00 0. -1.
          1    1    1    2  501    0 -0.58131141456E+02  0.56032567291E+02 -0.48142858290E+02  0.94003260628E+02  0.00000000000E+00 0. -1.
<scales pt_clust_5="13000.00000" pt_clust_6="13000.00000" pt_clust_7="13000.00000" pt_clust_8="13000.00000" pt_clust_9="80.73957"></scales>
<clustering>
<clus scale="   80.740">  2  9  1 -1</clus>
<clus scale="   88.701">  5  6 -1 -1</clus>
<clus scale="   91.778">  7  8 -1 -1</clus>
<clus scale="   94.627">  2  5  1 -1</clus>
<clus scale="   80.740">  2  5  1 -1</clus>
</clustering>
</event>
<event>
 9    1  0.1445593E-005  0.1013134E+03  0.7546771E-02  0.1277851E+00
         21   -1    0    0  501  502  0.00000000000E+00  0.00000000000E+00  0.14964723194E+03  0.14964723194E+03  0.00000000000E+00 0.  1.
          1   -1    0    0  502    0 -0.00000000000E+00 -0.00000000000E+00 -0.12295260727E+03  0.12295260727E+03  0.00000000000E+00 0. -1.
         23    2    1    2    0    0  0.58096059256E+02  0.16246004636E+01 -0.34553199512E+02  0.11432047271E+03  0.92181643814E+02 0.  0.
         23    2    1    2    0    0 -0.79551997155E+01 -0.14242454464E+02  0.40875157192E+02  0.10270633711E+03  0.92799140592E+02 0.  0.
        -11    1    4    4    0    0 -0.46772732853E+02  0.97854563041E+01  0.14285711871E+02  0.49875096564E+02  0.00000000000E+00 0.  1.
         11    1    4    4    0    0  0.38817533137E+02 -0.24027910768E+02  0.26589445321E+02  0.52831240542E+02  0.00000000000E+00 0. -1.
        -13    1    3    3    0    0 -0.10939644702E+00  0.35437730886E+02  0.56932246409E+01  0.35892304813E+02  0.00000000000E+00 0.  1.
         13    1    3    3    0    0  0.58205455703E+02 -0.33813130423E+02 -0.40246424153E+02  0.78428167897E+02  0.00000000000E+00 0. -1.
          1    1    1    2  501    0 -0.50140859541E+02  0.12617854000E+02  0.20372666990E+02  0.55573029388E+02  0.00000000000E+00 0. -1.
<scales pt_clust_5="13000.00000" pt_clust_6="13000.00000" pt_clust_7="13000.00000" pt_clust_8="13000.00000" pt_clust_9="51.70412"></scales>
<clustering>
<clus scale="   51.704">  1  9  2 -1</clus>
<clus scale="   92.182">  7  8 -1 -1</clus>
<clus scale="   92.799">  5  6 -1 -1</clus>
<clus scale="  100.748">  2  7  1 -1</clus>
<clus scale="   51.704">  1  5  2 -1</clus>
</clustering>
</event>
<event>
 9    1  0.1445593E-005  0.1029060E+03  0.7546771E-02  0.1275237E+00
         -4   -1    0    0    0  501 -0.00000000000E+00  0.00000000000E+00  0.21882860725E+03  0.21882860725E+03  0.00000000000E+00 0.  1.
         21   -1    0    0  501  502  0.00000000000E+00 -0.00000000000E+00 -0.20694645637E+03  0.20694645637E+03  0.00000000000E+00 0.  1.
         23    2    1    2    0    0 -0.43801015841E+02  0.19270347632E+02  0.10234698060E+03  0.14553107381E+03  0.91730658553E+02 0.  0.
         23    2    1    2    0    0  0.39232196912E+02  0.79209319037E+01  0.65957594831E+02  0.12141006808E+03  0.93744833873E+02 0.  0.
        -11    1    4    4    0    0 -0.17302047770E+02  0.34937138028E+02  0.29768494053E+02  0.49052295653E+02  0.00000000000E+00 0.  1.
         11    1    4    4    0    0  0.56534244682E+02 -0.27016206125E+02  0.36189100778E+02  0.72357772425E+02  0.00000000000E+00 0. -1.
        -13    1    3    3    0    0 -0.31358865614E+02 -0.16714433400E+02 -0.83831298239E+00  0.35545091154E+02  0.00000000000E+00 0. -1.
         13    1    3    3    0    0 -0.12442150227E+02  0.35984781032E+02  0.10318529358E+03  0.10998598265E+03  0.00000000000E+00 0.  1.
         -4    1    1    2    0  502  0.45688189296E+01 -0.27191279536E+02 -0.15642242456E+03  0.15883392174E+03  0.00000000000E+00 0.  1.
<scales pt_clust_5="13000.00000" pt_clust_6="13000.00000" pt_clust_7="13000.00000" pt_clust_8="13000.00000" pt_clust_9="27.57245"></scales>
<clustering>
<clus scale="   27.572">  2  9  1 -1</clus>
<clus scale="   91.731">  7  8 -1 -1</clus>
<clus scale="   93.745">  5  6 -1 -1</clus>
<clus scale="  101.075">  1  7  2 -1</clus>
<clus scale="   27.572">  2  5  1 -1</clus>
</clustering>
</event>
<event>
 9    1  0.1445593E-005  0.1002691E+03  0.7546771E-02  0.1284502E+00
         21   -1    0    0  501  502  0.00000000000E+00  0.00000000000E+00  0.28920615010E+03  0.28920615010E+03  0.00000000000E+00 0.  1.
          3   -1    0    0  502    0 -0.00000000000E+00 -0.00000000000E+00 -0.57795898311E+02  0.57795898311E+02  0.00000000000E+00 0. -1.
         23    2    1    2    0    0  0.11053954085E+02 -0.15509840828E+02  0.17909034885E+02  0.92287587665E+02  0.88507176224E+02 0.  0.
         23    2    1    2    0    0 -0.36129462118E+02  0.14905734725E+02  0.12771939448E+03  0.16534071121E+03  0.97456595965E+02 0.  0.
        -13    1    4    4    0    0  0.11189037959E+02  0.24702708028E+02 -0.17225830084E+01  0.27173252411E+02  0.00000000000E+00 0. -1.
         13    1    4    4    0    0 -0.47318500077E+02 -0.97969733025E+01  0.12944197749E+03  0.13816745880E+03  0.00000000000E+00 0.  1.
        -13    1    3    3    0    0 -0.27980267797E+02 -0.30793939279E+02  0.26724839216E+02  0.49450774649E+02  0.00000000000E+00 0.  1.
         13    1    3    3    0    0  0.39034221882E+02  0.15284098451E+02 -0.88158043315E+01  0.42836813016E+02  0.00000000000E+00 0. -1.
          3    1    1    2  501    0  0.25075508033E+02  0.60410610296E+00  0.85781822418E+02  0.89373749528E+02  0.00000000000E+00 0. -1.
<scales pt_clust_5="13000.00000" pt_clust_6="13000.00000" pt_clust_7="13000.00000" pt_clust_8="13000.00000" pt_clust_9="25.08278"></scales>
<clustering>
<clus scale="   25.083">  1  9  2 -1</clus>
<clus scale="   88.507">  7  8 -1 -1</clus>
<clus scale="   91.595">  2  7  1 -1</clus>
<clus scale="   97.457">  5  6 -1 -1</clus>
<clus scale="   25.083">  1  5  2 -1</clus>
</clustering>
</event>
<event>
 9    1  0.1445593E-005  0.1139731E+03  0.7546771E-02  0.1264162E+00
         21   -1    0    0  501  502  0.00000000000E+00  0.00000000000E+00  0.32221204242E+02  0.32221204242E+02  0.00000000000E+00 0. -1.
          2   -1    0    0  502    0 -0.00000000000E+00 -0.00000000000E+00 -0.68942359331E+03  0.68942359331E+03  0.00000000000E+00 0. -1.
         23    2    1    2    0    0 -0.64432734440E+02  0.92362957262E+01 -0.39142291657E+03  0.40330883888E+03  0.72175019723E+02 0.  0.
         23    2    1    2    0    0  0.20695584442E+02 -0.43585387714E+02 -0.12137173785E+03  0.16358973986E+03  0.98501324877E+02 0.  0.
        -11    1    3    3    0    0 -0.59943346815E+02  0.35038527858E+02 -0.24906872963E+03  0.25856553394E+03  0.00000000000E+00 0. -1.
         11    1    3    3    0    0 -0.44893876253E+01 -0.25802232132E+02 -0.14235418694E+03  0.14474330494E+03  0.00000000000E+00 0.  1.
        -11    1    4    4    0    0 -0.18256820718E+02 -0.63351649105E+02 -0.75913823581E+02  0.10054676304E+03  0.00000000000E+00 0. -1.
         11    1    4    4    0    0  0.38952405160E+02  0.19766261391E+02 -0.45457914264E+02  0.63042976821E+02  0.00000000000E+00 0.  1.
          2    1    1    2  501    0  0.43737149999E+02  0.34349091988E+02 -0.14440773465E+03  0.15474621881E+03  0.00000000000E+00 0. -1.
<scales pt_clust_5="13000.00000" pt_clust_6="13000.00000" pt_clust_7="13000.00000" pt_clust_8="13000.00000" pt_clust_9="55.61296"></scales>
<clustering>
<clus scale="   55.613">  1  9  2 -1</clus>
<clus scale="   72.175">  5  6 -1 -1</clus>
<clus scale="   92.177">  2  5  1 -1</clus>
<clus scale="   98.501">  7  8 -1 -1</clus>
<clus scale="   55.613">  1  5  2 -1</clus>
</clustering>
</event>
<event>
 9    1  0.1445593E-005  0.1082121E+03  0.7546771E-02  0.1273333E+00
         21   -1    0    0  501  502  0.00000000000E+00  0.00000000000E+00  0.12652306592E+03  0.12652306592E+03  0.00000000000E+00 0.  1.
          1   -1    0    0  502    0 -0.00000000000E+00 -0.00000000000E+00 -0.11118691231E+03  0.11118691231E+03  0.00000000000E+00 0. -1.
         23    2    1    2    0    0  0.28532447867E+02  0.56910164441E+02 -0.19414245188E+02  0.11277765834E+03  0.91044054755E+02 0.  0.
         23    2    1    2    0    0 -0.94910146619E+00 -0.55932572736E+02  0.12353588384E+02  0.89387787250E+02  0.68616411135E+02 0.  0.
        -11    1    3    3    0    0  0.19126393130E+02  0.81934286483E+02 -0.17773422464E+02  0.85993841418E+02  0.00000000000E+00 0. -1.
         11    1    3    3    0    0  0.94060547371E+01 -0.25024122042E+02 -0.16408227242E+01  0.26783816922E+02  0.00000000000E+00 0.  1.
        -13    1    4    4    0    0  0.31907571352E+02 -0.23188120148E+02  0.16626224671E+02  0.42804361605E+02  0.00000000000E+00 0.  1.
         13    1    4    4    0    0 -0.32856672818E+02 -0.32744452588E+02 -0.42726362874E+01  0.46583425645E+02  0.00000000000E+00 0. -1.
          1    1    1    2  501    0 -0.27583346401E+02 -0.97759170477E+00  0.22396810417E+02  0.35544532647E+02  0.00000000000E+00 0. -1.
<scales pt_clust_5="13000.00000" pt_clust_6="13000.00000" pt_clust_7="13000.00000" pt_clust_8="13000.00000" pt_clust_9="27.60066"></scales>
<clustering>
<clus scale="   27.601">  1  9  2 -1</clus>
<clus scale="   68.616">  7  8 -1 -1</clus>
<clus scale="   90.161">  1  7  2 -1</clus>
<clus scale="   91.044">  5  6 -1 -1</clus>
<clus scale="   27.601">  1  5  2 -1</clus>
</clustering>
</event>
<event>
 9    1  0.1445593E-005  0.1139744E+03  0.7546771E-02  0.1257432E+00
         21   -1    0    0  501  502  0.00000000000E+00  0.00000000000E+00  0.25376958761E+03  0.25376958761E+03  0.00000000000E+00 0. -1.
         -1   -1    0    0    0  501 -0.00000000000E+00 -0.00000000000E+00 -0.39766521224E+03  0.39766521224E+03  0.00000000000E+00 0.  1.
         23    2    1    2    0    0  0.63306647360E+02  0.28999647656E+01 -0.33011438182E+03  0.34838709575E+03  0.91552837247E+02 0.  0.
         23    2    1    2    0    0 -0.10867212346E+03 -0.12424312917E+02  0.28533208216E+02  0.13868994801E+03  0.80353990174E+02 0.  0.
        -11    1    3    3    0    0  0.79589477560E+02 -0.14884625256E+02 -0.29412660928E+03  0.30506802404E+03  0.00000000000E+00 0.  1.
         11    1    3    3    0    0 -0.16282830199E+02  0.17784590021E+02 -0.35987772543E+02  0.43319071714E+02  0.00000000000E+00 0. -1.
        -11    1    4    4    0    0 -0.30770865867E+02  0.21018779044E+02 -0.18646735757E+02  0.41669365403E+02  0.00000000000E+00 0.  1.
         11    1    4    4    0    0 -0.77901257597E+02 -0.33443091961E+02  0.47179943973E+02  0.97020582602E+02  0.00000000000E+00 0. -1.
         -1    1    1    2    0  502  0.45365476104E+02  0.95243481515E+01  0.15768554898E+03  0.16435775609E+03  0.00000000000E+00 0.  1.
<scales pt_clust_5="13000.00000" pt_clust_6="13000.00000" pt_clust_7="13000.00000" pt_clust_8="13000.00000" pt_clust_9="46.35450"></scales>
<clustering>
<clus scale="   46.354">  1  9  2 -1</clus>
<clus scale="   80.354">  7  8 -1 -1</clus>
<clus scale="   91.553">  5  6 -1 -1</clus>
<clus scale="  105.190">  1  7  2 -1</clus>
<clus scale="   46.354">  1  5  2 -1</clus>
</clustering>
</event>
<event>
 9    1  0.1445593E-005  0.1030846E+03  0.7546771E-02  0.1278100E+00
         21   -1    0    0  501  502  0.00000000000E+00  0.00000000000E+00  0.16891645669E+03  0.16891645669E+03  0.00000000000E+00 0. -1.
         -1   -1    0    0    0  501 -0.00000000000E+00 -0.00000000000E+00 -0.91829005849E+02  0.91829005849E+02  0.00000000000E+00 0.  1.
         23    2    1    2    0    0 -0.23282817489E+02 -0.49612785141E+01 -0.13994360146E+02  0.95615594630E+02  0.91541225389E+02 0.  0.
         23    2    1    2    0    0  0.22344963386E+02  0.27202747772E+02  0.46968416880E+02  0.11571778371E+03  0.99726056816E+02 0.  0.
        -11    1    3    3    0    0 -0.21896640053E+02 -0.25468036315E+02 -0.46376465695E+02  0.57261333286E+02  0.00000000000E+00 0. -1.
         11    1    3    3    0    0 -0.13861774361E+01  0.20506757800E+02  0.32382105550E+02  0.38354261343E+02  0.00000000000E+00 0.  1.
        -13    1    4    4    0    0 -0.18842864622E+02  0.30223325777E+02 -0.17087367933E+02  0.39502925348E+02  0.00000000000E+00 0.  1.
         13    1    4    4    0    0  0.41187828008E+02 -0.30205780052E+01  0.64055784813E+02  0.76214858364E+02  0.00000000000E+00 0. -1.
         -1    1    1    2    0  502  0.93785410276E+00 -0.22241469258E+02  0.44113394109E+02  0.49412084199E+02  0.00000000000E+00 0.  1.
<scales pt_clust_5="13000.00000" pt_clust_6="13000.00000" pt_clust_7="13000.00000" pt_clust_8="13000.00000" pt_clust_9="22.26123"></scales>
<clustering>
<clus scale="   22.261">  1  9  2 -1</clus>
<clus scale="   91.541">  5  6 -1 -1</clus>
<clus scale="   95.189">  2  5  1 -1</clus>
<clus scale="   99.726">  7  8 -1 -1</clus>
<clus scale="   22.261">  1  5  2 -1</clus>
</clustering>
</event>
<event>
 9    1  0.1445593E-005  0.1527772E+03  0.7546771E-02  0.1215953E+00
          1   -1    0    0  502    0 -0.00000000000E+00  0.00000000000E+00  0.27846709391E+03  0.27846709391E+03  0.00000000000E+00 0. -1.
         21   -1    0    0  501  502  0.00000000000E+00 -0.00000000000E+00 -0.19454398297E+03  0.19454398297E+03  0.00000000000E+00 0.  1.
         23    2    1    2    0    0  0.17568864099E+02  0.37853511345E+02 -0.49368387351E+02  0.11323207902E+03  0.92966191396E+02 0.  0.
         23    2    1    2    0    0  0.71562315007E+02 -0.12089792235E+03  0.16480476904E+03  0.23394646026E+03  0.88503456503E+02 0.  0.
        -13    1    4    4    0    0  0.47457671479E+02 -0.48971831773E+02  0.20989978829E+02  0.71351594942E+02  0.00000000000E+00 0.  1.
         13    1    4    4    0    0  0.24104643528E+02 -0.71926090574E+02  0.14381479021E+03  0.16259486532E+03  0.00000000000E+00 0. -1.
        -13    1    3    3    0    0  0.17120634307E+02  0.68541406426E+02 -0.28833501869E+02  0.76304726878E+02  0.00000000000E+00 0.  1.
         13    1    3    3    0    0  0.44822979226E+00 -0.30687895081E+02 -0.20534885481E+02  0.36927352142E+02  0.00000000000E+00 0. -1.
          1    1    1    2  501    0 -0.89131179106E+02  0.83044411002E+02 -0.31513270743E+02  0.12583253761E+03  0.00000000000E+00 0. -1.
<scales pt_clust_5="13000.00000" pt_clust_6="13000.00000" pt_clust_7="13000.00000" pt_clust_8="13000.00000" pt_clust_9="124.53120"></scales>
<clustering>
<clus scale="   88.503">  5  6 -1 -1</clus>
<clus scale="   92.966">  7  8 -1 -1</clus>
<clus scale="  101.903">  1  7  2 -1</clus>
<clus scale="  124.531">  2  9  1 -1</clus>
<clus scale="  124.531">  2  5  1 -1</clus>
</clustering>
</event>
<event>
 9    1  0.1445593E-005  0.1893970E+03  0.7546771E-02  0.1159084E+00
         21   -1    0    0  501  502  0.00000000000E+00  0.00000000000E+00  0.15516045976E+03  0.15516045976E+03  0.00000000000E+00 0.  1.
         -1   -1    0    0    0  501 -0.00000000000E+00 -0.00000000000E+00 -0.46274904788E+03  0.46274904788E+03  0.00000000000E+00 0.  1.
         23    2    1    2    0    0  0.37069461318E+02  0.17087503789E+03 -0.27652400358E+03  0.33954878246E+03  0.90859383561E+02 0.  0.
         23    2    1    2    0    0 -0.92631998727E+02 -0.12720040821E+03 -0.73037443359E+02  0.19616346417E+03  0.91569675678E+02 0.  0.
        -11    1    4    4    0    0 -0.60170523051E+02 -0.26833147644E+02 -0.61363531694E+02  0.90033286504E+02  0.00000000000E+00 0. -1.
         11    1    4    4    0    0 -0.32461475676E+02 -0.10036726057E+03 -0.11673911666E+02  0.10613017766E+03  0.00000000000E+00 0.  1.
        -11    1    3    3    0    0  0.39890706713E+02  0.11700157024E+03 -0.25116899544E+03  0.27994017252E+03  0.00000000000E+00 0.  1.
         11    1    3    3    0    0 -0.28212453952E+01  0.53873467642E+02 -0.25355008143E+02  0.59608609943E+02  0.00000000000E+00 0. -1.
         -1    1    1    2    0  502  0.55562537409E+02 -0.43674629672E+02  0.41972858814E+02  0.82197261009E+02  0.00000000000E+00 0.  1.
<scales pt_clust_5="13000.00000" pt_clust_6="13000.00000" pt_clust_7="13000.00000" pt_clust_8="13000.00000" pt_clust_9="70.67297"></scales>
<clustering>
<clus scale="   70.673">  1  9  2 -1</clus>
<clus scale="   90.859">  7  8 -1 -1</clus>
<clus scale="   91.570">  5  6 -1 -1</clus>
<clus scale="  189.055">  2  7  1 -1</clus>
<clus scale="   70.673">  1  5  2 -1</clus>
</clustering>
</event>
<event>
 9    1  0.1445593E-005  0.1079660E+03  0.7546771E-02  0.1264952E+00
          1   -1    0    0  502    0 -0.00000000000E+00  0.00000000000E+00  0.45721781615E+03  0.45721781615E+03  0.00000000000E+00 0. -1.
         21   -1    0    0  501  502  0.00000000000E+00 -0.00000000000E+00 -0.97688700485E+02  0.97688700485E+02  0.00000000000E+00 0.  1.
         23    2    1    2    0    0  0.49111821692E+02 -0.36986125790E+02  0.31409410860E+03  0.33324393225E+03  0.92824914721E+02 0.  0.
         23    2    1    2    0    0 -0.20063862786E+02  0.40900032132E+02  0.11038612166E+03  0.15040425249E+03  0.91438351326E+02 0.  0.
        -13    1    4    4    0    0 -0.38316220547E+02  0.22057028519E+02  0.82775942148E+01  0.44979593485E+02  0.00000000000E+00 0.  1.
         13    1    4    4    0    0  0.18252357761E+02  0.18843003612E+02  0.10210852744E+03  0.10542465900E+03  0.00000000000E+00 0. -1.
        -13    1    3    3    0    0 -0.26600565790E+02 -0.84607584525E+01  0.11497447963E+03  0.11831443488E+03  0.00000000000E+00 0.  1.
         13    1    3    3    0    0  0.75712387481E+02 -0.28525367338E+02  0.19911962897E+03  0.21492949737E+03  0.00000000000E+00 0. -1.
          1    1    1    2  501    0 -0.29047958906E+02 -0.39139063411E+01 -0.64951114588E+02  0.71258331903E+02  0.00000000000E+00 0. -1.
<scales pt_clust_5="13000.00000" pt_clust_6="13000.00000" pt_clust_7="13000.00000" pt_clust_8="13000.00000" pt_clust_9="29.31045"></scales>
<clustering>
<clus scale="   29.310">  2  9  1 -1</clus>
<clus scale="   91.438">  5  6 -1 -1</clus>
<clus scale="   92.825">  7  8 -1 -1</clus>
<clus scale="  106.776">  2  5  1 -1</clus>
<clus scale="   29.310">  2  5  1 -1</clus>
</clustering>
</event>
<event>
 9    1  0.1445593E-005  0.1093999E+03  0.7546771E-02  0.1268167E+00
          1   -1    0    0  502    0 -0.00000000000E+00  0.00000000000E+00  0.45331727844E+03  0.45331727844E+03  0.00000000000E+00 0. -1.
         21   -1    0    0  501  502  0.00000000000E+00 -0.00000000000E+00 -0.53874657183E+02  0.53874657183E+02  0.00000000000E+00 0.  1.
         23    2    1    2    0    0 -0.17060655068E+02 -0.28759561083E+02  0.16773939003E+03  0.19104566481E+03  0.85110309428E+02 0.  0.
         23    2    1    2    0    0  0.90306127379E+02 -0.61088818893E+00  0.16488554722E+03  0.21274353680E+03  0.99584129976E+02 0.  0.
        -11    1    4    4    0    0  0.86849164214E+01  0.36907949290E+02  0.82749212825E+02  0.91022286926E+02  0.00000000000E+00 0.  1.
         11    1    4    4    0    0  0.81621210957E+02 -0.37518837479E+02  0.82136334395E+02  0.12172124988E+03  0.00000000000E+00 0. -1.
        -13    1    3    3    0    0 -0.32719799920E+02  0.20884478916E+02  0.61251700965E+02  0.72515637193E+02  0.00000000000E+00 0.  1.
         13    1    3    3    0    0  0.15659144853E+02 -0.49644040000E+02  0.10648768906E+03  0.11853002762E+03  0.00000000000E+00 0. -1.
          1    1    1    2  501    0 -0.73245472311E+02  0.29370449272E+02  0.66817684012E+02  0.10340273401E+03  0.00000000000E+00 0. -1.
<scales pt_clust_5="13000.00000" pt_clust_6="13000.00000" pt_clust_7="13000.00000" pt_clust_8="13000.00000" pt_clust_9="78.91465"></scales>
<clustering>
<clus scale="   78.915">  2  9  1 -1</clus>
<clus scale="   85.110">  7  8 -1 -1</clus>
<clus scale="   96.411">  1  7  2 -1</clus>
<clus scale="   99.584">  5  6 -1 -1</clus>
<clus scale="   78.915">  2  5  1 -1</clus>
</clustering>
</event>
<event>
 9    1  0.1445593E-005  0.1695318E+03  0.7546771E-02  0.1179055E+00
         21   -1    0    0  501  502  0.00000000000E+00  0.00000000000E+00  0.99659690356E+02  0.99659690356E+02  0.00000000000E+00 0.  1.
         -3   -1    0    0    0  501 -0.00000000000E+00 -0.00000000000E+00 -0.50225548142E+03  0.50225548142E+03  0.00000000000E+00 0.  1.
         23    2    1    2    0    0 -0.47607256195E+00  0.15270966699E+03 -0.28224532215E+03  0.33191291434E+03  0.84754302519E+02 0.  0.
         23    2    1    2    0    0  0.29152801624E+02 -0.12982217186E+03 -0.15229871536E+03  0.22135163900E+03  0.89988706161E+02 0.  0.
        -11    1    4    4    0    0  0.50010318397E+01 -0.13506096857E+03 -0.13607596692E+03  0.19178932276E+03  0.00000000000E+00 0.  1.
         11    1    4    4    0    0  0.24151769785E+02  0.52387967029E+01 -0.16222748436E+02  0.29562316239E+02  0.00000000000E+00 0. -1.
        -13    1    3    3    0    0  0.69265956720E+01  0.13015348754E+03 -0.27901198089E+03  0.30795388215E+03  0.00000000000E+00 0.  1.
         13    1    3    3    0    0 -0.74026682340E+01  0.22556179446E+02 -0.32333412585E+01  0.23959032198E+02  0.00000000000E+00 0. -1.
         -3    1    1    2    0  502 -0.28676729062E+02 -0.22887495124E+02  0.31948246448E+02  0.48650618433E+02  0.00000000000E+00 0.  1.
<scales pt_clust_5="13000.00000" pt_clust_6="13000.00000" pt_clust_7="13000.00000" pt_clust_8="13000.00000" pt_clust_9="36.69049"></scales>
<clustering>
<clus scale="   36.690">  1  9  2 -1</clus>
<clus scale="   84.754">  7  8 -1 -1</clus>
<clus scale="   89.989">  5  6 -1 -1</clus>
<clus scale="  166.812">  2  7  1 -1</clus>
<clus scale="   36.690">  1  5  2 -1</clus>
</clustering>
</event>
<event>
 9    1  0.1445593E-005  0.1094344E+03  0.7546771E-02  0.1263337E+00
         21   -1    0    0  501  502  0.00000000000E+00  0.00000000000E+00  0.47265709447E+03  0.47265709447E+03  0.00000000000E+00 0. -1.
          4   -1    0    0  502    0 -0.00000000000E+00 -0.00000000000E+00 -0.96654540597E+02  0.96654540597E+02  0.00000000000E+00 0. -1.
         23    2    1    2    0    0  0.49178205848E+02 -0.44412605346E+02 -0.39082741326E+02  0.11954913802E+03  0.91507159755E+02 0.  0.
         23    2    1    2    0    0 -0.41066443956E+02  0.94915290868E+01  0.12820346106E+03  0.16064925106E+03  0.87152237464E+02 0.  0.
        -13    1    4    4    0    0 -0.68139053801E+02  0.46660711091E+00  0.86470879864E+02  0.11009251309E+03  0.00000000000E+00 0.  1.
         13    1    4    4    0    0  0.27072609845E+02  0.90249219759E+01  0.41732581191E+02  0.50556737962E+02  0.00000000000E+00 0. -1.
        -13    1    3    3    0    0  0.14507149134E+02 -0.58562293948E+02 -0.52292276435E+02  0.79840352098E+02  0.00000000000E+00 0. -1.
         13    1    3    3    0    0  0.34671056714E+02  0.14149688601E+02  0.13209535109E+02  0.39708785917E+02  0.00000000000E+00 0.  1.
          4    1    1    2  501    0 -0.81117618920E+01  0.34921076260E+02  0.28688183414E+03  0.28911324599E+03  0.00000000000E+00 0. -1.
<scales pt_clust_5="13000.00000" pt_clust_6="13000.00000" pt_clust_7="13000.00000" pt_clust_8="13000.00000" pt_clust_9="35.85083"></scales>
<clustering>
<clus scale="   35.851">  1  9  2 -1</clus>
<clus scale="   87.152">  5  6 -1 -1</clus>
<clus scale="   91.507">  7  8 -1 -1</clus>
<clus scale="  105.820">  1  5  2 -1</clus>
<clus scale="   35.851">  1  5  2 -1</clus>
</clustering>
</event>
<event>
 9    1  0.1445593E-005  0.1323316E+03  0.7546771E-02  0.1224650E+00
         21   -1    0    0  501  502  0.00000000000E+00  0.00000000000E+00  0.52863367355E+02  0.52863367355E+02  0.00000000000E+00 0.  1.
          3   -1    0    0  502    0 -0.00000000000E+00 -0.00000000000E+00 -0.60882987300E+03  0.60882987300E+03  0.00000000000E+00 0. -1.
         23    2    1    2    0    0  0.93039771671E+02 -0.27548105690E+02 -0.38749609854E+03  0.41026801008E+03  0.93548471222E+02 0.  0.
         23    2    1    2    0    0 -0.78314769737E+02  0.41953789951E+02 -0.18531220275E+03  0.22481704542E+03  0.91152442496E+02 0.  0.
        -13    1    4    4    0    0  0.13024439227E+02  0.32701124558E+02 -0.58231595665E+02  0.68043502983E+02  0.00000000000E+00 0. -1.
         13    1    4    4    0    0 -0.91339208964E+02  0.92526653926E+01 -0.12708060708E+03  0.15677354244E+03  0.00000000000E+00 0.  1.
        -13    1    3    3    0    0 -0.67851871638E+01 -0.21310595631E+02 -0.22145375233E+02  0.31473765189E+02  0.00000000000E+00 0.  1.
         13    1    3    3    0    0  0.99824958835E+02 -0.62375100598E+01 -0.36535072331E+03  0.37879424489E+03  0.00000000000E+00 0. -1.
          3    1    1    2  501    0 -0.14725001934E+02 -0.14405684260E+02  0.16841795645E+02  0.26608184859E+02  0.00000000000E+00 0. -1.
<scales pt_clust_5="13000.00000" pt_clust_6="13000.00000" pt_clust_7="13000.00000" pt_clust_8="13000.00000" pt_clust_9="20.59974"></scales>
<clustering>
<clus scale="   20.600">  1  9  2 -1</clus>
<clus scale="   91.152">  5  6 -1 -1</clus>
<clus scale="   93.548">  7  8 -1 -1</clus>
<clus scale="  130.649">  1  5  2 -1</clus>
<clus scale="   20.600">  1  5  2 -1</clus>
</clustering>
</event>
<event>
 9    1  0.1445593E-005  0.1003542E+03  0.7546771E-02  0.1281525E+00
         21   -1    0    0  501  502  0.00000000000E+00  0.00000000000E+00  0.29717658280E+02  0.29717658280E+02  0.00000000000E+00 0. -1.
          1   -1    0    0  502    0 -0.00000000000E+00 -0.00000000000E+00 -0.67589150175E+03  0.67589150175E+03  0.00000000000E+00 0. -1.
         23    2    1    2    0    0 -0.73443894703E+01 -0.51051717533E+01 -0.26899090713E+03  0.28529284443E+03  0.94635596514E+02 0.  0.
         23    2    1    2    0    0  0.39399595431E+02  0.43004285909E+02 -0.34425245641E+03  0.36074874396E+03  0.90709458154E+02 0.  0.
        -11    1    4    4    0    0  0.18624683040E+02 -0.26882736662E+02 -0.75431991744E+02  0.82216456547E+02  0.00000000000E+00 0.  1.
         11    1    4    4    0    0  0.20774912391E+02  0.69887022571E+02 -0.26882046467E+03  0.27853228741E+03  0.00000000000E+00 0. -1.
        -13    1    3    3    0    0  0.66292865968E+01 -0.39909793068E+02 -0.56345765066E+02  0.69365584150E+02  0.00000000000E+00 0.  1.
         13    1    3    3    0    0 -0.13973676067E+02  0.34804621315E+02 -0.21264514206E+03  0.21592726028E+03  0.00000000000E+00 0. -1.
          1    1    1    2  501    0 -0.32055205961E+02 -0.37899114155E+02 -0.32930479935E+02  0.59567571645E+02  0.00000000000E+00 0. -1.
<scales pt_clust_5="13000.00000" pt_clust_6="13000.00000" pt_clust_7="13000.00000" pt_clust_8="13000.00000" pt_clust_9="49.63748"></scales>
<clustering>
<clus scale="   49.637">  1  9  2 -1</clus>
<clus scale="   90.709">  5  6 -1 -1</clus>
<clus scale="   94.636">  7  8 -1 -1</clus>
<clus scale="   96.661">  1  5  2 -1</clus>
<clus scale="   49.637">  1  5  2 -1</clus>
</clustering>
</event>
<event>
 9    1  0.1445593E-005  0.9917749E+02  0.7546771E-02  0.1282500E+00
         21   -1    0    0  501  502  0.00000000000E+00  0.00000000000E+00  0.52062580041E+02  0.52062580041E+02  0.00000000000E+00 0.  1.
          3   -1    0    0  502    0 -0.00000000000E+00 -0.00000000000E+00 -0.26706307931E+03  0.26706307931E+03  0.00000000000E+00 0. -1.
         23    2    1    2    0    0  0.29664029082E+01 -0.37367594764E+02 -0.13089486619E+03  0.16391434856E+03  0.91265058947E+02 0.  0.
         23    2    1    2    0    0  0.17062271116E+02  0.34413860332E+02 -0.89655113072E+02  0.13421919183E+03  0.92202588238E+02 0.  0.
        -11    1    4    4    0    0 -0.11981578709E+02 -0.22267966105E+02 -0.57624793060E+02  0.62928827400E+02  0.00000000000E+00 0.  1.
         11    1    4    4    0    0  0.29043849825E+02  0.56681826437E+02 -0.32030320013E+02  0.71290364433E+02  0.00000000000E+00 0. -1.
        -13    1    3    3    0    0  0.13739980714E+02 -0.64400600127E+02 -0.68239190594E+02  0.94830435513E+02  0.00000000000E+00 0.  1.
         13    1    3    3    0    0 -0.10773577806E+02  0.27033005363E+02 -0.62655675592E+02  0.69083913045E+02  0.00000000000E+00 0. -1.
          3    1    1    2  501    0 -0.20028674024E+02  0.29537344322E+01  0.55494799891E+01  0.20992118960E+02  0.00000000000E+00 0. -1.
<scales pt_clust_5="13000.00000" pt_clust_6="13000.00000" pt_clust_7="13000.00000" pt_clust_8="13000.00000" pt_clust_9="20.24530"></scales>
<clustering>
<clus scale="   20.245">  1  9  2 -1</clus>
<clus scale="   91.265">  7  8 -1 -1</clus>
<clus scale="   92.203">  5  6 -1 -1</clus>
<clus scale="   98.306">  2  7  1 -1</clus>
<clus scale="   20.245">  1  5  2 -1</clus>
</clustering>
</event>
<event>
 9    1  0.1445593E-005  0.1109356E+03  0.7546771E-02  0.1258959E+00
         21   -1    0    0  501  502  0.00000000000E+00  0.00000000000E+00  0.48479522316E+03  0.48479522316E+03  0.00000000000E+00 0. -1.
         -1   -1    0    0    0  501 -0.00000000000E+00 -0.00000000000E+00 -0.33970324245E+03  0.33970324245E+03  0.00000000000E+00 0.  1.
         23    2    1    2    0    0  0.51628763103E+02 -0.35051201175E+02 -0.31696016964E+03  0.33568436366E+03  0.91247613567E+02 0.  0.
         23    2    1    2    0    0 -0.66111587636E+02  0.59254283889E+02  0.32665208911E+03  0.35050749327E+03  0.90951104140E+02 0.  0.
        -11    1    3    3    0    0 -0.65216996788E+01 -0.49465335523E+02 -0.12488813136E+03  0.13448567708E+03  0.00000000000E+00 0.  1.
         11    1    3    3    0    0  0.58150462782E+02  0.14414134349E+02 -0.19207203828E+03  0.20119868658E+03  0.00000000000E+00 0. -1.
        -13    1    4    4    0    0 -0.49238420721E+02  0.29710789911E+02  0.30455971004E+03  0.30994155915E+03  0.00000000000E+00 0. -1.
         13    1    4    4    0    0 -0.16873166915E+02  0.29543493978E+02  0.22092379071E+02  0.40565934122E+02  0.00000000000E+00 0.  1.
         -1    1    1    2    0  502  0.14482824532E+02 -0.24203082714E+02  0.13540006124E+03  0.13830660867E+03  0.00000000000E+00 0.  1.
<scales pt_clust_5="13000.00000" pt_clust_6="13000.00000" pt_clust_7="13000.00000" pt_clust_8="13000.00000" pt_clust_9="28.20534"></scales>
<clustering>
<clus scale="   28.205">  1  9  2 -1</clus>
<clus scale="   90.951">  7  8 -1 -1</clus>
<clus scale="   91.248">  5  6 -1 -1</clus>
<clus scale="  110.692">  1  7  2 -1</clus>
<clus scale="   28.205">  1  5  2 -1</clus>
</clustering>
</event>
<event>
 9    1  0.1445593E-005  0.9192174E+02  0.7546771E-02  0.1301158E+00
         21   -1    0    0  501  502  0.00000000000E+00  0.00000000000E+00  0.31306834360E+02  0.31306834360E+02  0.00000000000E+00 0.  1.
          2   -1    0    0  502    0 -0.00000000000E+00 -0.00000000000E+00 -0.64521522093E+03  0.64521522093E+03  0.00000000000E+00 0. -1.
         23    2    1    2    0    0  0.66926177638E+01 -0.92754937857E+01 -0.52895402607E+03  0.53690286251E+03  0.91331791662E+02 0.  0.
         23    2    1    2    0    0 -0.16080298745E+02 -0.84283059019E+01 -0.79396333058E+02  0.11882388689E+03  0.86520090413E+02 0.  0.
        -11    1    4    4    0    0  0.33572752455E+02 -0.48070218392E+00 -0.51042537810E+02  0.61095838222E+02  0.00000000000E+00 0.  1.
         11    1    4    4    0    0 -0.49653051200E+02 -0.79476037180E+01 -0.28353795247E+02  0.57728048670E+02  0.00000000000E+00 0. -1.
        -13    1    3    3    0    0  0.46459569295E+02  0.10501249901E+02 -0.27457204791E+03  0.27867288588E+03  0.00000000000E+00 0.  1.
         13    1    3    3    0    0 -0.39766951531E+02 -0.19776743686E+02 -0.25438197815E+03  0.25822997664E+03  0.00000000000E+00 0. -1.
          2    1    1    2  501    0  0.93876809813E+01  0.17703799688E+02 -0.55580274431E+01  0.20795305880E+02  0.00000000000E+00 0. -1.
<scales pt_clust_5="13000.00000" pt_clust_6="13000.00000" pt_clust_7="13000.00000" pt_clust_8="13000.00000" pt_clust_9="20.03879"></scales>
<clustering>
<clus scale="   20.039">  1  9  2 -1</clus>
<clus scale="   86.520">  5  6 -1 -1</clus>
<clus scale="   87.143">  1  5  2 -1</clus>
<clus scale="   91.332">  7  8 -1 -1</clus>
<clus scale="   20.039">  1  5  2 -1</clus>
</clustering>
</event>
<event>
 9    1  0.1445593E-005  0.1312487E+03  0.7546771E-02  0.1225985E+00
          3   -1    0    0  502    0 -0.00000000000E+00  0.00000000000E+00  0.55937103761E+02  0.55937103761E+02  0.00000000000E+00 0. -1.
         21   -1    0    0  501  502  0.00000000000E+00 -0.00000000000E+00 -0.44027191328E+03  0.44027191328E+03  0.00000000000E+00 0.  1.
         23    2    1    2    0    0  0.62922253296E+02 -0.76999662236E+02 -0.11063772191E+03  0.17492695478E+03  0.92035732497E+02 0.  0.
         23    2    1    2    0    0 -0.78429394650E+02  0.42825661071E+02 -0.18078885388E+03  0.22108089618E+03  0.90592194902E+02 0.  0.
        -11    1    4    4    0    0 -0.49129033010E+02  0.70937365651E+02 -0.13045083912E+03  0.15640713908E+03  0.00000000000E+00 0. -1.
         11    1    4    4    0    0 -0.29300361641E+02 -0.28111704580E+02 -0.50338014762E+02  0.64673757096E+02  0.00000000000E+00 0.  1.
        -13    1    3    3    0    0  0.39402816515E+02 -0.71055295649E+02 -0.12322230397E+03  0.14759801213E+03  0.00000000000E+00 0.  1.
         13    1    3    3    0    0  0.23519436781E+02 -0.59443665869E+01  0.12584582065E+02  0.27328942650E+02  0.00000000000E+00 0. -1.
          3    1    1    2  501    0  0.15507141354E+02  0.34174001165E+02 -0.92908233735E+02  0.10020116608E+03  0.00000000000E+00 0. -1.
<scales pt_clust_5="13000.00000" pt_clust_6="13000.00000" pt_clust_7="13000.00000" pt_clust_8="13000.00000" pt_clust_9="37.52777"></scales>
<clustering>
<clus scale="   37.528">  2  9  1 -1</clus>
<clus scale="   90.592">  5  6 -1 -1</clus>
<clus scale="   92.036">  7  8 -1 -1</clus>
<clus scale="  130.241">  2  5  1 -1</clus>
<clus scale="   37.528">  2  5  1 -1</clus>
</clustering>
</event>
<event>
 9    1  0.1445593E-005  0.1951414E+03  0.7546771E-02  0.1183084E+00
          2   -1    0    0  502    0 -0.00000000000E+00  0.00000000000E+00  0.10847117948E+03  0.10847117948E+03  0.00000000000E+00 0. -1.
         21   -1    0    0  501  502  0.00000000000E+00 -0.00000000000E+00 -0.11370025968E+04  0.11370025968E+04  0.00000000000E+00 0. -1.
         23    2    1    2    0    0 -0.16280589724E+02  0.25425745148E+02  0.39700749607E+02  0.10752247385E+03  0.95254431636E+02 0.  0.
         23    2    1    2    0    0  0.16329811907E+03  0.65575691726E+02 -0.37926717651E+03  0.42762167931E+03  0.89723254549E+02 0.  0.
        -11    1    3    3    0    0  0.29054917504E+02  0.19744553868E+01 -0.14956587275E+02  0.32738146071E+02  0.00000000000E+00 0.  1.
         11    1    3    3    0    0 -0.45335507228E+02  0.23451289761E+02  0.54657336882E+02  0.74784327784E+02  0.00000000000E+00 0. -1.
        -11    1    4    4    0    0  0.48951360844E+02  0.36758723210E+02 -0.22655443377E+03  0.23467925115E+03  0.00000000000E+00 0. -1.
         11    1    4    4    0    0  0.11434675822E+03  0.28816968516E+02 -0.15271274274E+03  0.19294242817E+03  0.00000000000E+00 0.  1.
          2    1    1    2  501    0 -0.14701752934E+03 -0.91001436874E+02 -0.68896499044E+03  0.71032962313E+03  0.00000000000E+00 0. -1.
<scales pt_clust_5="13000.00000" pt_clust_6="13000.00000" pt_clust_7="13000.00000" pt_clust_8="13000.00000" pt_clust_9="173.29135"></scales>
<clustering>
<clus scale="   89.723">  7  8 -1 -1</clus>
<clus scale="   95.254">  5  6 -1 -1</clus>
<clus scale="   99.925">  1  5  2 -1</clus>
<clus scale="  173.291">  2  9  1 -1</clus>
<clus scale="  173.291">  2  5  1 -1</clus>
</clustering>
</event>
<event>
 9    1  0.1445593E-005  0.1431135E+03  0.7546771E-02  0.1210099E+00
          1   -1    0    0  502    0 -0.00000000000E+00  0.00000000000E+00  0.26471354691E+03  0.26471354691E+03  0.00000000000E+00 0. -1.
         21   -1    0    0  501  502  0.00000000000E+00 -0.00000000000E+00 -0.18244007896E+03  0.18244007896E+03  0.00000000000E+00 0. -1.
         23    2    1    2    0    0 -0.51766386551E+02 -0.75113380939E+02  0.92283215430E+02  0.16092910049E+03  0.95185107876E+02 0.  0.
         23    2    1    2    0    0  0.12652992078E+03  0.65323049252E+02  0.63854073646E+02  0.18067216530E+03  0.91039370486E+02 0.  0.
        -11    1    3    3    0    0  0.95492410355E+01 -0.62105961328E+02  0.70816769873E+02  0.94674987891E+02  0.00000000000E+00 0. -1.
         11    1    3    3    0    0 -0.61315627586E+02 -0.13007419611E+02  0.21466445557E+02  0.66254112597E+02  0.00000000000E+00 0.  1.
        -13    1    4    4    0    0  0.18082666885E+02 -0.17261203222E+02 -0.84282664512E+01  0.26381198868E+02  0.00000000000E+00 0.  1.
         13    1    4    4    0    0  0.10844725389E+03  0.82584252473E+02  0.72282340098E+02  0.15429096644E+03  0.00000000000E+00 0. -1.
          1    1    1    2  501    0 -0.74763534228E+02  0.97903316876E+01 -0.73863821130E+02  0.10555236007E+03  0.00000000000E+00 0. -1.
<scales pt_clust_5="13000.00000" pt_clust_6="13000.00000" pt_clust_7="13000.00000" pt_clust_8="13000.00000" pt_clust_9="75.40183"></scales>
<clustering>
<clus scale="   75.402">  2  9  1 -1</clus>
<clus scale="   91.039">  7  8 -1 -1</clus>
<clus scale="   95.185">  5  6 -1 -1</clus>
<clus scale="  140.390">  2  7  1 -1</clus>
<clus scale="   75.402">  2  5  1 -1</clus>
</clustering>
</event>
<event>
 9    1  0.1445593E-005  0.1488210E+03  0.7546771E-02  0.1204865E+00
          1   -1    0    0  502    0 -0.00000000000E+00  0.00000000000E+00  0.11475614935E+03  0.11475614935E+03  0.00000000000E+00 0. -1.
         21   -1    0    0  501  502  0.00000000000E+00 -0.00000000000E+00 -0.24247238202E+03  0.24247238202E+03  0.00000000000E+00 0.  1.
         23    2    1    2    0    0 -0.10939381347E+03 -0.13824037099E+02 -0.20256823633E+02  0.15246090162E+03  0.10332413655E+03 0.  0.
         23    2    1    2    0    0  0.10422091217E+03 -0.68232944845E+01 -0.55136107363E+02  0.14828047097E+03  0.89657971505E+02 0.  0.
        -11    1    4    4    0    0  0.67326003647E+02  0.39685638321E+02 -0.28129306583E+02  0.83060210359E+02  0.00000000000E+00 0.  1.
         11    1    4    4    0    0  0.36894908522E+02 -0.46508932805E+02 -0.27006800780E+02  0.65220260609E+02  0.00000000000E+00 0. -1.
        -13    1    3    3    0    0 -0.42460018893E+02  0.42482767692E+02 -0.24551907776E+02  0.64887864279E+02  0.00000000000E+00 0.  1.
         13    1    3    3    0    0 -0.66933794574E+02 -0.56306804791E+02  0.42950841430E+01  0.87573037344E+02  0.00000000000E+00 0. -1.
          1    1    1    2  501    0  0.51729012987E+01  0.20647331583E+02 -0.52323301670E+02  0.56487158779E+02  0.00000000000E+00 0. -1.
<scales pt_clust_5="13000.00000" pt_clust_6="13000.00000" pt_clust_7="13000.00000" pt_clust_8="13000.00000" pt_clust_9="21.28547"></scales>
<clustering>
<clus scale="   21.285">  2  9  1 -1</clus>
<clus scale="   89.658">  5  6 -1 -1</clus>
<clus scale="  103.324">  7  8 -1 -1</clus>
<clus scale="  139.680">  2  5  1 -1</clus>
<clus scale="   21.285">  2  5  1 -1</clus>
</clustering>
</event>
<event>
 9    1  0.1445593E-005  0.1154924E+03  0.7546771E-02  0.1253409E+00
         21   -1    0    0  501  502  0.00000000000E+00  0.00000000000E+00  0.20585512677E+03  0.20585512677E+03  0.00000000000E+00 0.  1.
          4   -1    0    0  502    0 -0.00000000000E+00 -0.00000000000E+00 -0.26836473848E+03  0.26836473848E+03  0.00000000000E+00 0.  1.
         23    2    1    2    0    0  0.58459519324E+02 -0.24528468615E+02 -0.20570366879E+03  0.23587979085E+03  0.96468208265E+02 0.  0.
         23    2    1    2    0    0 -0.72260163889E+02 -0.11927963203E+02  0.30890757146E+02  0.11946383460E+03  0.89182741096E+02 0.  0.
        -11    1    4    4    0    0  0.11043917450E+02  0.22492257110E+02  0.37867584292E+01  0.25341848432E+02  0.00000000000E+00 0.  1.
         11    1    4    4    0    0 -0.83304081339E+02 -0.34420220313E+02  0.27103998717E+02  0.94121986170E+02  0.00000000000E+00 0. -1.
        -13    1    3    3    0    0  0.44106084359E+02  0.26978726194E+02 -0.52809623257E+02  0.73905714617E+02  0.00000000000E+00 0. -1.
         13    1    3    3    0    0  0.14353434965E+02 -0.51507194808E+02 -0.15289404553E+03  0.16197407623E+03  0.00000000000E+00 0.  1.
          4    1    1    2  501    0  0.13800644564E+02  0.36456431817E+02  0.11230329993E+03  0.11887623979E+03  0.00000000000E+00 0.  1.
<scales pt_clust_5="13000.00000" pt_clust_6="13000.00000" pt_clust_7="13000.00000" pt_clust_8="13000.00000" pt_clust_9="38.98114"></scales>
<clustering>
<clus scale="   38.981">  1  9  2 -1</clus>
<clus scale="   89.183">  5  6 -1 -1</clus>
<clus scale="   96.468">  7  8 -1 -1</clus>
<clus scale="  109.480">  1  5  2 -1</clus>
<clus scale="   38.981">  1  5  2 -1</clus>
</clustering>
</event>
<event>
 9    1  0.1445593E-005  0.1058376E+03  0.7546771E-02  0.1269023E+00
         21   -1    0    0  501  502  0.00000000000E+00  0.00000000000E+00  0.17271695249E+03  0.17271695249E+03  0.00000000000E+00 0.  1.
          1   -1    0    0  502    0 -0.00000000000E+00 -0.00000000000E+00 -0.16220628761E+03  0.16220628761E+03  0.00000000000E+00 0. -1.
         23    2    1    2    0    0 -0.67408241292E+02  0.43085171635E+01 -0.68745833521E+02  0.13182838171E+03  0.89946085424E+02 0.  0.
         23    2    1    2    0    0  0.35674153733E+02 -0.32733252637E+01 -0.18992508579E+02  0.99842781867E+02  0.91238729748E+02 0.  0.
        -11    1    4    4    0    0 -0.19464113875E+02 -0.23526351932E+02 -0.26747661578E+02  0.40592836364E+02  0.00000000000E+00 0. -1.
         11    1    4    4    0    0  0.55138267608E+02  0.20253026668E+02  0.77551529988E+01  0.59249945503E+02  0.00000000000E+00 0.  1.
        -13    1    3    3    0    0 -0.27588865780E+02 -0.23201521526E+02 -0.74819408967E+02  0.83050587442E+02  0.00000000000E+00 0.  1.
         13    1    3    3    0    0 -0.39819375511E+02  0.27510038689E+02  0.60735754460E+01  0.48777794266E+02  0.00000000000E+00 0. -1.
          1    1    1    2  501    0  0.31734087559E+02 -0.10351918998E+01  0.98249006976E+02  0.10325207653E+03  0.00000000000E+00 0. -1.
<scales pt_clust_5="13000.00000" pt_clust_6="13000.00000" pt_clust_7="13000.00000" pt_clust_8="13000.00000" pt_clust_9="31.75097"></scales>
<clustering>
<clus scale="   31.751">  1  9  2 -1</clus>
<clus scale="   89.946">  7  8 -1 -1</clus>
<clus scale="   91.239">  5  6 -1 -1</clus>
<clus scale="  104.725">  2  7  1 -1</clus>
<clus scale="   31.751">  1  5  2 -1</clus>
</clustering>
</event>
<event>
 9    1  0.1445593E-005  0.1269811E+03  0.7546771E-02  0.1248622E+00
         21   -1    0    0  501  502  0.00000000000E+00  0.00000000000E+00  0.72772306879E+02  0.72772306879E+02  0.00000000000E+00 0. -1.
         -3   -1    0    0    0  501 -0.00000000000E+00 -0.00000000000E+00 -0.32410401926E+03  0.32410401926E+03  0.00000000000E+00 0.  1.
         23    2    1    2    0    0 -0.15942068508E+02  0.41284188529E+00 -0.14669023789E+03  0.17302872991E+03  0.90369217633E+02 0.  0.
         23    2    1    2    0    0 -0.39901365825E+02 -0.24276524551E+02 -0.86598951190E+02  0.16049542850E+03  0.12679879961E+03 0.  0.
        -13    1    4    4    0    0 -0.78824729103E+02 -0.12729625883E+01 -0.22367153421E+02  0.81946616184E+02  0.00000000000E+00 0. -1.
         13    1    4    4    0    0  0.38923363278E+02 -0.23003561962E+02 -0.64231797769E+02  0.78548812317E+02  0.00000000000E+00 0.  1.
        -13    1    3    3    0    0 -0.31188048816E+02  0.16542290468E+02 -0.13175823263E+02  0.37682145394E+02  0.00000000000E+00 0. -1.
         13    1    3    3    0    0  0.15245980307E+02 -0.16129448583E+02 -0.13351441463E+03  0.13534658452E+03  0.00000000000E+00 0.  1.
         -3    1    1    2    0  502  0.55843434334E+02  0.23863682665E+02 -0.18042523301E+02  0.63352167726E+02  0.00000000000E+00 0.  1.
<scales pt_clust_5="13000.00000" pt_clust_6="13000.00000" pt_clust_7="13000.00000" pt_clust_8="13000.00000" pt_clust_9="60.72861"></scales>
<clustering>
<clus scale="   60.729">  1  9  2 -1</clus>
<clus scale="   90.369">  7  8 -1 -1</clus>
<clus scale="   90.625">  2  7  1 -1</clus>
<clus scale="  126.799">  5  6 -1 -1</clus>
<clus scale="   60.729">  1  5  2 -1</clus>
</clustering>
</event>
<event>
 9    1  0.1445593E-005  0.1429042E+03  0.7546771E-02  0.1210333E+00
         21   -1    0    0  501  502  0.00000000000E+00  0.00000000000E+00  0.49424919872E+03  0.49424919872E+03  0.00000000000E+00 0. -1.
          2   -1    0    0  502    0 -0.00000000000E+00 -0.00000000000E+00 -0.13855398638E+03  0.13855398638E+03  0.00000000000E+00 0. -1.
         23    2    1    2    0    0  0.11230380421E+03 -0.71600430841E+02 -0.57276787454E+02  0.17126695915E+03  0.91175516340E+02 0.  0.
         23    2    1    2    0    0 -0.36706451548E+02  0.39897958545E+02  0.12269404390E+03  0.15990516297E+03  0.87043793883E+02 0.  0.
        -11    1    3    3    0    0  0.85098188898E+02 -0.15493749548E+02  0.14962080074E+00  0.86497285594E+02  0.00000000000E+00 0.  1.
         11    1    3    3    0    0  0.27205615311E+02 -0.56106681293E+02 -0.57426408255E+02  0.84769673559E+02  0.00000000000E+00 0. -1.
        -13    1    4    4    0    0 -0.57568671554E+02  0.48190400012E+02  0.11249678217E+03  0.13524789313E+03  0.00000000000E+00 0.  1.
         13    1    4    4    0    0  0.20862220006E+02 -0.82924414675E+01  0.10197261737E+02  0.24657269841E+02  0.00000000000E+00 0. -1.
          2    1    1    2  501    0 -0.75597352661E+02  0.31702472297E+02  0.29027795589E+03  0.30163106298E+03  0.00000000000E+00 0. -1.
<scales pt_clust_5="13000.00000" pt_clust_6="13000.00000" pt_clust_7="13000.00000" pt_clust_8="13000.00000" pt_clust_9="81.97565"></scales>
<clustering>
<clus scale="   81.976">  1  9  2 -1</clus>
<clus scale="   87.044">  7  8 -1 -1</clus>
<clus scale="   91.176">  5  6 -1 -1</clus>
<clus scale="  140.304">  1  7  2 -1</clus>
<clus scale="   81.976">  1  5  2 -1</clus>
</clustering>
</event>
<event>
 9    1  0.1445593E-005  0.1250385E+03  0.7546771E-02  0.1235688E+00
         -4   -1    0    0    0  501 -0.00000000000E+00  0.00000000000E+00  0.11892047448E+03  0.11892047448E+03  0.00000000000E+00 0.  1.
         21   -1    0    0  501  502  0.00000000000E+00 -0.00000000000E+00 -0.82802774074E+03  0.82802774074E+03  0.00000000000E+00 0.  1.
         23    2    1    2    0    0  0.15363191278E+02 -0.81069384481E+02  0.60282037486E+02  0.13659898000E+03  0.90648135934E+02 0.  0.
         23    2    1    2    0    0 -0.85455076169E+02  0.74154117791E+02 -0.28065955884E+03  0.31657048233E+03  0.92982143926E+02 0.  0.
        -13    1    3    3    0    0 -0.19356199989E+02 -0.43105093766E+02  0.69790033309E+02  0.84281435298E+02  0.00000000000E+00 0. -1.
         13    1    3    3    0    0  0.34719391267E+02 -0.37964290715E+02 -0.95079958239E+01  0.52317544705E+02  0.00000000000E+00 0.  1.
        -13    1    4    4    0    0 -0.29540143568E+02 -0.15452737252E+02 -0.11806660929E+03  0.12268305262E+03  0.00000000000E+00 0. -1.
         13    1    4    4    0    0 -0.55914932602E+02  0.89606855042E+02 -0.16259294955E+03  0.19388742971E+03  0.00000000000E+00 0.  1.
         -4    1    1    2    0  502  0.70091884892E+02  0.69152666899E+01 -0.48872974491E+03  0.49377875288E+03  0.00000000000E+00 0.  1.
<scales pt_clust_5="13000.00000" pt_clust_6="13000.00000" pt_clust_7="13000.00000" pt_clust_8="13000.00000" pt_clust_9="70.43219"></scales>
<clustering>
<clus scale="   70.432">  2  9  1 -1</clus>
<clus scale="   90.648">  5  6 -1 -1</clus>
<clus scale="   92.982">  7  8 -1 -1</clus>
<clus scale="  123.313">  1  5  2 -1</clus>
<clus scale="   70.432">  2  5  1 -1</clus>
</clustering>
</event>
<event>
 9    1  0.1445593E-005  0.1002044E+03  0.7546771E-02  0.1284473E+00
          1   -1    0    0  502    0 -0.00000000000E+00  0.00000000000E+00  0.52691937030E+03  0.52691937030E+03  0.00000000000E+00 0. -1.
         21   -1    0    0  501  502  0.00000000000E+00 -0.00000000000E+00 -0.46813558152E+02  0.46813558152E+02  0.00000000000E+00 0.  1.
         23    2    1    2    0    0 -0.99806732465E+01 -0.16490829412E+01  0.34613083847E+03  0.36014915757E+03  0.98987499471E+02 0.  0.
         23    2    1    2    0    0  0.14622914108E+02 -0.37833715986E+02  0.14183037603E+03  0.17306033127E+03  0.90492005247E+02 0.  0.
        -13    1    3    3    0    0 -0.32037254482E+02  0.37775515623E+02  0.12509607407E+03  0.13454517087E+03  0.00000000000E+00 0.  1.
         13    1    3    3    0    0  0.22056581236E+02 -0.39424598564E+02  0.22103476439E+03  0.22560398671E+03  0.00000000000E+00 0. -1.
        -13    1    4    4    0    0 -0.28879728266E+02 -0.37669859477E+02  0.39094255742E+02  0.61493234179E+02  0.00000000000E+00 0.  1.
         13    1    4    4    0    0  0.43502642374E+02 -0.16385650872E+00  0.10273612029E+03  0.11156709709E+03  0.00000000000E+00 0. -1.
          1    1    1    2  501    0 -0.46422408617E+01  0.39482798927E+02 -0.78554023470E+01  0.40523439604E+02  0.00000000000E+00 0. -1.
<scales pt_clust_5="13000.00000" pt_clust_6="13000.00000" pt_clust_7="13000.00000" pt_clust_8="13000.00000" pt_clust_9="39.75477"></scales>
<clustering>
<clus scale="   39.755">  2  9  1 -1</clus>
<clus scale="   90.492">  7  8 -1 -1</clus>
<clus scale="   91.822">  2  7  1 -1</clus>
<clus scale="   98.987">  5  6 -1 -1</clus>
<clus scale="   39.755">  2  5  1 -1</clus>
</clustering>
</event>
<event>
 9    1  0.1445593E-005  0.1251967E+03  0.7546771E-02  0.1249049E+00
          4   -1    0    0  502    0 -0.00000000000E+00  0.00000000000E+00  0.12008871571E+03  0.12008871571E+03  0.00000000000E+00 0. -1.
         21   -1    0    0  501  502  0.00000000000E+00 -0.00000000000E+00 -0.21021601683E+03  0.21021601683E+03  0.00000000000E+00 0.  1.
         23    2    1    2    0    0  0.21568340118E+02  0.14642579302E+02  0.42017241832E+02  0.10437647231E+03  0.91920623023E+02 0.  0.
         23    2    1    2    0    0  0.42107308640E+00  0.33595117070E+02 -0.10783772613E+03  0.16760818659E+03  0.12383343589E+03 0.  0.
        -11    1    4    4    0    0 -0.28729854392E+01  0.65392054799E+02 -0.11725101004E+03  0.13428393140E+03  0.00000000000E+00 0.  1.
         11    1    4    4    0    0  0.32940585256E+01 -0.31796937729E+02  0.94132839098E+01  0.33324255197E+02  0.00000000000E+00 0. -1.
        -11    1    3    3    0    0  0.48103212772E+02  0.29747761945E+02  0.46876481135E+02  0.73459192095E+02  0.00000000000E+00 0. -1.
         11    1    3    3    0    0 -0.26534872653E+02 -0.15105182643E+02 -0.48592393026E+01  0.30917280217E+02  0.00000000000E+00 0.  1.
          4    1    1    2  501    0 -0.21989413205E+02 -0.48237696372E+02 -0.24306816829E+02  0.58320073635E+02  0.00000000000E+00 0. -1.
<scales pt_clust_5="13000.00000" pt_clust_6="13000.00000" pt_clust_7="13000.00000" pt_clust_8="13000.00000" pt_clust_9="53.01330"></scales>
<clustering>
<clus scale="   53.013">  2  9  1 -1</clus>
<clus scale="   91.921">  7  8 -1 -1</clus>
<clus scale="   93.749">  1  7  2 -1</clus>
<clus scale="  123.833">  5  6 -1 -1</clus>
<clus scale="   53.013">  2  5  1 -1</clus>
</clustering>
</event>
<event>
 9    1  0.1445593E-005  0.1348596E+03  0.7546771E-02  0.1226152E+00
         21   -1    0    0  501  502  0.00000000000E+00  0.00000000000E+00  0.86847359819E+02  0.86847359819E+02  0.00000000000E+00 0. -1.
         -1   -1    0    0    0  501 -0.00000000000E+00 -0.00000000000E+00 -0.67973963084E+03  0.67973963084E+03  0.00000000000E+00 0.  1.
         23    2    1    2    0    0  0.73610179502E+02  0.21613301394E+02 -0.45958204844E+03  0.47465822176E+03  0.90549295476E+02 0.  0.
         23    2    1    2    0    0 -0.10471905518E+03  0.66425363912E+02 -0.75197589366E+02  0.18194855762E+03  0.10987352131E+03 0.  0.
        -11    1    4    4    0    0 -0.10445239953E+02  0.56905621275E+02 -0.64415960260E+02  0.86583882488E+02  0.00000000000E+00 0.  1.
         11    1    4    4    0    0 -0.94273815225E+02  0.95197426369E+01 -0.10781629105E+02  0.95364675132E+02  0.00000000000E+00 0. -1.
        -13    1    3    3    0    0  0.33144457461E+01 -0.25420091084E+02 -0.47402021654E+02  0.53889871388E+02  0.00000000000E+00 0. -1.
         13    1    3    3    0    0  0.70295733756E+02  0.47033392478E+02 -0.41218002679E+03  0.42076835037E+03  0.00000000000E+00 0.  1.
         -1    1    1    2    0  502  0.31108875676E+02 -0.88038665305E+02 -0.58112633220E+02  0.10998021129E+03  0.00000000000E+00 0.  1.
<scales pt_clust_5="13000.00000" pt_clust_6="13000.00000" pt_clust_7="13000.00000" pt_clust_8="13000.00000" pt_clust_9="93.37328"></scales>
<clustering>
<clus scale="   90.549">  7  8 -1 -1</clus>
<clus scale="   93.373">  1  9  2 -1</clus>
<clus scale="  109.874">  5  6 -1 -1</clus>
<clus scale="  119.642">  2  7  1 -1</clus>
<clus scale="   93.373">  1  5  2 -1</clus>
</clustering>
</event>
<event>
 9    1  0.1445593E-005  0.1020868E+03  0.7546771E-02  0.1278251E+00
         -4   -1    0    0    0  501 -0.00000000000E+00  0.00000000000E+00  0.78355927723E+02  0.78355927723E+02  0.00000000000E+00 0.  1.
         21   -1    0    0  501  502  0.00000000000E+00 -0.00000000000E+00 -0.23866706216E+03  0.23866706216E+03  0.00000000000E+00 0. -1.
         23    2    1    2    0    0 -0.35507515460E+02 -0.90779171154E+01  0.81066523796E+01  0.10166364907E+03  0.94480619685E+02 0.  0.
         23    2    1    2    0    0  0.46203139406E+02 -0.11302657287E+02 -0.97490855894E+02  0.14079129327E+03  0.89750995119E+02 0.  0.
        -11    1    4    4    0    0  0.35983583343E+02  0.19947724363E+02 -0.35882741090E+01  0.41298979268E+02  0.00000000000E+00 0.  1.
         11    1    4    4    0    0  0.10219556063E+02 -0.31250381650E+02 -0.93902581786E+02  0.99492314002E+02  0.00000000000E+00 0. -1.
        -13    1    3    3    0    0  0.11818979431E+02  0.34080613465E+02  0.10498661141E+02  0.37568582282E+02  0.00000000000E+00 0.  1.
         13    1    3    3    0    0 -0.47326494891E+02 -0.43158530580E+02 -0.23920087619E+01  0.64095066787E+02  0.00000000000E+00 0. -1.
         -4    1    1    2    0  502 -0.10695623946E+02  0.20380574402E+02 -0.70926930920E+02  0.74568047542E+02  0.00000000000E+00 0.  1.
<scales pt_clust_5="13000.00000" pt_clust_6="13000.00000" pt_clust_7="13000.00000" pt_clust_8="13000.00000" pt_clust_9="23.01661"></scales>
<clustering>
<clus scale="   23.017">  2  9  1 -1</clus>
<clus scale="   89.751">  5  6 -1 -1</clus>
<clus scale="   94.481">  7  8 -1 -1</clus>
<clus scale="   97.726">  2  5  1 -1</clus>
<clus scale="   23.017">  2  5  1 -1</clus>
</clustering>
</event>
<event>
 9    1  0.1445593E-005  0.9844726E+02  0.7546771E-02  0.1284609E+00
         -1   -1    0    0    0  501 -0.00000000000E+00  0.00000000000E+00  0.24468463311E+03  0.24468463311E+03  0.00000000000E+00 0.  1.
         21   -1    0    0  501  502  0.00000000000E+00 -0.00000000000E+00 -0.27909121165E+03  0.27909121165E+03  0.00000000000E+00 0. -1.
         23    2    1    2    0    0 -0.34516041646E+02  0.10437037362E+02  0.21464022549E+03  0.23553451563E+03  0.90032176316E+02 0.  0.
         23    2    1    2    0    0  0.12090298171E+01 -0.32307109143E+02 -0.21396723605E+03  0.23515429526E+03  0.92034522987E+02 0.  0.
        -11    1    4    4    0    0 -0.33104159090E+02 -0.18350531400E+02 -0.18299707438E+03  0.18687042726E+03  0.00000000000E+00 0. -1.
         11    1    4    4    0    0  0.34313188907E+02 -0.13956577743E+02 -0.30970161670E+02  0.48283868001E+02  0.00000000000E+00 0.  1.
        -13    1    3    3    0    0 -0.57768847655E+02 -0.14476523454E+02  0.10492586535E+03  0.12064927149E+03  0.00000000000E+00 0.  1.
         13    1    3    3    0    0  0.23252806009E+02  0.24913560816E+02  0.10971436014E+03  0.11488524414E+03  0.00000000000E+00 0. -1.
         -1    1    1    2    0  502  0.33307011829E+02  0.21870071781E+02 -0.35079567979E+02  0.53087033881E+02  0.00000000000E+00 0.  1.
<scales pt_clust_5="13000.00000" pt_clust_6="13000.00000" pt_clust_7="13000.00000" pt_clust_8="13000.00000" pt_clust_9="39.84541"></scales>
<clustering>
<clus scale="   39.845">  2  9  1 -1</clus>
<clus scale="   90.032">  7  8 -1 -1</clus>
<clus scale="   92.035">  5  6 -1 -1</clus>
<clus scale="   96.578">  1  7  2 -1</clus>
<clus scale="   39.845">  2  5  1 -1</clus>
</clustering>
</event>
<event>
 9    1  0.1445593E-005  0.1096864E+03  0.7546771E-02  0.1261663E+00
         21   -1    0    0  501  502  0.00000000000E+00  0.00000000000E+00  0.17713325754E+03  0.17713325754E+03  0.00000000000E+00 0.  1.
          1   -1    0    0  502    0 -0.00000000000E+00 -0.00000000000E+00 -0.10981450061E+03  0.10981450061E+03  0.00000000000E+00 0. -1.
         23    2    1    2    0    0  0.11034698646E+02  0.58181592021E+02 -0.33576403770E+02  0.11527696844E+03  0.93029792744E+02 0.  0.
         23    2    1    2    0    0  0.11223939850E+02 -0.56784037348E+02  0.10259405757E+03  0.14930370681E+03  0.91736865520E+02 0.  0.
        -11    1    4    4    0    0 -0.18607403308E+02 -0.64798588437E+02  0.96662025868E+02  0.11785007325E+03  0.00000000000E+00 0.  1.
         11    1    4    4    0    0  0.29831343158E+02  0.80145510890E+01  0.59320317033E+01  0.31453633557E+02  0.00000000000E+00 0. -1.
        -13    1    3    3    0    0 -0.38469299496E+02  0.22881739763E+02  0.20507241936E+01  0.44806991509E+02  0.00000000000E+00 0.  1.
         13    1    3    3    0    0  0.49503998143E+02  0.35299852258E+02 -0.35627127964E+02  0.70469976930E+02  0.00000000000E+00 0. -1.
          1    1    1    2  501    0 -0.22258638497E+02 -0.13975546736E+01 -0.16988968694E+01  0.22367082898E+02  0.00000000000E+00 0. -1.
<scales pt_clust_5="13000.00000" pt_clust_6="13000.00000" pt_clust_7="13000.00000" pt_clust_8="13000.00000" pt_clust_9="22.30248"></scales>
<clustering>
<clus scale="   22.302">  1  9  2 -1</clus>
<clus scale="   91.737">  5  6 -1 -1</clus>
<clus scale="   93.030">  7  8 -1 -1</clus>
<clus scale="  108.592">  1  5  2 -1</clus>
<clus scale="   22.302">  1  5  2 -1</clus>
</clustering>
</event>
<event>
 9    1  0.1445593E-005  0.1332463E+03  0.7546771E-02  0.1222760E+00
         21   -1    0    0  501  502  0.00000000000E+00  0.00000000000E+00  0.77032658323E+02  0.77032658323E+02  0.00000000000E+00 0. -1.
          1   -1    0    0  502    0 -0.00000000000E+00 -0.00000000000E+00 -0.61776821783E+03  0.61776821783E+03  0.00000000000E+00 0. -1.
         23    2    1    2    0    0 -0.69328748975E+02  0.59806961401E+02 -0.41560216953E+03  0.43521643515E+03  0.91130862170E+02 0.  0.
         23    2    1    2    0    0  0.60254992427E+02 -0.10435080320E+03 -0.14559035296E+03  0.20973492510E+03  0.90952920196E+02 0.  0.
        -13    1    4    4    0    0  0.50035924288E+02 -0.89343229517E+01 -0.28245979269E+02  0.58148526987E+02  0.00000000000E+00 0.  1.
         13    1    4    4    0    0  0.10219068139E+02 -0.95416480252E+02 -0.11734437369E+03  0.15158639812E+03  0.00000000000E+00 0. -1.
        -13    1    3    3    0    0 -0.16292925757E+02  0.59692741971E+02 -0.12126484388E+03  0.13613906579E+03  0.00000000000E+00 0.  1.
         13    1    3    3    0    0 -0.53035823218E+02  0.11421942989E+00 -0.29433732565E+03  0.29907736936E+03  0.00000000000E+00 0. -1.
          1    1    1    2  501    0  0.90737565479E+01  0.44543841803E+02  0.20456962986E+02  0.49849515896E+02  0.00000000000E+00 0. -1.
<scales pt_clust_5="13000.00000" pt_clust_6="13000.00000" pt_clust_7="13000.00000" pt_clust_8="13000.00000" pt_clust_9="45.45863"></scales>
<clustering>
<clus scale="   45.459">  1  9  2 -1</clus>
<clus scale="   90.953">  5  6 -1 -1</clus>
<clus scale="   91.131">  7  8 -1 -1</clus>
<clus scale="  133.125">  1  5  2 -1</clus>
<clus scale="   45.459">  1  5  2 -1</clus>
</clustering>
</event>
<event>
 9    1  0.1445593E-005  0.9928638E+02  0.7546771E-02  0.1282456E+00
         21   -1    0    0  501  502  0.00000000000E+00  0.00000000000E+00  0.23095861862E+03  0.23095861862E+03  0.00000000000E+00 0.  1.
          3   -1    0    0  502    0 -0.00000000000E+00 -0.00000000000E+00 -0.11104322182E+03  0.11104322182E+03  0.00000000000E+00 0. -1.
         23    2    1    2    0    0  0.55373930172E+02 -0.47646931640E+02  0.27219338923E+01  0.11781608532E+03  0.92394365624E+02 0.  0.
         23    2    1    2    0    0 -0.12369306566E+02 -0.27688238489E+02  0.28534884588E+02  0.10014895002E+03  0.91082019388E+02 0.  0.
        -13    1    4    4    0    0  0.39319787393E+02 -0.13707888542E+02  0.18956668985E+02  0.45752674106E+02  0.00000000000E+00 0.  1.
         13    1    4    4    0    0 -0.51689093959E+02 -0.13980349947E+02  0.95782156034E+01  0.54396275912E+02  0.00000000000E+00 0. -1.
        -13    1    3    3    0    0  0.38086000765E+02 -0.29267099708E+02 -0.43727585238E+02  0.64955433108E+02  0.00000000000E+00 0. -1.
         13    1    3    3    0    0  0.17287929407E+02 -0.18379831932E+02  0.46449519130E+02  0.52860652214E+02  0.00000000000E+00 0.  1.
          3    1    1    2  501    0 -0.43004623606E+02  0.75335170129E+02  0.88658578317E+02  0.12403680510E+03  0.00000000000E+00 0. -1.
<scales pt_clust_5="13000.00000" pt_clust_6="13000.00000" pt_clust_7="13000.00000" pt_clust_8="13000.00000" pt_clust_9="86.74552"></scales>
<clustering>
<clus scale="   86.746">  1  9  2 -1</clus>
<clus scale="   91.082">  5  6 -1 -1</clus>
<clus scale="   92.394">  7  8 -1 -1</clus>
<clus scale="   98.066">  1  5  2 -1</clus>
<clus scale="   86.746">  1  5  2 -1</clus>
</clustering>
</event>
<event>
 9    1  0.1445593E-005  0.1012050E+03  0.7546771E-02  0.1277913E+00
         -1   -1    0    0    0  501 -0.00000000000E+00  0.00000000000E+00  0.14653643696E+03  0.14653643696E+03  0.00000000000E+00 0.  1.
         21   -1    0    0  501  502  0.00000000000E+00 -0.00000000000E+00 -0.13880978354E+03  0.13880978354E+03  0.00000000000E+00 0.  1.
         23    2    1    2    0    0 -0.45190286038E+02 -0.18313252162E+02  0.80535671797E+02  0.13146484925E+03  0.91757697221E+02 0.  0.
         23    2    1    2    0    0  0.22355944386E+02 -0.50323064054E+01 -0.75933570484E+02  0.12107611117E+03  0.91478987813E+02 0.  0.
        -11    1    3    3    0    0 -0.25135332779E+01 -0.48568241853E+02  0.54456003796E+02  0.73011288960E+02  0.00000000000E+00 0. -1.
         11    1    3    3    0    0 -0.42676752761E+02  0.30254989691E+02  0.26079668002E+02  0.58453560289E+02  0.00000000000E+00 0.  1.
        -13    1    4    4    0    0 -0.61969039462E+01  0.31023593736E+02  0.76395365512E+00  0.31645672879E+02  0.00000000000E+00 0. -1.
         13    1    4    4    0    0  0.28552848333E+02 -0.36055900141E+02 -0.76697524139E+02  0.89430438286E+02  0.00000000000E+00 0.  1.
         -1    1    1    2    0  502  0.22834341652E+02  0.23345558568E+02  0.31245521052E+01  0.32805260087E+02  0.00000000000E+00 0.  1.
<scales pt_clust_5="13000.00000" pt_clust_6="13000.00000" pt_clust_7="13000.00000" pt_clust_8="13000.00000" pt_clust_9="32.65614"></scales>
<clustering>
<clus scale="   32.656">  2  9  1 -1</clus>
<clus scale="   91.479">  7  8 -1 -1</clus>
<clus scale="   91.758">  5  6 -1 -1</clus>
<clus scale="  100.952">  2  7  1 -1</clus>
<clus scale="   32.656">  2  5  1 -1</clus>
</clustering>
</event>
<event>
 9    1  0.1445593E-005  0.1788663E+03  0.7546771E-02  0.1168910E+00
         -3   -1    0    0    0  501 -0.00000000000E+00  0.00000000000E+00  0.41608886652E+03  0.41608886652E+03  0.00000000000E+00 0.  1.
         21   -1    0    0  501  502  0.00000000000E+00 -0.00000000000E+00 -0.19719389524E+03  0.19719389524E+03  0.00000000000E+00 0. -1.
         23    2    1    2    0    0 -0.64983805657E+02  0.14465030903E+03  0.20603506517E+03  0.27542217501E+03  0.90886299886E+02 0.  0.
         23    2    1    2    0    0  0.42599606232E+02 -0.14288973080E+03  0.13057493970E+03  0.21802327557E+03  0.90841247186E+02 0.  0.
        -11    1    3    3    0    0 -0.31509216162E+02  0.11237055506E+03  0.81109986534E+02  0.14212249035E+03  0.00000000000E+00 0.  1.
         11    1    3    3    0    0 -0.33474589495E+02  0.32279753970E+02  0.12492507863E+03  0.13329968466E+03  0.00000000000E+00 0. -1.
        -11    1    4    4    0    0  0.37002589415E+02 -0.49721248184E+02  0.58685205273E+01  0.62256193889E+02  0.00000000000E+00 0. -1.
         11    1    4    4    0    0  0.55970168166E+01 -0.93168482619E+02  0.12470641917E+03  0.15576708168E+03  0.00000000000E+00 0.  1.
         -3    1    1    2    0  502  0.22384199425E+02 -0.17605782288E+01 -0.11771503359E+03  0.11983731119E+03  0.00000000000E+00 0.  1.
<scales pt_clust_5="13000.00000" pt_clust_6="13000.00000" pt_clust_7="13000.00000" pt_clust_8="13000.00000" pt_clust_9="22.45333"></scales>
<clustering>
<clus scale="   22.453">  2  9  1 -1</clus>
<clus scale="   90.841">  7  8 -1 -1</clus>
<clus scale="   90.886">  5  6 -1 -1</clus>
<clus scale="  178.843">  2  7  1 -1</clus>
<clus scale="   22.453">  2  5  1 -1</clus>
</clustering>
</event>
<event>
 9    1  0.1445593E-005  0.1005834E+03  0.7546771E-02  0.1281160E+00
         -1   -1    0    0    0  501 -0.00000000000E+00  0.00000000000E+00  0.16536523376E+03  0.16536523376E+03  0.00000000000E+00 0.  1.
         21   -1    0    0  501  502  0.00000000000E+00 -0.00000000000E+00 -0.29426553291E+03  0.29426553291E+03  0.00000000000E+00 0.  1.
         23    2    1    2    0    0  0.31559528598E+02 -0.25285372438E+02  0.11954179698E+03  0.15525189236E+03  0.90429834407E+02 0.  0.
         23    2    1    2    0    0 -0.14665711347E+02 -0.35168772525E+02 -0.98324070404E+02  0.14166585593E+03  0.94602675782E+02 0.  0.
        -13    1    4    4    0    0  0.31176767976E+02  0.47316982522E+01 -0.65259447875E+02  0.72478792531E+02  0.00000000000E+00 0.  1.
         13    1    4    4    0    0 -0.45842479323E+02 -0.39900470778E+02 -0.33064622529E+02  0.69187063399E+02  0.00000000000E+00 0. -1.
        -13    1    3    3    0    0 -0.22867053755E+02 -0.35531945421E+02  0.64958566642E+02  0.77492171688E+02  0.00000000000E+00 0. -1.
         13    1    3    3    0    0  0.54426582352E+02  0.10246572983E+02  0.54583230335E+02  0.77759720667E+02  0.00000000000E+00 0.  1.
         -1    1    1    2    0  502 -0.16893817251E+02  0.60454144963E+02 -0.15011802572E+03  0.16271301838E+03  0.00000000000E+00 0.  1.
<scales pt_clust_5="13000.00000" pt_clust_6="13000.00000" pt_clust_7="13000.00000" pt_clust_8="13000.00000" pt_clust_9="62.77025"></scales>
<clustering>
<clus scale="   62.770">  2  9  1 -1</clus>
<clus scale="   90.430">  7  8 -1 -1</clus>
<clus scale="   94.603">  5  6 -1 -1</clus>
<clus scale="   96.669">  1  7  2 -1</clus>
<clus scale="   62.770">  2  5  1 -1</clus>
</clustering>
</event>
<event>
 9    1  0.1445593E-005  0.1759546E+03  0.7546771E-02  0.1171820E+00
          1   -1    0    0  502    0 -0.00000000000E+00  0.00000000000E+00  0.12538635613E+03  0.12538635613E+03  0.00000000000E+00 0. -1.
         21   -1    0    0  501  502  0.00000000000E+00 -0.00000000000E+00 -0.56156316055E+03  0.56156316055E+03  0.00000000000E+00 0.  1.
         23    2    1    2    0    0  0.27449566789E+02  0.14176979112E+03  0.14224535516E+02  0.17093660652E+03  0.90359469062E+02 0.  0.
         23    2    1    2    0    0 -0.31612970218E+02 -0.17495941613E+03 -0.28814844796E+03  0.35034792866E+03  0.90022029977E+02 0.  0.
        -11    1    3    3    0    0  0.55039545368E+01  0.21244677341E+02 -0.33009731709E+02  0.39639276209E+02  0.00000000000E+00 0.  1.
         11    1    3    3    0    0  0.21945612252E+02  0.12052511377E+03  0.47234267224E+02  0.13129733031E+03  0.00000000000E+00 0. -1.
        -11    1    4    4    0    0 -0.29610970921E+02 -0.10431331125E+03 -0.93198513957E+02  0.14298265456E+03  0.00000000000E+00 0. -1.
         11    1    4    4    0    0 -0.20019992964E+01 -0.70646104880E+02 -0.19494993400E+03  0.20736527410E+03  0.00000000000E+00 0.  1.
          1    1    1    2  501    0  0.41634034290E+01  0.33189625013E+02 -0.16225289198E+03  0.16566498149E+03  0.00000000000E+00 0. -1.
<scales pt_clust_5="13000.00000" pt_clust_6="13000.00000" pt_clust_7="13000.00000" pt_clust_8="13000.00000" pt_clust_9="33.44974"></scales>
<clustering>
<clus scale="   33.450">  2  9  1 -1</clus>
<clus scale="   90.022">  7  8 -1 -1</clus>
<clus scale="   90.359">  5  6 -1 -1</clus>
<clus scale="  175.782">  2  7  1 -1</clus>
<clus scale="   33.450">  2  5  1 -1</clus>
</clustering>
</event>
<event>
 9    1  0.1445593E-005  0.1070660E+03  0.7546771E-02  0.1272055E+00
         21   -1    0    0  501  502  0.00000000000E+00  0.00000000000E+00  0.66319779185E+02  0.66319779185E+02  0.00000000000E+00 0. -1.
          1   -1    0    0  502    0 -0.00000000000E+00 -0.00000000000E+00 -0.41285821474E+03  0.41285821474E+03  0.00000000000E+00 0. -1.
         23    2    1    2    0    0 -0.47699135897E+02 -0.61739096211E+02 -0.22068238947E+03  0.24691750734E+03  0.78616886502E+02 0.  0.
         23    2    1    2    0    0 -0.12633121688E+01  0.31926335394E+02 -0.14226665282E+03  0.17263305966E+03  0.92420159785E+02 0.  0.
        -11    1    3    3    0    0 -0.69282447256E+02 -0.51428843308E+02 -0.16195709152E+03  0.18350771895E+03  0.00000000000E+00 0. -1.
         11    1    3    3    0    0  0.21583311359E+02 -0.10310252903E+02 -0.58725297953E+02  0.63409788391E+02  0.00000000000E+00 0.  1.
        -13    1    4    4    0    0  0.34134306762E+02  0.10651759791E+02 -0.14899575546E+02  0.38737684962E+02  0.00000000000E+00 0.  1.
         13    1    4    4    0    0 -0.35397618931E+02  0.21274575602E+02 -0.12736707727E+03  0.13389537470E+03  0.00000000000E+00 0. -1.
          1    1    1    2  501    0  0.48962448066E+02  0.29812760817E+02  0.16410606733E+02  0.59627426923E+02  0.00000000000E+00 0. -1.
<scales pt_clust_5="13000.00000" pt_clust_6="13000.00000" pt_clust_7="13000.00000" pt_clust_8="13000.00000" pt_clust_9="57.32471"></scales>
<clustering>
<clus scale="   57.325">  1  9  2 -1</clus>
<clus scale="   78.617">  5  6 -1 -1</clus>
<clus scale="   92.420">  7  8 -1 -1</clus>
<clus scale="   95.406">  2  5  1 -1</clus>
<clus scale="   57.325">  1  5  2 -1</clus>
</clustering>
</event>
<event>
 9    1  0.1445593E-005  0.9355590E+02  0.7546771E-02  0.1294526E+00
         21   -1    0    0  501  502  0.00000000000E+00  0.00000000000E+00  0.44096267650E+02  0.44096267650E+02  0.00000000000E+00 0. -1.
          2   -1    0    0  502    0 -0.00000000000E+00 -0.00000000000E+00 -0.43623567307E+03  0.43623567307E+03  0.00000000000E+00 0. -1.
         23    2    1    2    0    0  0.22440166014E+02 -0.18425032292E+02 -0.22248926297E+03  0.24217455180E+03  0.91126277951E+02 0.  0.
         23    2    1    2    0    0  0.45298803239E+01  0.19242980219E+02 -0.18499538193E+03  0.20711662841E+03  0.91012055929E+02 0.  0.
        -11    1    4    4    0    0  0.54866587380E+01 -0.20772282867E+02 -0.41337139541E+01  0.21878728269E+02  0.00000000000E+00 0.  1.
         11    1    4    4    0    0 -0.95677841404E+00  0.40015263086E+02 -0.18086166798E+03  0.18523790014E+03  0.00000000000E+00 0. -1.
        -13    1    3    3    0    0  0.43306908680E+02 -0.43655877939E+02 -0.16392447394E+03  0.17507871708E+03  0.00000000000E+00 0.  1.
         13    1    3    3    0    0 -0.20866742666E+02  0.25230845648E+02 -0.58564789037E+02  0.67095834718E+02  0.00000000000E+00 0. -1.
          2    1    1    2  501    0 -0.26970046338E+02 -0.81794792736E+00  0.15345239487E+02  0.31040760513E+02  0.00000000000E+00 0. -1.
<scales pt_clust_5="13000.00000" pt_clust_6="13000.00000" pt_clust_7="13000.00000" pt_clust_8="13000.00000" pt_clust_9="26.98245"></scales>
<clustering>
<clus scale="   26.982">  1  9  2 -1</clus>
<clus scale="   91.012">  5  6 -1 -1</clus>
<clus scale="   91.126">  7  8 -1 -1</clus>
<clus scale="   93.445">  1  5  2 -1</clus>
<clus scale="   26.982">  1  5  2 -1</clus>
</clustering>
</event>
<event>
 9    1  0.1445593E-005  0.2079073E+03  0.7546771E-02  0.1143748E+00
         21   -1    0    0  501  502  0.00000000000E+00  0.00000000000E+00  0.69773328840E+03  0.69773328840E+03  0.00000000000E+00 0. -1.
          1   -1    0    0  502    0 -0.00000000000E+00 -0.00000000000E+00 -0.14412522610E+03  0.14412522610E+03  0.00000000000E+00 0. -1.
         23    2    1    2    0    0  0.11109315562E+03  0.15476685568E+03 -0.30810724571E+02  0.21658785456E+03  0.98318508683E+02 0.  0.
         23    2    1    2    0    0 -0.10031145597E+03 -0.10771403883E+03  0.45383766943E+03  0.48605269827E+03  0.92811060471E+02 0.  0.
        -13    1    4    4    0    0  0.15255756419E+02 -0.16445785304E+02  0.10564025719E+03  0.10799567536E+03  0.00000000000E+00 0.  1.
         13    1    4    4    0    0 -0.11556721239E+03 -0.91268253521E+02  0.34819741224E+03  0.37805702291E+03  0.00000000000E+00 0. -1.
        -13    1    3    3    0    0  0.10147336734E+03  0.92532963817E+02 -0.56604421913E+02  0.14853704673E+03  0.00000000000E+00 0. -1.
         13    1    3    3    0    0  0.96197882843E+01  0.62233891861E+02  0.25793697342E+02  0.68050807823E+02  0.00000000000E+00 0.  1.
          1    1    1    2  501    0 -0.10781699655E+02 -0.47052816853E+02  0.13058111744E+03  0.13921796167E+03  0.00000000000E+00 0. -1.
<scales pt_clust_5="13000.00000" pt_clust_6="13000.00000" pt_clust_7="13000.00000" pt_clust_8="13000.00000" pt_clust_9="48.27228"></scales>
<clustering>
<clus scale="   48.272">  1  9  2 -1</clus>
<clus scale="   92.811">  5  6 -1 -1</clus>
<clus scale="   98.319">  7  8 -1 -1</clus>
<clus scale="  205.360">  1  5  2 -1</clus>
<clus scale="   48.272">  1  5  2 -1</clus>
</clustering>
</event>
<event>
 9    1  0.1445593E-005  0.2124780E+03  0.7546771E-02  0.1139852E+00
         21   -1    0    0  501  502  0.00000000000E+00  0.00000000000E+00  0.25379700000E+03  0.25379700000E+03  0.00000000000E+00 0. -1.
          2   -1    0    0  502    0 -0.00000000000E+00 -0.00000000000E+00 -0.32430953619E+03  0.32430953619E+03  0.00000000000E+00 0. -1.
         23    2    1    2    0    0  0.64504701130E+02 -0.16965586246E+03 -0.10251777982E+03  0.22688129290E+03  0.89561474729E+02 0.  0.
         23    2    1    2    0    0 -0.68214391867E+02  0.19217077690E+03 -0.79391008874E+02  0.23751592859E+03  0.92347567883E+02 0.  0.
        -11    1    4    4    0    0 -0.17228697508E+02  0.12169374482E+02 -0.41617468660E+02  0.46657640218E+02  0.00000000000E+00 0.  1.
         11    1    4    4    0    0 -0.50985694359E+02  0.18000140241E+03 -0.37773540214E+02  0.19085828837E+03  0.00000000000E+00 0. -1.
        -11    1    3    3    0    0  0.36456180558E+02 -0.14325097541E+03 -0.11401560166E+03  0.18668008056E+03  0.00000000000E+00 0.  1.
         11    1    3    3    0    0  0.28048520573E+02 -0.26404887057E+02  0.11497821845E+02  0.40201212345E+02  0.00000000000E+00 0. -1.
          2    1    1    2  501    0  0.37096907368E+01 -0.22514914434E+02  0.11139625250E+03  0.11370931470E+03  0.00000000000E+00 0. -1.
<scales pt_clust_5="13000.00000" pt_clust_6="13000.00000" pt_clust_7="13000.00000" pt_clust_8="13000.00000" pt_clust_9="22.81848"></scales>
<clustering>
<clus scale="   22.818">  1  9  2 -1</clus>
<clus scale="   89.561">  7  8 -1 -1</clus>
<clus scale="   92.348">  5  6 -1 -1</clus>
<clus scale="  211.282">  2  7  1 -1</clus>
<clus scale="   22.818">  1  5  2 -1</clus>
</clustering>
</event>
<event>
 9    1  0.1445593E-005  0.1141214E+03  0.7546771E-02  0.1254016E+00
          3   -1    0    0  502    0 -0.00000000000E+00  0.00000000000E+00  0.76415159109E+02  0.76415159109E+02  0.00000000000E+00 0. -1.
         21   -1    0    0  501  502  0.00000000000E+00 -0.00000000000E+00 -0.29556532370E+03  0.29556532370E+03  0.00000000000E+00 0.  1.
         23    2    1    2    0    0  0.26242122564E+01 -0.73952131473E+02 -0.10644604791E+02  0.11734152390E+03  0.90442917805E+02 0.  0.
         23    2    1    2    0    0  0.83994137119E+01  0.50417414088E+02 -0.11013050609E+03  0.15288899850E+03  0.92918521807E+02 0.  0.
        -11    1    3    3    0    0 -0.25655350603E+02  0.10244751212E+02  0.16551130526E+01  0.27674741935E+02  0.00000000000E+00 0. -1.
         11    1    3    3    0    0  0.28279562859E+02 -0.84196882685E+02 -0.12299717843E+02  0.89666781967E+02  0.00000000000E+00 0.  1.
        -13    1    4    4    0    0 -0.27547620059E+02 -0.10908262247E+02 -0.12585835218E+02  0.32191067151E+02  0.00000000000E+00 0.  1.
         13    1    4    4    0    0  0.35947033771E+02  0.61325676335E+02 -0.97544670874E+02  0.12069793134E+03  0.00000000000E+00 0. -1.
          3    1    1    2  501    0 -0.11023625968E+02  0.23534717384E+02 -0.98375053710E+02  0.10174996041E+03  0.00000000000E+00 0. -1.
<scales pt_clust_5="13000.00000" pt_clust_6="13000.00000" pt_clust_7="13000.00000" pt_clust_8="13000.00000" pt_clust_9="25.98852"></scales>
<clustering>
<clus scale="   25.989">  2  9  1 -1</clus>
<clus scale="   90.443">  5  6 -1 -1</clus>
<clus scale="   92.919">  7  8 -1 -1</clus>
<clus scale="  112.115">  1  5  2 -1</clus>
<clus scale="   25.989">  2  5  1 -1</clus>
</clustering>
</event>
<event>
 9    1  0.1445593E-005  0.1025027E+03  0.7546771E-02  0.1277851E+00
         -3   -1    0    0    0  501 -0.00000000000E+00  0.00000000000E+00  0.11010464646E+03  0.11010464646E+03  0.00000000000E+00 0.  1.
         21   -1    0    0  501  502  0.00000000000E+00 -0.00000000000E+00 -0.12819822473E+03  0.12819822473E+03  0.00000000000E+00 0. -1.
         23    2    1    2    0    0  0.14567571826E+02 -0.15198029436E+02 -0.78112132473E+01  0.98713117096E+02  0.96125283806E+02 0.  0.
         23    2    1    2    0    0 -0.48262271454E+02  0.17176708505E+02  0.91153074763E+00  0.10402922462E+03  0.90537078179E+02 0.  0.
        -11    1    3    3    0    0  0.38828447501E+02 -0.36147261000E+02 -0.28834707387E+02  0.60379741332E+02  0.00000000000E+00 0.  1.
         11    1    3    3    0    0 -0.24260875675E+02  0.20949231564E+02  0.21023494139E+02  0.38333375765E+02  0.00000000000E+00 0. -1.
        -13    1    4    4    0    0 -0.21170778228E+02  0.51115618563E+02  0.16748307223E+02  0.57805831078E+02  0.00000000000E+00 0.  1.
         13    1    4    4    0    0 -0.27091493226E+02 -0.33938910058E+02 -0.15836776475E+02  0.46223393539E+02  0.00000000000E+00 0. -1.
         -3    1    1    2    0  502  0.33694699628E+02 -0.19786790687E+01 -0.11193895774E+02  0.35560529474E+02  0.00000000000E+00 0.  1.
<scales pt_clust_5="13000.00000" pt_clust_6="13000.00000" pt_clust_7="13000.00000" pt_clust_8="13000.00000" pt_clust_9="33.75275"></scales>
<clustering>
<clus scale="   33.753">  2  9  1 -1</clus>
<clus scale="   90.537">  7  8 -1 -1</clus>
<clus scale="   96.125">  5  6 -1 -1</clus>
<clus scale="   97.281">  2  7  1 -1</clus>
<clus scale="   33.753">  2  5  1 -1</clus>
</clustering>
</event>
<event>
 9    1  0.1445593E-005  0.1409425E+03  0.7546771E-02  0.1217518E+00
         21   -1    0    0  501  502  0.00000000000E+00  0.00000000000E+00  0.28929550348E+03  0.28929550348E+03  0.00000000000E+00 0.  1.
          2   -1    0    0  502    0 -0.00000000000E+00 -0.00000000000E+00 -0.16844135097E+03  0.16844135097E+03  0.00000000000E+00 0. -1.
         23    2    1    2    0    0 -0.94467567359E+02  0.21751992229E+01 -0.85099575294E+02  0.16884262406E+03  0.11107223419E+03 0.  0.
         23    2    1    2    0    0  0.56896103201E+02 -0.62905189942E+02  0.92719429664E+02  0.15502207881E+03  0.90778426961E+02 0.  0.
        -11    1    4    4    0    0  0.72659127110E+02 -0.48883248662E+02  0.36319018387E+02  0.94805020166E+02  0.00000000000E+00 0.  1.
         11    1    4    4    0    0 -0.15763023909E+02 -0.14021941280E+02  0.56400411278E+02  0.60217058649E+02  0.00000000000E+00 0. -1.
        -13    1    3    3    0    0 -0.15497030639E+02 -0.13121196821E+02 -0.86035069437E+02  0.88398851450E+02  0.00000000000E+00 0. -1.
         13    1    3    3    0    0 -0.78970536720E+02  0.15296396044E+02  0.93549414363E+00  0.80443772606E+02  0.00000000000E+00 0.  1.
          2    1    1    2  501    0  0.37571464158E+02  0.60729990720E+02  0.11323429814E+03  0.13387215157E+03  0.00000000000E+00 0. -1.
<scales pt_clust_5="13000.00000" pt_clust_6="13000.00000" pt_clust_7="13000.00000" pt_clust_8="13000.00000" pt_clust_9="71.41251"></scales>
<clustering>
<clus scale="   71.413">  1  9  2 -1</clus>
<clus scale="   90.778">  5  6 -1 -1</clus>
<clus scale="  111.072">  7  8 -1 -1</clus>
<clus scale="  125.573">  1  5  2 -1</clus>
<clus scale="   71.413">  1  5  2 -1</clus>
</clustering>
</event>
<event>
 9    1  0.1445593E-005  0.1280554E+03  0.7546771E-02  0.1230495E+00
         -1   -1    0    0    0  501 -0.00000000000E+00  0.00000000000E+00  0.45854635741E+02  0.45854635741E+02  0.00000000000E+00 0.  1.
         21   -1    0    0  501  502  0.00000000000E+00 -0.00000000000E+00 -0.44758620532E+03  0.44758620532E+03  0.00000000000E+00 0. -1.
         23    2    1    2    0    0 -0.44023370330E+02  0.80775225407E+02 -0.15432696569E+03  0.20164838172E+03  0.91556339683E+02 0.  0.
         23    2    1    2    0    0  0.22730432472E+02 -0.84121887384E+02 -0.17379895765E+03  0.21509578075E+03  0.92016045981E+02 0.  0.
        -11    1    4    4    0    0 -0.20087592833E+02 -0.14340177619E+02 -0.10588359871E+03  0.10872207023E+03  0.00000000000E+00 0.  1.
         11    1    4    4    0    0  0.42818025305E+02 -0.69781709765E+02 -0.67915358938E+02  0.10637371051E+03  0.00000000000E+00 0. -1.
        -13    1    3    3    0    0 -0.51732469105E+02  0.41840528631E+02 -0.14690502145E+03  0.16126984691E+03  0.00000000000E+00 0. -1.
         13    1    3    3    0    0  0.77090987750E+01  0.38934696776E+02 -0.74219442416E+01  0.40378534808E+02  0.00000000000E+00 0.  1.
         -1    1    1    2    0  502  0.21292937859E+02  0.33466619775E+01 -0.73605646240E+02  0.76696678595E+02  0.00000000000E+00 0.  1.
<scales pt_clust_5="13000.00000" pt_clust_6="13000.00000" pt_clust_7="13000.00000" pt_clust_8="13000.00000" pt_clust_9="21.55433"></scales>
<clustering>
<clus scale="   21.554">  2  9  1 -1</clus>
<clus scale="   91.556">  7  8 -1 -1</clus>
<clus scale="   92.016">  5  6 -1 -1</clus>
<clus scale="  127.725">  1  7  2 -1</clus>
<clus scale="   21.554">  2  5  1 -1</clus>
</clustering>
</event>
<event>
 9    1  0.1445593E-005  0.9383443E+02  0.7546771E-02  0.1294848E+00
         21   -1    0    0  501  502  0.00000000000E+00  0.00000000000E+00  0.36920295399E+02  0.36920295399E+02  0.00000000000E+00 0.  1.
          2   -1    0    0  502    0 -0.00000000000E+00 -0.00000000000E+00 -0.40693017769E+03  0.40693017769E+03  0.00000000000E+00 0. -1.
         23    2    1    2    0    0 -0.65980971369E+01  0.10363654898E+02 -0.22620015951E+03  0.24384769750E+03  0.90245482917E+02 0.  0.
         23    2    1    2    0    0 -0.18361438993E+02 -0.32817139693E+02 -0.13007360370E+03  0.16372856449E+03  0.92053209342E+02 0.  0.
        -11    1    4    4    0    0 -0.17856287696E+02 -0.64453199464E+02 -0.77501881786E+02  0.10236993510E+03  0.00000000000E+00 0.  1.
         11    1    4    4    0    0 -0.50515129655E+00  0.31636059771E+02 -0.52571721918E+02  0.61358629393E+02  0.00000000000E+00 0. -1.
        -13    1    3    3    0    0 -0.36399378126E+02  0.32020545540E+01 -0.20063588200E+03  0.20393608074E+03  0.00000000000E+00 0. -1.
         13    1    3    3    0    0  0.29801280989E+02  0.71616003437E+01 -0.25564277506E+02  0.39911616761E+02  0.00000000000E+00 0.  1.
          2    1    1    2  501    0  0.24959536129E+02  0.22453484796E+02 -0.13736119079E+02  0.36274211096E+02  0.00000000000E+00 0. -1.
<scales pt_clust_5="13000.00000" pt_clust_6="13000.00000" pt_clust_7="13000.00000" pt_clust_8="13000.00000" pt_clust_9="33.57287"></scales>
<clustering>
<clus scale="   33.573">  1  9  2 -1</clus>
<clus scale="   90.245">  7  8 -1 -1</clus>
<clus scale="   92.053">  5  6 -1 -1</clus>
<clus scale="   92.062">  2  7  1 -1</clus>
<clus scale="   33.573">  1  5  2 -1</clus>
</clustering>
</event>
<event>
 9    1  0.1445593E-005  0.1004098E+03  0.7546771E-02  0.1279774E+00
         -1   -1    0    0    0  501 -0.00000000000E+00  0.00000000000E+00  0.10251709889E+03  0.10251709889E+03  0.00000000000E+00 0.  1.
         21   -1    0    0  501  502  0.00000000000E+00 -0.00000000000E+00 -0.29717305234E+03  0.29717305234E+03  0.00000000000E+00 0.  1.
         23    2    1    2    0    0 -0.52016253583E+02  0.15535202056E+02  0.38796346701E+02  0.11262127770E+03  0.90726856740E+02 0.  0.
         23    2    1    2    0    0  0.16521859111E+02 -0.49050752269E+01 -0.59629260990E+02  0.10934070869E+03  0.90015055513E+02 0.  0.
        -11    1    3    3    0    0  0.71368128366E+00  0.45126048621E+02  0.13817343014E+02  0.47199455220E+02  0.00000000000E+00 0.  1.
         11    1    3    3    0    0 -0.52729934866E+02 -0.29590846565E+02  0.24979003688E+02  0.65421822480E+02  0.00000000000E+00 0. -1.
        -11    1    4    4    0    0  0.26655228123E+02  0.36264086869E+02 -0.14183654709E+02  0.47188571112E+02  0.00000000000E+00 0.  1.
         11    1    4    4    0    0 -0.10133369011E+02 -0.41169162096E+02 -0.45445606281E+02  0.62152137577E+02  0.00000000000E+00 0. -1.
         -1    1    1    2    0  502  0.35494394471E+02 -0.10630126829E+02 -0.17382303916E+03  0.17772816484E+03  0.00000000000E+00 0.  1.
<scales pt_clust_5="13000.00000" pt_clust_6="13000.00000" pt_clust_7="13000.00000" pt_clust_8="13000.00000" pt_clust_9="37.05201"></scales>
<clustering>
<clus scale="   37.052">  2  9  1 -1</clus>
<clus scale="   90.015">  7  8 -1 -1</clus>
<clus scale="   90.727">  5  6 -1 -1</clus>
<clus scale="   99.767">  2  7  1 -1</clus>
<clus scale="   37.052">  2  5  1 -1</clus>
</clustering>
</event>
<event>
 9    1  0.1445593E-005  0.1187511E+03  0.7546771E-02  0.1246302E+00
          4   -1    0    0  502    0 -0.00000000000E+00  0.00000000000E+00  0.10572262171E+03  0.10572262171E+03  0.00000000000E+00 0. -1.
         21   -1    0    0  501  502  0.00000000000E+00 -0.00000000000E+00 -0.16613546568E+03  0.16613546568E+03  0.00000000000E+00 0. -1.
         23    2    1    2    0    0 -0.58705809726E+02 -0.48694849401E+02 -0.11947385248E+02  0.11819406151E+03  0.89496009457E+02 0.  0.
         23    2    1    2    0    0  0.48334709657E+02  0.66341000843E+02 -0.56624356874E+02  0.13162964374E+03  0.85922481162E+02 0.  0.
        -11    1    4    4    0    0  0.20043990233E+02 -0.18963695817E+02 -0.51838798630E+01  0.28075895604E+02  0.00000000000E+00 0.  1.
         11    1    4    4    0    0  0.28290719424E+02  0.85304696660E+02 -0.51440477011E+02  0.10355374814E+03  0.00000000000E+00 0. -1.
        -13    1    3    3    0    0 -0.46999378616E+02  0.17084175626E+02  0.15483995240E+01  0.50032071595E+02  0.00000000000E+00 0. -1.
         13    1    3    3    0    0 -0.11706431111E+02 -0.65779025026E+02 -0.13495784772E+02  0.68161989917E+02  0.00000000000E+00 0.  1.
          4    1    1    2  501    0  0.10371100069E+02 -0.17646151442E+02  0.81588981561E+01  0.22034382145E+02  0.00000000000E+00 0. -1.
<scales pt_clust_5="13000.00000" pt_clust_6="13000.00000" pt_clust_7="13000.00000" pt_clust_8="13000.00000" pt_clust_9="20.46819"></scales>
<clustering>
<clus scale="   20.468">  2  9  1 -1</clus>
<clus scale="   85.922">  5  6 -1 -1</clus>
<clus scale="   89.496">  7  8 -1 -1</clus>
<clus scale="  116.082">  2  5  1 -1</clus>
<clus scale="   20.468">  2  5  1 -1</clus>
</clustering>
</event>
<event>
 9    1  0.1445593E-005  0.1124442E+03  0.7546771E-02  0.1258247E+00
         -3   -1    0    0    0  501 -0.00000000000E+00  0.00000000000E+00  0.44190010275E+03  0.44190010275E+03  0.00000000000E+00 0.  1.
         21   -1    0    0  501  502  0.00000000000E+00 -0.00000000000E+00 -0.72820486794E+02  0.72820486794E+02  0.00000000000E+00 0.  1.
         23    2    1    2    0    0  0.35433636655E+02  0.63877999583E+02  0.28224907901E+03  0.30532929868E+03  0.90694523526E+02 0.  0.
         23    2    1    2    0    0 -0.46963328952E+02 -0.21790238926E+00  0.96339973129E+02  0.14400038051E+03  0.96172331873E+02 0.  0.
        -13    1    4    4    0    0  0.97299138144E+01 -0.21436824132E+02 -0.67160436481E+01  0.24480888341E+02  0.00000000000E+00 0.  1.
         13    1    4    4    0    0 -0.56693242766E+02  0.21218921742E+02  0.10305601678E+03  0.11951949217E+03  0.00000000000E+00 0. -1.
        -13    1    3    3    0    0 -0.18890696567E+02  0.44497834003E+02  0.19378260207E+03  0.19972133715E+03  0.00000000000E+00 0.  1.
         13    1    3    3    0    0  0.54324333222E+02  0.19380165580E+02  0.88466476937E+02  0.10560796154E+03  0.00000000000E+00 0. -1.
         -3    1    1    2    0  502  0.11529692297E+02 -0.63660097194E+02 -0.95094361818E+01  0.65390910345E+02  0.00000000000E+00 0.  1.
<scales pt_clust_5="13000.00000" pt_clust_6="13000.00000" pt_clust_7="13000.00000" pt_clust_8="13000.00000" pt_clust_9="64.69576"></scales>
<clustering>
<clus scale="   64.696">  2  9  1 -1</clus>
<clus scale="   90.695">  7  8 -1 -1</clus>
<clus scale="   96.172">  5  6 -1 -1</clus>
<clus scale="  107.796">  1  7  2 -1</clus>
<clus scale="   64.696">  2  5  1 -1</clus>
</clustering>
</event>
<event>
 9    1  0.1445593E-005  0.1050646E+03  0.7546771E-02  0.1273169E+00
          1   -1    0    0  502    0 -0.00000000000E+00  0.00000000000E+00  0.42974355959E+02  0.42974355959E+02  0.00000000000E+00 0. -1.
         21   -1    0    0  501  502  0.00000000000E+00 -0.00000000000E+00 -0.50290484945E+03  0.50290484945E+03  0.00000000000E+00 0. -1.
         23    2    1    2    0    0  0.28277896109E+02 -0.34891271566E+02 -0.63323441932E+02  0.11996695472E+03  0.91461312517E+02 0.  0.
         23    2    1    2    0    0 -0.43575507953E+02  0.65239177856E+02 -0.34848310055E+03  0.36699767690E+03  0.84213112147E+02 0.  0.
        -11    1    3    3    0    0  0.57172727128E+02 -0.93902426480E+01 -0.18426860338E+02  0.60798409241E+02  0.00000000000E+00 0. -1.
         11    1    3    3    0    0 -0.28894831020E+02 -0.25501028918E+02 -0.44896581594E+02  0.59168545481E+02  0.00000000000E+00 0.  1.
        -13    1    4    4    0    0 -0.76933158817E+01  0.67485046639E+02 -0.14200575612E+03  0.15741363791E+03  0.00000000000E+00 0.  1.
         13    1    4    4    0    0 -0.35882192071E+02 -0.22458687832E+01 -0.20647734443E+03  0.20958403898E+03  0.00000000000E+00 0. -1.
          1    1    1    2  501    0  0.15297611844E+02 -0.30347906290E+02 -0.48123951010E+02  0.58914573793E+02  0.00000000000E+00 0. -1.
<scales pt_clust_5="13000.00000" pt_clust_6="13000.00000" pt_clust_7="13000.00000" pt_clust_8="13000.00000" pt_clust_9="33.98549"></scales>
<clustering>
<clus scale="   33.985">  2  9  1 -1</clus>
<clus scale="   84.213">  7  8 -1 -1</clus>
<clus scale="   91.461">  5  6 -1 -1</clus>
<clus scale="   98.819">  2  7  1 -1</clus>
<clus scale="   33.985">  2  5  1 -1</clus>
</clustering>
</event>
<event>
 9    1  0.1445593E-005  0.1374690E+03  0.7546771E-02  0.1229454E+00
         -1   -1    0    0    0  501 -0.00000000000E+00  0.00000000000E+00  0.73878456075E+02  0.73878456075E+02  0.00000000000E+00 0.  1.
         21   -1    0    0  501  502  0.00000000000E+00 -0.00000000000E+00 -0.44481686112E+03  0.44481686112E+03  0.00000000000E+00 0.  1.
         23    2    1    2    0    0 -0.17079885916E+02 -0.44962400846E+02 -0.64902593082E+02  0.12385212559E+03  0.93881107966E+02 0.  0.
         23    2    1    2    0    0 -0.23180012129E+02 -0.76684387836E+02 -0.15285117150E+03  0.19513256429E+03  0.91079244161E+02 0.  0.
        -11    1    3    3    0    0 -0.23322809869E+02 -0.71547100473E+02 -0.33894255910E+02  0.82533397058E+02  0.00000000000E+00 0.  1.
         11    1    3    3    0    0  0.62429239525E+01  0.26584699627E+02 -0.31008337172E+02  0.41318728537E+02  0.00000000000E+00 0. -1.
        -13    1    4    4    0    0 -0.78414253702E+01 -0.93051213900E+02 -0.95576663859E+02  0.13362228495E+03  0.00000000000E+00 0.  1.
         13    1    4    4    0    0 -0.15338586759E+02  0.16366826064E+02 -0.57274507640E+02  0.61510279341E+02  0.00000000000E+00 0. -1.
         -1    1    1    2    0  502  0.40259898045E+02  0.12164678868E+03 -0.15318464046E+03  0.19971062731E+03  0.00000000000E+00 0.  1.
<scales pt_clust_5="13000.00000" pt_clust_6="13000.00000" pt_clust_7="13000.00000" pt_clust_8="13000.00000" pt_clust_9="102.96747"></scales>
<clustering>
<clus scale="   91.079">  7  8 -1 -1</clus>
<clus scale="   93.881">  5  6 -1 -1</clus>
<clus scale="  105.485">  1  5  2 -1</clus>
<clus scale="  102.967">  2  9  1 -1</clus>
<clus scale="  102.967">  2  5  1 -1</clus>
</clustering>
</event>
<event>
 9    1  0.1445593E-005  0.1092817E+03  0.7546771E-02  0.1262327E+00
         21   -1    0    0  501  502  0.00000000000E+00  0.00000000000E+00  0.42667344067E+03  0.42667344067E+03  0.00000000000E+00 0. -1.
          2   -1    0    0  502    0 -0.00000000000E+00 -0.00000000000E+00 -0.11875061508E+03  0.11875061508E+03  0.00000000000E+00 0. -1.
         23    2    1    2    0    0  0.49708641124E+02  0.33272240923E+02 -0.55887508300E+02  0.12198624423E+03  0.90439146281E+02 0.  0.
         23    2    1    2    0    0 -0.77200687098E+02  0.13340272106E+02  0.34614874067E+03  0.36651267789E+03  0.91513296535E+02 0.  0.
        -11    1    3    3    0    0  0.42800668590E+02  0.56374179102E+02 -0.65107125423E+02  0.96171113553E+02  0.00000000000E+00 0. -1.
         11    1    3    3    0    0  0.69079725333E+01 -0.23101938179E+02  0.92196171234E+01  0.25815130681E+02  0.00000000000E+00 0.  1.
        -13    1    4    4    0    0 -0.20971305622E+02  0.38358193700E+02  0.62549323810E+02  0.76312283366E+02  0.00000000000E+00 0.  1.
         13    1    4    4    0    0 -0.56229381476E+02 -0.25017921595E+02  0.28359941686E+03  0.29020039453E+03  0.00000000000E+00 0. -1.
          2    1    1    2  501    0  0.27492045974E+02 -0.46612513028E+02  0.17661593223E+02  0.56925133622E+02  0.00000000000E+00 0. -1.
<scales pt_clust_5="13000.00000" pt_clust_6="13000.00000" pt_clust_7="13000.00000" pt_clust_8="13000.00000" pt_clust_9="54.11600"></scales>
<clustering>
<clus scale="   54.116">  1  9  2 -1</clus>
<clus scale="   90.439">  5  6 -1 -1</clus>
<clus scale="   91.513">  7  8 -1 -1</clus>
<clus scale="  108.384">  2  5  1 -1</clus>
<clus scale="   54.116">  1  5  2 -1</clus>
</clustering>
</event>
<event>
 9    1  0.1706449E-005  0.1183190E+03  0.7546771E-02  0.1246744E+00
          2   -1    0    0  502    0 -0.00000000000E+00  0.00000000000E+00  0.37208315667E+03  0.37208315667E+03  0.00000000000E+00 0.  1.
         21   -1    0    0  501  502  0.00000000000E+00 -0.00000000000E+00 -0.16488967601E+03  0.16488967601E+03  0.00000000000E+00 0. -1.
         23    2    1    2    0    0 -0.29410097063E+02 -0.65673347070E+02  0.32434827900E+03  0.34468688964E+03  0.91811238280E+02 0.  0.
         23    2    1    2    0    0 -0.34209679945E+01  0.71945660764E+02 -0.96761395942E+02  0.15313097383E+03  0.94331576239E+02 0.  0.
        -11    1    4    4    0    0 -0.75288668342E+01  0.24456965320E+02  0.16363321675E+02  0.30374089035E+02  0.00000000000E+00 0.  1.
         11    1    4    4    0    0  0.41078988397E+01  0.47488695443E+02 -0.11312471762E+03  0.12275688479E+03  0.00000000000E+00 0. -1.
        -13    1    3    3    0    0 -0.53651666343E+02 -0.71547894078E+02  0.22183551867E+03  0.23918319295E+03  0.00000000000E+00 0.  1.
         13    1    3    3    0    0  0.24241569280E+02  0.58745470074E+01  0.10251276034E+03  0.10550369669E+03  0.00000000000E+00 0. -1.
          2    1    1    2  501    0  0.32831065058E+02 -0.62723136934E+01 -0.20393402402E+02  0.39154969205E+02  0.00000000000E+00 0.  1.
<scales pt_clust_5="13000.00000" pt_clust_6="13000.00000" pt_clust_7="13000.00000" pt_clust_8="13000.00000" pt_clust_9="33.42485"></scales>
<clustering>
<clus scale="   33.425">  2  9  1 -1</clus>
<clus scale="   91.811">  7  8 -1 -1</clus>
<clus scale="   94.332">  5  6 -1 -1</clus>
<clus scale="  116.320">  1  7  2 -1</clus>
<clus scale="   33.425">  2  5  1 -1</clus>
</clustering>
</event>
<event>
 9    1  0.1445593E-005  0.1296743E+03  0.7546771E-02  0.1228192E+00
         -1   -1    0    0    0  501 -0.00000000000E+00  0.00000000000E+00  0.76333504440E+02  0.76333504440E+02  0.00000000000E+00 0.  1.
         21   -1    0    0  501  502  0.00000000000E+00 -0.00000000000E+00 -0.34281054573E+03  0.34281054573E+03  0.00000000000E+00 0. -1.
         23    2    1    2    0    0 -0.38004725708E+01  0.99131808958E+02 -0.66550524252E+02  0.15024080607E+03  0.91114040575E+02 0.  0.
         23    2    1    2    0    0  0.31288185919E+02 -0.81272059058E+02 -0.90307998607E+02  0.15448836468E+03  0.90149997484E+02 0.  0.
        -11    1    3    3    0    0  0.16896024058E+02  0.15212802158E+02 -0.59293820988E+02  0.63503245475E+02  0.00000000000E+00 0. -1.
         11    1    3    3    0    0 -0.20696496629E+02  0.83919006800E+02 -0.72567032639E+01  0.86737560591E+02  0.00000000000E+00 0.  1.
        -11    1    4    4    0    0  0.25103409308E+02 -0.18867395027E+02  0.12715435671E+02  0.33879817861E+02  0.00000000000E+00 0.  1.
         11    1    4    4    0    0  0.61847766109E+01 -0.62404664032E+02 -0.10302343428E+03  0.12060854682E+03  0.00000000000E+00 0. -1.
         -1    1    1    2    0  502 -0.27487713348E+02 -0.17859749900E+02 -0.10961851843E+03  0.11441487942E+03  0.00000000000E+00 0.  1.
<scales pt_clust_5="13000.00000" pt_clust_6="13000.00000" pt_clust_7="13000.00000" pt_clust_8="13000.00000" pt_clust_9="32.78025"></scales>
<clustering>
<clus scale="   32.780">  2  9  1 -1</clus>
<clus scale="   90.150">  7  8 -1 -1</clus>
<clus scale="   91.114">  5  6 -1 -1</clus>
<clus scale="  128.999">  2  7  1 -1</clus>
<clus scale="   32.780">  2  5  1 -1</clus>
</clustering>
</event>
<event>
 9    1  0.1445593E-005  0.2089187E+03  0.7546771E-02  0.1142707E+00
         -1   -1    0    0    0  501 -0.00000000000E+00  0.00000000000E+00  0.51302811645E+03  0.51302811645E+03  0.00000000000E+00 0.  1.
         21   -1    0    0  501  502  0.00000000000E+00 -0.00000000000E+00 -0.12318843951E+03  0.12318843951E+03  0.00000000000E+00 0. -1.
         23    2    1    2    0    0 -0.18225824661E+03  0.39162208937E+02  0.25019258638E+03  0.32434654020E+03  0.88614901658E+02 0.  0.
         23    2    1    2    0    0  0.18909801079E+03 -0.18382141733E+02  0.17238613619E+03  0.27249440560E+03  0.91870889380E+02 0.  0.
        -11    1    4    4    0    0  0.87920912441E+02  0.28725580578E+02  0.11314321429E+03  0.14613908705E+03  0.00000000000E+00 0.  1.
         11    1    4    4    0    0  0.10117709835E+03 -0.47107722311E+02  0.59242921903E+02  0.12635531855E+03  0.00000000000E+00 0. -1.
        -11    1    3    3    0    0 -0.97936858154E+02  0.59914093378E+02  0.10734779479E+03  0.15717784773E+03  0.00000000000E+00 0.  1.
         11    1    3    3    0    0 -0.84321388456E+02 -0.20751884441E+02  0.14284479159E+03  0.16716869247E+03  0.00000000000E+00 0. -1.
         -1    1    1    2    0  502 -0.68397641786E+01 -0.20780067204E+02 -0.32739045629E+02  0.39375610163E+02  0.00000000000E+00 0.  1.
<scales pt_clust_5="13000.00000" pt_clust_6="13000.00000" pt_clust_7="13000.00000" pt_clust_8="13000.00000" pt_clust_9="21.87678"></scales>
<clustering>
<clus scale="   21.877">  2  9  1 -1</clus>
<clus scale="   88.615">  7  8 -1 -1</clus>
<clus scale="   91.871">  5  6 -1 -1</clus>
<clus scale="  207.507">  1  7  2 -1</clus>
<clus scale="   21.877">  2  5  1 -1</clus>
</clustering>
</event>
<event>
 9    1  0.1445593E-005  0.1140861E+03  0.7546771E-02  0.1254449E+00
         21   -1    0    0  501  502  0.00000000000E+00  0.00000000000E+00  0.83505501990E+02  0.83505501990E+02  0.00000000000E+00 0.  1.
         -1   -1    0    0    0  501 -0.00000000000E+00 -0.00000000000E+00 -0.42162042260E+03  0.42162042260E+03  0.00000000000E+00 0.  1.
         23    2    1    2    0    0  0.37944023168E+02  0.76263448604E+02 -0.26019397553E+03  0.28885807195E+03  0.92098959485E+02 0.  0.
         23    2    1    2    0    0  0.24703789671E+02 -0.35278984885E+02 -0.92788162701E+02  0.13994283132E+03  0.95495910391E+02 0.  0.
        -11    1    3    3    0    0 -0.57812290045E+01  0.23130624094E+02 -0.47532283387E+01  0.24311346310E+02  0.00000000000E+00 0. -1.
         11    1    3    3    0    0  0.43725252172E+02  0.53132824510E+02 -0.25544074720E+03  0.26454672564E+03  0.00000000000E+00 0.  1.
        -13    1    4    4    0    0  0.53382856100E+02 -0.59434505371E+01 -0.81119656266E+02  0.97290557416E+02  0.00000000000E+00 0.  1.
         13    1    4    4    0    0 -0.28679066429E+02 -0.29335534348E+02 -0.11668506436E+02  0.42652273903E+02  0.00000000000E+00 0. -1.
         -1    1    1    2    0  502 -0.62647812839E+02 -0.40984463719E+02  0.14867217626E+02  0.76325021322E+02  0.00000000000E+00 0.  1.
<scales pt_clust_5="13000.00000" pt_clust_6="13000.00000" pt_clust_7="13000.00000" pt_clust_8="13000.00000" pt_clust_9="74.86304"></scales>
<clustering>
<clus scale="   74.863">  1  9  2 -1</clus>
<clus scale="   92.099">  5  6 -1 -1</clus>
<clus scale="   95.496">  7  8 -1 -1</clus>
<clus scale="  111.258">  2  5  1 -1</clus>
<clus scale="   74.863">  1  5  2 -1</clus>
</clustering>
</event>
<event>
 9    1  0.1445593E-005  0.1042014E+03  0.7546771E-02  0.1271771E+00
          1   -1    0    0  502    0 -0.00000000000E+00  0.00000000000E+00  0.41335766907E+03  0.41335766907E+03  0.00000000000E+00 0. -1.
         21   -1    0    0  501  502  0.00000000000E+00 -0.00000000000E+00 -0.83611929069E+02  0.83611929069E+02  0.00000000000E+00 0.  1.
         23    2    1    2    0    0 -0.36792033881E+02  0.49988109610E+02  0.27239853711E+03  0.29413821701E+03  0.91999254492E+02 0.  0.
         23    2    1    2    0    0  0.18431744372E+02 -0.19492825754E+02  0.10583989942E+03  0.14267654604E+03  0.91841238154E+02 0.  0.
        -11    1    3    3    0    0 -0.66202020586E+02  0.20608003626E+02  0.17540338250E+03  0.18861003137E+03  0.00000000000E+00 0.  1.
         11    1    3    3    0    0  0.29409986705E+02  0.29380105984E+02  0.96995154609E+02  0.10552818563E+03  0.00000000000E+00 0. -1.
        -11    1    4    4    0    0 -0.22916796356E+02 -0.26091288780E+02  0.71271693231E+01  0.35450408291E+02  0.00000000000E+00 0.  1.
         11    1    4    4    0    0  0.41348540728E+02  0.65984630257E+01  0.98712730093E+02  0.10722613775E+03  0.00000000000E+00 0. -1.
          1    1    1    2  501    0  0.18360289509E+02 -0.30495283856E+02 -0.48492696523E+02  0.60154835088E+02  0.00000000000E+00 0. -1.
<scales pt_clust_5="13000.00000" pt_clust_6="13000.00000" pt_clust_7="13000.00000" pt_clust_8="13000.00000" pt_clust_9="35.59582"></scales>
<clustering>
<clus scale="   35.596">  2  9  1 -1</clus>
<clus scale="   91.841">  7  8 -1 -1</clus>
<clus scale="   91.999">  5  6 -1 -1</clus>
<clus scale="  104.062">  2  7  1 -1</clus>
<clus scale="   35.596">  2  5  1 -1</clus>
</clustering>
</event>
<event>
 9    1  0.1445593E-005  0.1601726E+03  0.7546771E-02  0.1190348E+00
         21   -1    0    0  501  502  0.00000000000E+00  0.00000000000E+00  0.75489119699E+02  0.75489119699E+02  0.00000000000E+00 0. -1.
         -2   -1    0    0    0  501 -0.00000000000E+00 -0.00000000000E+00 -0.68046226394E+03  0.68046226394E+03  0.00000000000E+00 0.  1.
         23    2    1    2    0    0 -0.28844491160E+02  0.12748506440E+03 -0.46106291585E+03  0.48567892490E+03  0.78870522999E+02 0.  0.
         23    2    1    2    0    0 -0.22352551960E+02 -0.14389127074E+03 -0.88431596194E+02  0.19301846557E+03  0.90728421526E+02 0.  0.
        -11    1    3    3    0    0 -0.38417298826E+02  0.50831862505E+02 -0.11881325606E+03  0.13481972004E+03  0.00000000000E+00 0. -1.
         11    1    3    3    0    0  0.95728076659E+01  0.76653201896E+02 -0.34224965979E+03  0.35085920486E+03  0.00000000000E+00 0.  1.
        -11    1    4    4    0    0 -0.29458262985E+02 -0.37943168041E+02 -0.70529341674E+02  0.85333822696E+02  0.00000000000E+00 0.  1.
         11    1    4    4    0    0  0.71057110246E+01 -0.10594810270E+03 -0.17902254520E+02  0.10768464288E+03  0.00000000000E+00 0. -1.
         -2    1    1    2    0  502  0.51197043120E+02  0.16406206337E+02 -0.55478632189E+02  0.77253993166E+02  0.00000000000E+00 0.  1.
<scales pt_clust_5="13000.00000" pt_clust_6="13000.00000" pt_clust_7="13000.00000" pt_clust_8="13000.00000" pt_clust_9="53.76152"></scales>
<clustering>
<clus scale="   53.762">  1  9  2 -1</clus>
<clus scale="   78.871">  5  6 -1 -1</clus>
<clus scale="   90.728">  7  8 -1 -1</clus>
<clus scale="  153.767">  2  5  1 -1</clus>
<clus scale="   53.762">  1  5  2 -1</clus>
</clustering>
</event>
<event>
 9    1  0.1445593E-005  0.1838772E+03  0.7546771E-02  0.1164348E+00
         21   -1    0    0  501  502  0.00000000000E+00  0.00000000000E+00  0.26408754094E+03  0.26408754094E+03  0.00000000000E+00 0. -1.
          2   -1    0    0  502    0 -0.00000000000E+00 -0.00000000000E+00 -0.94837067050E+03  0.94837067050E+03  0.00000000000E+00 0. -1.
         23    2    1    2    0    0  0.15343631545E+03  0.47736728691E+02 -0.88635768353E+03  0.90523330953E+03  0.89419815349E+02 0.  0.
         23    2    1    2    0    0 -0.11152216079E+03 -0.83231171152E+02  0.18668660344E+03  0.25018596058E+03  0.91523258082E+02 0.  0.
        -11    1    3    3    0    0  0.12226354623E+03  0.63940086846E+02 -0.80311285890E+03  0.81487850234E+03  0.00000000000E+00 0. -1.
         11    1    3    3    0    0  0.31172769213E+02 -0.16203358154E+02 -0.83244824623E+02  0.90354807190E+02  0.00000000000E+00 0.  1.
        -13    1    4    4    0    0 -0.92864912543E+02 -0.15577386208E+02  0.86483746918E+02  0.12785141933E+03  0.00000000000E+00 0.  1.
         13    1    4    4    0    0 -0.18657248248E+02 -0.67653784944E+02  0.10020285652E+03  0.12233454125E+03  0.00000000000E+00 0. -1.
          2    1    1    2  501    0 -0.41914154657E+02  0.35494442460E+02  0.15387950524E+02  0.57038941325E+02  0.00000000000E+00 0. -1.
<scales pt_clust_5="13000.00000" pt_clust_6="13000.00000" pt_clust_7="13000.00000" pt_clust_8="13000.00000" pt_clust_9="54.92405"></scales>
<clustering>
<clus scale="   54.924">  1  9  2 -1</clus>
<clus scale="   89.420">  5  6 -1 -1</clus>
<clus scale="   91.523">  7  8 -1 -1</clus>
<clus scale="  182.839">  2  5  1 -1</clus>
<clus scale="   54.924">  1  5  2 -1</clus>
</clustering>
</event>
<event>
 9    1  0.1445593E-005  0.1088482E+03  0.7546771E-02  0.1269811E+00
         -1   -1    0    0    0  501 -0.00000000000E+00  0.00000000000E+00  0.36278250577E+03  0.36278250577E+03  0.00000000000E+00 0.  1.
         21   -1    0    0  501  502  0.00000000000E+00 -0.00000000000E+00 -0.81298898064E+02  0.81298898064E+02  0.00000000000E+00 0. -1.
         23    2    1    2    0    0  0.10517891902E+02  0.18143043788E+02  0.22067095164E+03  0.23943004649E+03  0.90505702436E+02 0.  0.
         23    2    1    2    0    0 -0.43110549794E+02 -0.29584353221E+02  0.98702928919E+02  0.15337897018E+03  0.10511463673E+03 0.  0.
        -11    1    4    4    0    0 -0.62799502000E+02 -0.53436356478E+02  0.52406409047E+02  0.97701859524E+02  0.00000000000E+00 0. -1.
         11    1    4    4    0    0  0.19688952207E+02  0.23852003257E+02  0.46296519871E+02  0.55677110652E+02  0.00000000000E+00 0.  1.
        -13    1    3    3    0    0 -0.22816927214E+02  0.41319820758E+02  0.15677345086E+03  0.16372493594E+03  0.00000000000E+00 0.  1.
         13    1    3    3    0    0  0.33334819115E+02 -0.23176776970E+02  0.63897500787E+02  0.75705110547E+02  0.00000000000E+00 0. -1.
         -1    1    1    2    0  502  0.32592657892E+02  0.11441309433E+02 -0.37890272852E+02  0.51272387177E+02  0.00000000000E+00 0.  1.
<scales pt_clust_5="13000.00000" pt_clust_6="13000.00000" pt_clust_7="13000.00000" pt_clust_8="13000.00000" pt_clust_9="34.54251"></scales>
<clustering>
<clus scale="   34.543">  2  9  1 -1</clus>
<clus scale="   90.506">  7  8 -1 -1</clus>
<clus scale="   94.816">  1  7  2 -1</clus>
<clus scale="  105.115">  5  6 -1 -1</clus>
<clus scale="   34.543">  2  5  1 -1</clus>
</clustering>
</event>
<event>
 9    1  0.1445593E-005  0.1053951E+03  0.7546771E-02  0.1269377E+00
         -2   -1    0    0    0  501 -0.00000000000E+00  0.00000000000E+00  0.25031485831E+02  0.25031485831E+02  0.00000000000E+00 0.  1.
         21   -1    0    0  501  502  0.00000000000E+00 -0.00000000000E+00 -0.69633606032E+03  0.69633606032E+03  0.00000000000E+00 0. -1.
         23    2    1    2    0    0 -0.19091770123E+02  0.52330012929E+02 -0.15400033371E+03  0.18772254325E+03  0.91764505775E+02 0.  0.
         23    2    1    2    0    0  0.35908169555E+02 -0.30939247275E+02 -0.38675077549E+03  0.40028622575E+03  0.91685694209E+02 0.  0.
        -13    1    3    3    0    0 -0.16034930163E+02 -0.18777137019E+02 -0.85299485794E+02  0.88801475983E+02  0.00000000000E+00 0. -1.
         13    1    3    3    0    0 -0.30568399597E+01  0.71107149947E+02 -0.68700847921E+02  0.98921067267E+02  0.00000000000E+00 0.  1.
        -13    1    4    4    0    0  0.32932733002E+02  0.26304797595E+02 -0.21880893481E+03  0.22283145476E+03  0.00000000000E+00 0.  1.
         13    1    4    4    0    0  0.29754365524E+01 -0.57244044870E+02 -0.16794184068E+03  0.17745477099E+03  0.00000000000E+00 0. -1.
         -2    1    1    2    0  502 -0.16816399432E+02 -0.21390765654E+02 -0.13055346529E+03  0.13335877715E+03  0.00000000000E+00 0.  1.
<scales pt_clust_5="13000.00000" pt_clust_6="13000.00000" pt_clust_7="13000.00000" pt_clust_8="13000.00000" pt_clust_9="27.20949"></scales>
<clustering>
<clus scale="   27.209">  2  9  1 -1</clus>
<clus scale="   91.686">  7  8 -1 -1</clus>
<clus scale="   91.765">  5  6 -1 -1</clus>
<clus scale="  105.327">  2  7  1 -1</clus>
<clus scale="   27.209">  2  5  1 -1</clus>
</clustering>
</event>
<event>
 9    1  0.1445593E-005  0.1076943E+03  0.7546771E-02  0.1265690E+00
          2   -1    0    0  502    0 -0.00000000000E+00  0.00000000000E+00  0.76406883111E+03  0.76406883111E+03  0.00000000000E+00 0. -1.
         21   -1    0    0  501  502  0.00000000000E+00 -0.00000000000E+00 -0.21432066368E+02  0.21432066368E+02  0.00000000000E+00 0.  1.
         23    2    1    2    0    0  0.11474550728E+02 -0.67036102278E+02  0.41017622682E+03  0.42584745562E+03  0.92065270808E+02 0.  0.
         23    2    1    2    0    0 -0.48195501334E+00  0.31979691309E+02  0.22020533439E+03  0.24153900654E+03  0.93956210271E+02 0.  0.
        -13    1    4    4    0    0  0.23420558842E+01 -0.33235924639E+02  0.61763743655E+02  0.70177431861E+02  0.00000000000E+00 0.  1.
         13    1    4    4    0    0 -0.28240108975E+01  0.65215615947E+02  0.15844159073E+03  0.17136157467E+03  0.00000000000E+00 0. -1.
        -13    1    3    3    0    0 -0.26523225272E+02 -0.62559751705E+02  0.33111071407E+03  0.33801110779E+03  0.00000000000E+00 0.  1.
         13    1    3    3    0    0  0.37997776000E+02 -0.44763505725E+01  0.79065512743E+02  0.87836347834E+02  0.00000000000E+00 0. -1.
          2    1    1    2  501    0 -0.10992595715E+02  0.35056410969E+02  0.11225520353E+03  0.11811443532E+03  0.00000000000E+00 0. -1.
<scales pt_clust_5="13000.00000" pt_clust_6="13000.00000" pt_clust_7="13000.00000" pt_clust_8="13000.00000" pt_clust_9="36.73949"></scales>
<clustering>
<clus scale="   36.739">  2  9  1 -1</clus>
<clus scale="   92.065">  7  8 -1 -1</clus>
<clus scale="   93.956">  5  6 -1 -1</clus>
<clus scale="  106.049">  1  7  2 -1</clus>
<clus scale="   36.739">  2  5  1 -1</clus>
</clustering>
</event>
<event>
 9    1  0.1445593E-005  0.1777020E+03  0.7546771E-02  0.1190014E+00
         21   -1    0    0  501  502  0.00000000000E+00  0.00000000000E+00  0.24501691835E+03  0.24501691835E+03  0.00000000000E+00 0. -1.
          1   -1    0    0  502    0 -0.00000000000E+00 -0.00000000000E+00 -0.74633168618E+03  0.74633168618E+03  0.00000000000E+00 0. -1.
         23    2    1    2    0    0 -0.61758399825E+02  0.26809022224E+02 -0.61693558335E+03  0.62727750040E+03  0.91294714411E+02 0.  0.
         23    2    1    2    0    0 -0.11739702486E+03  0.48531837345E+02  0.36395870385E+02  0.15419136894E+03  0.79453874620E+02 0.  0.
        -11    1    3    3    0    0 -0.55493353915E+02  0.58790252109E+02 -0.43809824949E+03  0.44549509793E+03  0.00000000000E+00 0. -1.
         11    1    3    3    0    0 -0.62650459092E+01 -0.31981229885E+02 -0.17883733386E+03  0.18178240247E+03  0.00000000000E+00 0.  1.
        -13    1    4    4    0    0 -0.62041999954E+02  0.64115353100E+02  0.67002406042E+01  0.89470003273E+02  0.00000000000E+00 0. -1.
         13    1    4    4    0    0 -0.55355024905E+02 -0.15583515756E+02  0.29695629780E+02  0.64721365666E+02  0.00000000000E+00 0.  1.
          1    1    1    2  501    0  0.17915542468E+03 -0.75340859569E+02  0.79224945136E+02  0.20987973520E+03  0.00000000000E+00 0. -1.
<scales pt_clust_5="13000.00000" pt_clust_6="13000.00000" pt_clust_7="13000.00000" pt_clust_8="13000.00000" pt_clust_9="158.95001"></scales>
<clustering>
<clus scale="   79.454">  7  8 -1 -1</clus>
<clus scale="   91.295">  5  6 -1 -1</clus>
<clus scale="  113.435">  2  5  1 -1</clus>
<clus scale="  158.950">  1  9  2 -1</clus>
<clus scale="  158.950">  1  5  2 -1</clus>
</clustering>
</event>
<event>
 9    1  0.1836194E-005  0.2534092E+03  0.7546771E-02  0.1111368E+00
         21   -1    0    0  501  502  0.00000000000E+00  0.00000000000E+00  0.11155638431E+03  0.11155638431E+03  0.00000000000E+00 0. -1.
          2   -1    0    0  502    0 -0.00000000000E+00 -0.00000000000E+00 -0.12624583715E+04  0.12624583715E+04  0.00000000000E+00 0. -1.
         23    2    1    2    0    0 -0.23732992640E+03 -0.13209886801E+03 -0.98090417777E+03  0.10214901866E+04  0.86565526834E+02 0.  0.
         23    2    1    2    0    0  0.10710490528E+03  0.87229578712E+02 -0.57624352471E+02  0.17476179732E+03  0.90225604274E+02 0.  0.
        -11    1    4    4    0    0  0.57453628966E+02  0.37878847983E+02 -0.75857369749E+02  0.10242102885E+03  0.00000000000E+00 0.  1.
         11    1    4    4    0    0  0.49651276315E+02  0.49350730729E+02  0.18233017278E+02  0.72340768466E+02  0.00000000000E+00 0. -1.
        -13    1    3    3    0    0 -0.61528080036E+02 -0.52964089191E+02 -0.17604143833E+03  0.19385945267E+03  0.00000000000E+00 0.  1.
         13    1    3    3    0    0 -0.17580184637E+03 -0.79134778821E+02 -0.80486273943E+03  0.82763073392E+03  0.00000000000E+00 0. -1.
          2    1    1    2  501    0  0.13022502112E+03  0.44869289301E+02 -0.11237345694E+03  0.17776277190E+03  0.00000000000E+00 0. -1.
<scales pt_clust_5="13000.00000" pt_clust_6="13000.00000" pt_clust_7="13000.00000" pt_clust_8="13000.00000" pt_clust_9="137.73819"></scales>
<clustering>
<clus scale="   86.566">  7  8 -1 -1</clus>
<clus scale="   90.226">  5  6 -1 -1</clus>
<clus scale="  137.738">  1  9  2 -1</clus>
<clus scale="  252.129">  2  7  1 -1</clus>
<clus scale="  137.738">  1  5  2 -1</clus>
</clustering>
</event>
<event>
 9    1  0.1445593E-005  0.9930822E+02  0.7546771E-02  0.1282229E+00
          2   -1    0    0  502    0 -0.00000000000E+00  0.00000000000E+00  0.66208010606E+03  0.66208010606E+03  0.00000000000E+00 0.  1.
         21   -1    0    0  501  502  0.00000000000E+00 -0.00000000000E+00 -0.24358772567E+02  0.24358772567E+02  0.00000000000E+00 0. -1.
         23    2    1    2    0    0 -0.29603652457E+02  0.14337697279E+02  0.39491675949E+03  0.40671221717E+03  0.91507567291E+02 0.  0.
         23    2    1    2    0    0  0.56483608471E+02  0.32544300864E+01  0.18569129550E+03  0.21419848765E+03  0.90546924551E+02 0.  0.
        -11    1    3    3    0    0  0.71868297767E+01 -0.34699672401E+02  0.12535568563E+03  0.13026805329E+03  0.00000000000E+00 0. -1.
         11    1    3    3    0    0 -0.36790482233E+02  0.49037369681E+02  0.26956107386E+03  0.27644416389E+03  0.00000000000E+00 0.  1.
        -11    1    4    4    0    0  0.22885560954E+02 -0.29257490659E+02  0.15225214880E+03  0.15671779246E+03  0.00000000000E+00 0.  1.
         11    1    4    4    0    0  0.33598047517E+02  0.32511920746E+02  0.33439146708E+02  0.57480695195E+02  0.00000000000E+00 0. -1.
          2    1    1    2  501    0 -0.26879956015E+02 -0.17592127366E+02  0.57113278503E+02  0.65528173803E+02  0.00000000000E+00 0.  1.
<scales pt_clust_5="13000.00000" pt_clust_6="13000.00000" pt_clust_7="13000.00000" pt_clust_8="13000.00000" pt_clust_9="32.12499"></scales>
<clustering>
<clus scale="   32.125">  2  9  1 -1</clus>
<clus scale="   90.547">  7  8 -1 -1</clus>
<clus scale="   91.508">  5  6 -1 -1</clus>
<clus scale="   98.424">  2  7  1 -1</clus>
<clus scale="   32.125">  2  5  1 -1</clus>
</clustering>
</event>
<event>
 9    1  0.1445593E-005  0.1016292E+03  0.7546771E-02  0.1279769E+00
          1   -1    0    0  502    0 -0.00000000000E+00  0.00000000000E+00  0.47702370644E+03  0.47702370644E+03  0.00000000000E+00 0. -1.
         21   -1    0    0  501  502  0.00000000000E+00 -0.00000000000E+00 -0.88073362972E+02  0.88073362972E+02  0.00000000000E+00 0.  1.
         23    2    1    2    0    0 -0.87316916313E+01 -0.10213906699E+02  0.16516634974E+03  0.18677303602E+03  0.86160765840E+02 0.  0.
         23    2    1    2    0    0  0.27957296499E+01  0.83740951512E+02  0.26572614099E+03  0.29346765071E+03  0.92154853069E+02 0.  0.
        -13    1    3    3    0    0  0.29658593443E+02 -0.23594155328E+02  0.12075830344E+03  0.12656573067E+03  0.00000000000E+00 0.  1.
         13    1    3    3    0    0 -0.38390285075E+02  0.13380248629E+02  0.44408046297E+02  0.60207305349E+02  0.00000000000E+00 0. -1.
        -13    1    4    4    0    0  0.29270726432E+02  0.69867487602E+01  0.24065299762E+02  0.38532177939E+02  0.00000000000E+00 0. -1.
         13    1    4    4    0    0 -0.26474996782E+02  0.76754202752E+02  0.24166084123E+03  0.25493547277E+03  0.00000000000E+00 0.  1.
          1    1    1    2  501    0  0.59359619813E+01 -0.73527044813E+02 -0.41942147264E+02  0.84856382675E+02  0.00000000000E+00 0. -1.
<scales pt_clust_5="13000.00000" pt_clust_6="13000.00000" pt_clust_7="13000.00000" pt_clust_8="13000.00000" pt_clust_9="73.76627"></scales>
<clustering>
<clus scale="   73.766">  2  9  1 -1</clus>
<clus scale="   86.161">  5  6 -1 -1</clus>
<clus scale="   92.155">  7  8 -1 -1</clus>
<clus scale="   96.227">  1  5  2 -1</clus>
<clus scale="   73.766">  2  5  1 -1</clus>
</clustering>
</event>
<event>
 9    1  0.1445593E-005  0.1445452E+03  0.7546771E-02  0.1207826E+00
         21   -1    0    0  501  502  0.00000000000E+00  0.00000000000E+00  0.28632997006E+03  0.28632997006E+03  0.00000000000E+00 0. -1.
         -3   -1    0    0    0  501 -0.00000000000E+00 -0.00000000000E+00 -0.15723060509E+03  0.15723060509E+03  0.00000000000E+00 0.  1.
         23    2    1    2    0    0  0.60335907813E+02 -0.82973035827E+02 -0.34877688882E+02  0.14213440737E+03  0.91982553405E+02 0.  0.
         23    2    1    2    0    0 -0.45536125785E+02  0.14341260212E+03  0.16291597723E+03  0.23919192797E+03  0.89612775720E+02 0.  0.
        -13    1    4    4    0    0 -0.48097653303E+02  0.21127987153E+02  0.42780294635E+02  0.67749019945E+02  0.00000000000E+00 0.  1.
         13    1    4    4    0    0  0.25615275179E+01  0.12228461496E+03  0.12013568259E+03  0.17144290802E+03  0.00000000000E+00 0. -1.
        -13    1    3    3    0    0 -0.10176661293E+02 -0.54812574934E+02  0.57068671607E+01  0.56040620435E+02  0.00000000000E+00 0.  1.
         13    1    3    3    0    0  0.70512569106E+02 -0.28160460892E+02 -0.40584556043E+02  0.86093786935E+02  0.00000000000E+00 0. -1.
         -3    1    1    2    0  502 -0.14799782028E+02 -0.60439566289E+02  0.10610766182E+01  0.62234239811E+02  0.00000000000E+00 0.  1.
<scales pt_clust_5="13000.00000" pt_clust_6="13000.00000" pt_clust_7="13000.00000" pt_clust_8="13000.00000" pt_clust_9="62.22522"></scales>
<clustering>
<clus scale="   62.225">  1  9  2 -1</clus>
<clus scale="   89.613">  5  6 -1 -1</clus>
<clus scale="   91.983">  7  8 -1 -1</clus>
<clus scale="  143.049">  1  5  2 -1</clus>
<clus scale="   62.225">  1  5  2 -1</clus>
</clustering>
</event>
<event>
 9    1  0.1445593E-005  0.1251004E+03  0.7546771E-02  0.1235795E+00
          3   -1    0    0  502    0 -0.00000000000E+00  0.00000000000E+00  0.77946911102E+02  0.77946911102E+02  0.00000000000E+00 0. -1.
         21   -1    0    0  501  502  0.00000000000E+00 -0.00000000000E+00 -0.26563669576E+03  0.26563669576E+03  0.00000000000E+00 0.  1.
         23    2    1    2    0    0  0.37236907227E+02  0.82024847613E+02 -0.33503878806E+02  0.13232323370E+03  0.90951995004E+02 0.  0.
         23    2    1    2    0    0 -0.13531635768E+02 -0.69159351426E+02 -0.12603557945E+03  0.17227445566E+03  0.93954242748E+02 0.  0.
        -13    1    3    3    0    0  0.52276214000E+01  0.79508241097E+02 -0.52116576473E+02  0.95210429950E+02  0.00000000000E+00 0.  1.
         13    1    3    3    0    0  0.32009285827E+02  0.25166065156E+01  0.18612697668E+02  0.37112803747E+02  0.00000000000E+00 0. -1.
        -13    1    4    4    0    0 -0.47176422151E+02 -0.83305890795E+01 -0.49640396949E+02  0.68986828675E+02  0.00000000000E+00 0.  1.
         13    1    4    4    0    0  0.33644786383E+02 -0.60828762347E+02 -0.76395182502E+02  0.10328762699E+03  0.00000000000E+00 0. -1.
          3    1    1    2  501    0 -0.23705271459E+02 -0.12865496187E+02 -0.28150326403E+02  0.38985917505E+02  0.00000000000E+00 0. -1.
<scales pt_clust_5="13000.00000" pt_clust_6="13000.00000" pt_clust_7="13000.00000" pt_clust_8="13000.00000" pt_clust_9="26.97148"></scales>
<clustering>
<clus scale="   26.971">  2  9  1 -1</clus>
<clus scale="   90.952">  5  6 -1 -1</clus>
<clus scale="   93.954">  7  8 -1 -1</clus>
<clus scale="  122.862">  1  5  2 -1</clus>
<clus scale="   26.971">  2  5  1 -1</clus>
</clustering>
</event>
<event>
 9    1  0.1445593E-005  0.1469004E+03  0.7546771E-02  0.1224325E+00
         21   -1    0    0  501  502  0.00000000000E+00  0.00000000000E+00  0.26497992297E+03  0.26497992297E+03  0.00000000000E+00 0.  1.
         -4   -1    0    0    0  501 -0.00000000000E+00 -0.00000000000E+00 -0.21647140062E+03  0.21647140062E+03  0.00000000000E+00 0.  1.
         23    2    1    2    0    0 -0.31982376640E+02  0.11113998963E+02 -0.10038010545E+03  0.13900363766E+03  0.89996957305E+02 0.  0.
         23    2    1    2    0    0 -0.93153497808E+02  0.49994798453E+02  0.14772716577E+03  0.20318311330E+03  0.91011032286E+02 0.  0.
        -11    1    4    4    0    0 -0.54189076371E+02 -0.11407318222E+02  0.10534302426E+03  0.11901149385E+03  0.00000000000E+00 0.  1.
         11    1    4    4    0    0 -0.38964421437E+02  0.61402116675E+02  0.42384141510E+02  0.84171619455E+02  0.00000000000E+00 0. -1.
        -11    1    3    3    0    0 -0.53454070789E+02 -0.63564288225E+00 -0.23634375995E+02  0.58449340924E+02  0.00000000000E+00 0.  1.
         11    1    3    3    0    0  0.21471694149E+02  0.11749641845E+02 -0.76745729456E+02  0.80554296737E+02  0.00000000000E+00 0. -1.
         -4    1    1    2    0  502  0.12513587445E+03 -0.61108797416E+02  0.11614620284E+01  0.13926457263E+03  0.00000000000E+00 0.  1.
<scales pt_clust_5="13000.00000" pt_clust_6="13000.00000" pt_clust_7="13000.00000" pt_clust_8="13000.00000" pt_clust_9="115.31141"></scales>
<clustering>
<clus scale="   89.997">  7  8 -1 -1</clus>
<clus scale="   91.011">  5  6 -1 -1</clus>
<clus scale="   96.155">  2  7  1 -1</clus>
<clus scale="  115.311">  1  9  2 -1</clus>
<clus scale="  115.311">  1  5  2 -1</clus>
</clustering>
</event>
<event>
 9    1  0.1445593E-005  0.2009687E+03  0.7546771E-02  0.1149113E+00
          2   -1    0    0  502    0 -0.00000000000E+00  0.00000000000E+00  0.81154512347E+03  0.81154512347E+03  0.00000000000E+00 0. -1.
         21   -1    0    0  501  502  0.00000000000E+00 -0.00000000000E+00 -0.73458102386E+02  0.73458102386E+02  0.00000000000E+00 0. -1.
         23    2    1    2    0    0  0.17574064069E+03 -0.48579543986E+02  0.42732257711E+03  0.47360340384E+03  0.91928528437E+02 0.  0.
         23    2    1    2    0    0 -0.14378918867E+03  0.10452675970E+03  0.26382532299E+03  0.33168616376E+03  0.93865520365E+02 0.  0.
        -11    1    4    4    0    0 -0.57581219679E+02 -0.53581101474E+01  0.10742459122E+03  0.12200143033E+03  0.00000000000E+00 0. -1.
         11    1    4    4    0    0 -0.86207968986E+02  0.10988486985E+03  0.15640073177E+03  0.20968473343E+03  0.00000000000E+00 0.  1.
        -11    1    3    3    0    0  0.60931474702E+02 -0.59413763067E+02  0.13782215870E+03  0.16198020645E+03  0.00000000000E+00 0. -1.
         11    1    3    3    0    0  0.11480916599E+03  0.10834219081E+02  0.28950041840E+03  0.31162319739E+03  0.00000000000E+00 0.  1.
          2    1    1    2  501    0 -0.31951452023E+02 -0.55947215713E+02  0.46939120992E+02  0.79713658252E+02  0.00000000000E+00 0. -1.
<scales pt_clust_5="13000.00000" pt_clust_6="13000.00000" pt_clust_7="13000.00000" pt_clust_8="13000.00000" pt_clust_9="64.42815"></scales>
<clustering>
<clus scale="   64.428">  2  9  1 -1</clus>
<clus scale="   91.929">  7  8 -1 -1</clus>
<clus scale="   93.866">  5  6 -1 -1</clus>
<clus scale="  200.071">  1  7  2 -1</clus>
<clus scale="   64.428">  2  5  1 -1</clus>
</clustering>
</event>
<event>
 9    1  0.1445593E-005  0.1437288E+03  0.7546771E-02  0.1208560E+00
          1   -1    0    0  502    0 -0.00000000000E+00  0.00000000000E+00  0.86557624952E+02  0.86557624952E+02  0.00000000000E+00 0. -1.
         21   -1    0    0  501  502  0.00000000000E+00 -0.00000000000E+00 -0.70304415976E+03  0.70304415976E+03  0.00000000000E+00 0. -1.
         23    2    1    2    0    0  0.57598673867E+02 -0.88479220358E+02 -0.74296086460E+02  0.15863968846E+03  0.92197953483E+02 0.  0.
         23    2    1    2    0    0  0.19050843809E+02  0.13397744923E+03 -0.12857644327E+03  0.20785243837E+03  0.91421238340E+02 0.  0.
        -11    1    3    3    0    0 -0.22865048163E+02 -0.36066096220E+02 -0.33627006659E+02  0.54353926269E+02  0.00000000000E+00 0.  1.
         11    1    3    3    0    0  0.80463722030E+02 -0.52413124139E+02 -0.40669079801E+02  0.10428576220E+03  0.00000000000E+00 0. -1.
        -13    1    4    4    0    0 -0.32118412342E+02  0.54729522824E+02 -0.78858260514E+02  0.10122024665E+03  0.00000000000E+00 0.  1.
         13    1    4    4    0    0  0.51169256151E+02  0.79247926410E+02 -0.49718182754E+02  0.10663219172E+03  0.00000000000E+00 0. -1.
          1    1    1    2  501    0 -0.76649517676E+02 -0.45498228876E+02 -0.41361400508E+03  0.42310965788E+03  0.00000000000E+00 0. -1.
<scales pt_clust_5="13000.00000" pt_clust_6="13000.00000" pt_clust_7="13000.00000" pt_clust_8="13000.00000" pt_clust_9="89.13606"></scales>
<clustering>
<clus scale="   89.136">  2  9  1 -1</clus>
<clus scale="   91.421">  7  8 -1 -1</clus>
<clus scale="   92.198">  5  6 -1 -1</clus>
<clus scale="  143.232">  2  7  1 -1</clus>
<clus scale="   89.136">  2  5  1 -1</clus>
</clustering>
</event>
<event>
 9    1  0.1445593E-005  0.1117775E+03  0.7546771E-02  0.1259149E+00
         21   -1    0    0  501  502  0.00000000000E+00  0.00000000000E+00  0.72984424021E+03  0.72984424021E+03  0.00000000000E+00 0. -1.
          2   -1    0    0  502    0 -0.00000000000E+00 -0.00000000000E+00 -0.25375485945E+03  0.25375485945E+03  0.00000000000E+00 0. -1.
         23    2    1    2    0    0 -0.57491706481E+02 -0.20738556090E+02 -0.19572356055E+03  0.22445394062E+03  0.91304300476E+02 0.  0.
         23    2    1    2    0    0  0.59402697857E+02  0.11062419805E+03  0.10461015931E+03  0.18486119059E+03  0.86394332265E+02 0.  0.
        -11    1    4    4    0    0 -0.65407035489E+01  0.78475608361E+02  0.59989124079E+02  0.98994428724E+02  0.00000000000E+00 0. -1.
         11    1    4    4    0    0  0.65943401406E+02  0.32148589692E+02  0.44621035235E+02  0.85866761868E+02  0.00000000000E+00 0.  1.
        -13    1    3    3    0    0 -0.75314226909E+02 -0.59912735440E+01 -0.96436519932E+02  0.12250767531E+03  0.00000000000E+00 0. -1.
         13    1    3    3    0    0  0.17822520429E+02 -0.14747282546E+02 -0.99287040616E+02  0.10194626531E+03  0.00000000000E+00 0.  1.
          2    1    1    2  501    0 -0.19109913761E+01 -0.89885641963E+02  0.56720278199E+03  0.57428396845E+03  0.00000000000E+00 0. -1.
<scales pt_clust_5="13000.00000" pt_clust_6="13000.00000" pt_clust_7="13000.00000" pt_clust_8="13000.00000" pt_clust_9="89.90595"></scales>
<clustering>
<clus scale="   86.394">  5  6 -1 -1</clus>
<clus scale="   89.906">  1  9  2 -1</clus>
<clus scale="   91.304">  7  8 -1 -1</clus>
<clus scale="  107.804">  1  5  2 -1</clus>
<clus scale="   89.906">  1  5  2 -1</clus>
</clustering>
</event>
<event>
 9    1  0.1445593E-005  0.9651811E+02  0.7546771E-02  0.1290146E+00
         -1   -1    0    0    0  501 -0.00000000000E+00  0.00000000000E+00  0.87564773634E+02  0.87564773634E+02  0.00000000000E+00 0.  1.
         21   -1    0    0  501  502  0.00000000000E+00 -0.00000000000E+00 -0.34540257158E+03  0.34540257158E+03  0.00000000000E+00 0.  1.
         23    2    1    2    0    0  0.27945358952E+02 -0.19214343954E+02 -0.10899873308E+01  0.99970295503E+02  0.94035832585E+02 0.  0.
         23    2    1    2    0    0 -0.14335667753E+02 -0.18321566321E+02 -0.22551849340E+02  0.95421974140E+02  0.89752861112E+02 0.  0.
        -11    1    3    3    0    0  0.60409185494E+02 -0.20451089364E+02  0.12086935097E+02  0.64912331249E+02  0.00000000000E+00 0. -1.
         11    1    3    3    0    0 -0.32463826541E+02  0.12367454095E+01 -0.13176922428E+02  0.35057964253E+02  0.00000000000E+00 0.  1.
        -11    1    4    4    0    0 -0.17857793389E+02  0.18094983420E+02 -0.45580656616E+02  0.52191239372E+02  0.00000000000E+00 0. -1.
         11    1    4    4    0    0  0.35221256363E+01 -0.36416549741E+02  0.23028807276E+02  0.43230734768E+02  0.00000000000E+00 0.  1.
         -1    1    1    2    0  502 -0.13609691199E+02  0.37535910275E+02 -0.23419596128E+03  0.23757507557E+03  0.00000000000E+00 0.  1.
<scales pt_clust_5="13000.00000" pt_clust_6="13000.00000" pt_clust_7="13000.00000" pt_clust_8="13000.00000" pt_clust_9="39.92704"></scales>
<clustering>
<clus scale="   39.927">  2  9  1 -1</clus>
<clus scale="   89.753">  7  8 -1 -1</clus>
<clus scale="   92.350">  2  7  1 -1</clus>
<clus scale="   94.036">  5  6 -1 -1</clus>
<clus scale="   39.927">  2  5  1 -1</clus>
</clustering>
</event>
<event>
 9    1  0.1445593E-005  0.1082717E+03  0.7546771E-02  0.1264909E+00
          1   -1    0    0  502    0 -0.00000000000E+00  0.00000000000E+00  0.80461281877E+02  0.80461281877E+02  0.00000000000E+00 0. -1.
         21   -1    0    0  501  502  0.00000000000E+00 -0.00000000000E+00 -0.39451966007E+03  0.39451966007E+03  0.00000000000E+00 0. -1.
         23    2    1    2    0    0  0.44322390459E+02  0.16216836403E+02 -0.50517968230E+01  0.10470324214E+03  0.93326245952E+02 0.  0.
         23    2    1    2    0    0 -0.53312375671E+02 -0.54649513594E+02 -0.92854612276E+02  0.15055158791E+03  0.90636763315E+02 0.  0.
        -11    1    4    4    0    0 -0.39819754075E+02 -0.69934639485E+02 -0.10052321369E+03  0.12876871944E+03  0.00000000000E+00 0. -1.
         11    1    4    4    0    0 -0.13492621597E+02  0.15285125891E+02  0.76686014160E+01  0.21782868469E+02  0.00000000000E+00 0.  1.
        -11    1    3    3    0    0  0.75056264008E+01  0.49740843153E+02  0.12627965535E+02  0.51864741577E+02  0.00000000000E+00 0.  1.
         11    1    3    3    0    0  0.36816764058E+02 -0.33524006750E+02 -0.17679762358E+02  0.52838500559E+02  0.00000000000E+00 0. -1.
          1    1    1    2  501    0  0.89899852126E+01  0.38432677191E+02 -0.21615196909E+03  0.21972611191E+03  0.00000000000E+00 0. -1.
<scales pt_clust_5="13000.00000" pt_clust_6="13000.00000" pt_clust_7="13000.00000" pt_clust_8="13000.00000" pt_clust_9="39.47012"></scales>
<clustering>
<clus scale="   39.470">  2  9  1 -1</clus>
<clus scale="   90.637">  5  6 -1 -1</clus>
<clus scale="   93.326">  7  8 -1 -1</clus>
<clus scale="  105.962">  2  5  1 -1</clus>
<clus scale="   39.470">  2  5  1 -1</clus>
</clustering>
</event>
<event>
 9    1  0.1445593E-005  0.1261369E+03  0.7546771E-02  0.1233715E+00
         21   -1    0    0  501  502  0.00000000000E+00  0.00000000000E+00  0.36629099161E+03  0.36629099161E+03  0.00000000000E+00 0.  1.
          1   -1    0    0  502    0 -0.00000000000E+00 -0.00000000000E+00 -0.10143169730E+03  0.10143169730E+03  0.00000000000E+00 0. -1.
         23    2    1    2    0    0 -0.89044471508E+02 -0.10775483040E+02  0.13822393449E+01  0.12908979799E+03  0.92829070976E+02 0.  0.
         23    2    1    2    0    0  0.66212228576E+02  0.57223573885E+02  0.84074272567E+02  0.15191359682E+03  0.91381951010E+02 0.  0.
        -11    1    3    3    0    0 -0.73768634198E+02  0.17451504319E+02 -0.32447733792E+02  0.82457393984E+02  0.00000000000E+00 0.  1.
         11    1    3    3    0    0 -0.15275837311E+02 -0.28226987359E+02  0.33829973137E+02  0.46632404005E+02  0.00000000000E+00 0. -1.
        -11    1    4    4    0    0  0.37062775687E+02  0.75514143818E+02  0.81944836238E+02  0.11743505203E+03  0.00000000000E+00 0.  1.
         11    1    4    4    0    0  0.29149452888E+02 -0.18290569933E+02  0.21294363297E+01  0.34478544796E+02  0.00000000000E+00 0. -1.
          1    1    1    2  501    0  0.22832242933E+02 -0.46448090845E+02  0.17940278240E+03  0.18671929411E+03  0.00000000000E+00 0. -1.
<scales pt_clust_5="13000.00000" pt_clust_6="13000.00000" pt_clust_7="13000.00000" pt_clust_8="13000.00000" pt_clust_9="51.75651"></scales>
<clustering>
<clus scale="   51.757">  1  9  2 -1</clus>
<clus scale="   91.382">  7  8 -1 -1</clus>
<clus scale="   92.829">  5  6 -1 -1</clus>
<clus scale="  125.076">  1  7  2 -1</clus>
<clus scale="   51.757">  1  5  2 -1</clus>
</clustering>
</event>
<event>
 9    1  0.1445593E-005  0.2544284E+03  0.7546771E-02  0.1131516E+00
         21   -1    0    0  501  502  0.00000000000E+00  0.00000000000E+00  0.85672582490E+03  0.85672582490E+03  0.00000000000E+00 0. -1.
          2   -1    0    0  502    0 -0.00000000000E+00 -0.00000000000E+00 -0.19293900292E+03  0.19293900292E+03  0.00000000000E+00 0. -1.
         23    2    1    2    0    0 -0.71882172887E+02 -0.96099075536E+02  0.40757543000E+02  0.15611552883E+03  0.91152629877E+02 0.  0.
         23    2    1    2    0    0  0.10228764072E+03  0.31179307079E+03  0.14991043621E+03  0.37269439457E+03  0.93542997704E+02 0.  0.
        -13    1    3    3    0    0 -0.46596052853E+02 -0.10861338856E+03  0.17344124495E+02  0.11945241299E+03  0.00000000000E+00 0.  1.
         13    1    3    3    0    0 -0.25286120035E+02  0.12514313023E+02  0.23413418506E+02  0.36663115838E+02  0.00000000000E+00 0. -1.
        -13    1    4    4    0    0  0.16357441717E+02  0.16002729550E+03  0.10665305005E+03  0.19300563279E+03  0.00000000000E+00 0.  1.
         13    1    4    4    0    0  0.85930198999E+02  0.15176577530E+03  0.43257386153E+02  0.17968876178E+03  0.00000000000E+00 0. -1.
          2    1    1    2  501    0 -0.30405467829E+02 -0.21569399526E+03  0.47311884278E+03  0.52085490442E+03  0.00000000000E+00 0. -1.
<scales pt_clust_5="13000.00000" pt_clust_6="13000.00000" pt_clust_7="13000.00000" pt_clust_8="13000.00000" pt_clust_9="236.60840"></scales>
<clustering>
<clus scale="   91.153">  5  6 -1 -1</clus>
<clus scale="   93.543">  7  8 -1 -1</clus>
<clus scale="  150.701">  2  5  1 -1</clus>
<clus scale="  236.608">  1  9  2 -1</clus>
<clus scale="  236.608">  1  5  2 -1</clus>
</clustering>
</event>
<event>
 9    1  0.1445593E-005  0.1317343E+03  0.7546771E-02  0.1226440E+00
         -3   -1    0    0    0  501 -0.00000000000E+00  0.00000000000E+00  0.75247190303E+02  0.75247190303E+02  0.00000000000E+00 0.  1.
         21   -1    0    0  501  502  0.00000000000E+00 -0.00000000000E+00 -0.31843939243E+03  0.31843939243E+03  0.00000000000E+00 0.  1.
         23    2    1    2    0    0 -0.83334504339E+02 -0.20483583680E+02 -0.34964544259E+02  0.13432110461E+03  0.97238999254E+02 0.  0.
         23    2    1    2    0    0  0.89053526868E+02  0.39787621418E+02 -0.18878886529E+03  0.23137941465E+03  0.91551146355E+02 0.  0.
        -13    1    4    4    0    0  0.40859476106E+02 -0.23691124055E+02 -0.10808511653E+03  0.11795405276E+03  0.00000000000E+00 0. -1.
         13    1    4    4    0    0  0.48194050763E+02  0.63478745473E+02 -0.80703748762E+02  0.11342536189E+03  0.00000000000E+00 0.  1.
        -13    1    3    3    0    0 -0.48662276832E+02 -0.42256393251E+02  0.18434393847E+02  0.67033177111E+02  0.00000000000E+00 0.  1.
         13    1    3    3    0    0 -0.34672227507E+02  0.21772809571E+02 -0.53398938106E+02  0.67287927504E+02  0.00000000000E+00 0. -1.
         -3    1    1    2    0  502 -0.57190225297E+01 -0.19304037738E+02 -0.19438792574E+02  0.27986063468E+02  0.00000000000E+00 0.  1.
<scales pt_clust_5="13000.00000" pt_clust_6="13000.00000" pt_clust_7="13000.00000" pt_clust_8="13000.00000" pt_clust_9="20.13338"></scales>
<clustering>
<clus scale="   20.133">  2  9  1 -1</clus>
<clus scale="   91.551">  5  6 -1 -1</clus>
<clus scale="   97.239">  7  8 -1 -1</clus>
<clus scale="  127.594">  2  5  1 -1</clus>
<clus scale="   20.133">  2  5  1 -1</clus>
</clustering>
</event>
<event>
 9    1  0.1445593E-005  0.9546567E+02  0.7546771E-02  0.1290184E+00
         21   -1    0    0  501  502  0.00000000000E+00  0.00000000000E+00  0.18161243476E+03  0.18161243476E+03  0.00000000000E+00 0. -1.
         -3   -1    0    0    0  501 -0.00000000000E+00 -0.00000000000E+00 -0.95636164057E+02  0.95636164057E+02  0.00000000000E+00 0.  1.
         23    2    1    2    0    0  0.28520990914E+02 -0.68782900477E+01 -0.33084392738E+02  0.99912682842E+02  0.89594694894E+02 0.  0.
         23    2    1    2    0    0 -0.47987967574E+02 -0.97470472590E+01  0.11008837591E+03  0.15020904803E+03  0.89696475063E+02 0.  0.
        -11    1    4    4    0    0 -0.74807737046E+02 -0.91445575034E+01  0.81531870605E+02  0.11102822334E+03  0.00000000000E+00 0. -1.
         11    1    4    4    0    0  0.26819769472E+02 -0.60248975562E+00  0.28556505302E+02  0.39180824692E+02  0.00000000000E+00 0.  1.
        -13    1    3    3    0    0 -0.71637450747E+01  0.30124551597E+02  0.10313692235E+02  0.32637096990E+02  0.00000000000E+00 0. -1.
         13    1    3    3    0    0  0.35684735988E+02 -0.37002841645E+02 -0.43398084973E+02  0.67275585852E+02  0.00000000000E+00 0.  1.
         -3    1    1    2    0  502  0.19466976660E+02  0.16625337307E+02  0.89722875350E+01  0.27126867944E+02  0.00000000000E+00 0.  1.
<scales pt_clust_5="13000.00000" pt_clust_6="13000.00000" pt_clust_7="13000.00000" pt_clust_8="13000.00000" pt_clust_9="25.60010"></scales>
<clustering>
<clus scale="   25.600">  1  9  2 -1</clus>
<clus scale="   89.595">  7  8 -1 -1</clus>
<clus scale="   89.696">  5  6 -1 -1</clus>
<clus scale="   95.370">  2  7  1 -1</clus>
<clus scale="   25.600">  1  5  2 -1</clus>
</clustering>
</event>
<event>
 9    1  0.1445593E-005  0.1977754E+03  0.7546771E-02  0.1172419E+00
         -2   -1    0    0    0  501 -0.00000000000E+00  0.00000000000E+00  0.14071178320E+03  0.14071178320E+03  0.00000000000E+00 0. -1.
         21   -1    0    0  501  502  0.00000000000E+00 -0.00000000000E+00 -0.71871914947E+03  0.71871914947E+03  0.00000000000E+00 0. -1.
         23    2    1    2    0    0  0.37271449886E+02  0.71266375441E+02 -0.28078136917E+02  0.12528980363E+03  0.91875436743E+02 0.  0.
         23    2    1    2    0    0 -0.53137778104E+02 -0.23367346944E+03 -0.13777867449E+03  0.29086256603E+03  0.90505002026E+02 0.  0.
        -11    1    4    4    0    0 -0.17498294955E+01 -0.97798393327E+02 -0.11697980111E+02  0.98511067293E+02  0.00000000000E+00 0.  1.
         11    1    4    4    0    0 -0.51387948609E+02 -0.13587507611E+03 -0.12608069438E+03  0.19235149874E+03  0.00000000000E+00 0. -1.
        -13    1    3    3    0    0  0.65703218727E+02  0.32720117333E+02 -0.23978222289E+02  0.77217058825E+02  0.00000000000E+00 0. -1.
         13    1    3    3    0    0 -0.28431768841E+02  0.38546258108E+02 -0.40999146273E+01  0.48072744809E+02  0.00000000000E+00 0.  1.
         -2    1    1    2    0  502  0.15866328218E+02  0.16240709399E+03 -0.41215055486E+03  0.44327856301E+03  0.00000000000E+00 0. -1.
<scales pt_clust_5="13000.00000" pt_clust_6="13000.00000" pt_clust_7="13000.00000" pt_clust_8="13000.00000" pt_clust_9="175.85204"></scales>
<clustering>
<clus scale="   90.505">  5  6 -1 -1</clus>
<clus scale="   91.875">  7  8 -1 -1</clus>
<clus scale="  122.103">  1  7  2 -1</clus>
<clus scale="  175.852">  2  9  1 -1</clus>
<clus scale="  175.852">  2  5  1 -1</clus>
</clustering>
</event>
<event>
 9    1  0.1445593E-005  0.9893590E+02  0.7546771E-02  0.1283527E+00
         21   -1    0    0  501  502  0.00000000000E+00  0.00000000000E+00  0.42442637491E+03  0.42442637491E+03  0.00000000000E+00 0.  1.
          3   -1    0    0  502    0 -0.00000000000E+00 -0.00000000000E+00 -0.94269454201E+02  0.94269454201E+02  0.00000000000E+00 0. -1.
         23    2    1    2    0    0  0.28564949312E+02  0.86644015119E+01 -0.54488981077E+02  0.11121907207E+03  0.92247518937E+02 0.  0.
         23    2    1    2    0    0 -0.24931656751E+02 -0.38272297109E+02  0.29896006845E+03  0.31674699164E+03  0.94155073942E+02 0.  0.
        -11    1    4    4    0    0 -0.52502271826E+02  0.51071338483E+01  0.16686075709E+03  0.17500023892E+03  0.00000000000E+00 0. -1.
         11    1    4    4    0    0  0.27570615076E+02 -0.43379430957E+02  0.13209931135E+03  0.14174675272E+03  0.00000000000E+00 0.  1.
        -13    1    3    3    0    0 -0.32416281576E+02  0.30581896167E+01 -0.32896364770E+02  0.46285404287E+02  0.00000000000E+00 0.  1.
         13    1    3    3    0    0  0.60981230888E+02  0.56062118952E+01 -0.21592616307E+02  0.64933667780E+02  0.00000000000E+00 0. -1.
          3    1    1    2  501    0 -0.36332925617E+01  0.29607895597E+02  0.85685833341E+02  0.90729765413E+02  0.00000000000E+00 0. -1.
<scales pt_clust_5="13000.00000" pt_clust_6="13000.00000" pt_clust_7="13000.00000" pt_clust_8="13000.00000" pt_clust_9="29.82999"></scales>
<clustering>
<clus scale="   29.830">  1  9  2 -1</clus>
<clus scale="   92.248">  7  8 -1 -1</clus>
<clus scale="   94.155">  5  6 -1 -1</clus>
<clus scale="   97.122">  2  7  1 -1</clus>
<clus scale="   29.830">  1  5  2 -1</clus>
</clustering>
</event>
<event>
 9    1  0.1445593E-005  0.1012834E+03  0.7546771E-02  0.1278992E+00
         -3   -1    0    0    0  501 -0.00000000000E+00  0.00000000000E+00  0.20717654664E+03  0.20717654664E+03  0.00000000000E+00 0.  1.
         21   -1    0    0  501  502  0.00000000000E+00 -0.00000000000E+00 -0.30632014954E+03  0.30632014954E+03  0.00000000000E+00 0.  1.
         23    2    1    2    0    0 -0.31632827539E+02 -0.36172331751E+02  0.16969201473E+03  0.19780924639E+03  0.89577032389E+02 0.  0.
         23    2    1    2    0    0 -0.36036795817E+01  0.54582307423E+02 -0.10342663976E+03  0.14556787831E+03  0.86606712184E+02 0.  0.
        -11    1    4    4    0    0  0.11524693933E+02  0.74824274564E+02 -0.66163396613E+02  0.10054394903E+03  0.00000000000E+00 0.  1.
         11    1    4    4    0    0 -0.15128373515E+02 -0.20241967141E+02 -0.37263243144E+02  0.45023929288E+02  0.00000000000E+00 0. -1.
        -13    1    3    3    0    0 -0.12398175297E+02 -0.58644060321E+02  0.15188164447E+03  0.16328158037E+03  0.00000000000E+00 0.  1.
         13    1    3    3    0    0 -0.19234652242E+02  0.22471728569E+02  0.17810370257E+02  0.34527666015E+02  0.00000000000E+00 0. -1.
         -3    1    1    2    0  502  0.35236507121E+02 -0.18409975672E+02 -0.16540897788E+03  0.17011957148E+03  0.00000000000E+00 0.  1.
<scales pt_clust_5="13000.00000" pt_clust_6="13000.00000" pt_clust_7="13000.00000" pt_clust_8="13000.00000" pt_clust_9="39.75599"></scales>
<clustering>
<clus scale="   39.756">  2  9  1 -1</clus>
<clus scale="   86.607">  5  6 -1 -1</clus>
<clus scale="   89.577">  7  8 -1 -1</clus>
<clus scale="   98.666">  2  5  1 -1</clus>
<clus scale="   39.756">  2  5  1 -1</clus>
</clustering>
</event>
<event>
 9    1  0.1445593E-005  0.9578870E+02  0.7546771E-02  0.1289778E+00
          2   -1    0    0  502    0 -0.00000000000E+00  0.00000000000E+00  0.26006382136E+03  0.26006382136E+03  0.00000000000E+00 0. -1.
         21   -1    0    0  501  502  0.00000000000E+00 -0.00000000000E+00 -0.66114182335E+02  0.66114182335E+02  0.00000000000E+00 0.  1.
         23    2    1    2    0    0 -0.12992105925E+02  0.67263414770E+01  0.11221741085E+03  0.14540276199E+03  0.91297192792E+02 0.  0.
         23    2    1    2    0    0  0.41218823330E+02 -0.23947176278E+02  0.99902619448E+02  0.14304636886E+03  0.90605030895E+02 0.  0.
        -11    1    3    3    0    0 -0.47587821199E+02  0.22526932787E+02  0.50796346499E+02  0.73159635352E+02  0.00000000000E+00 0. -1.
         11    1    3    3    0    0  0.34595715274E+02 -0.15800591310E+02  0.61421064350E+02  0.72243126642E+02  0.00000000000E+00 0.  1.
        -11    1    4    4    0    0  0.21947745767E+02  0.18778822121E+02  0.90820972353E+02  0.95303707817E+02  0.00000000000E+00 0.  1.
         11    1    4    4    0    0  0.19271077563E+02 -0.42725998399E+02  0.90816470951E+01  0.47742661045E+02  0.00000000000E+00 0. -1.
          2    1    1    2  501    0 -0.28226717406E+02  0.17220834801E+02 -0.18170391273E+02  0.37728872840E+02  0.00000000000E+00 0. -1.
<scales pt_clust_5="13000.00000" pt_clust_6="13000.00000" pt_clust_7="13000.00000" pt_clust_8="13000.00000" pt_clust_9="33.06516"></scales>
<clustering>
<clus scale="   33.065">  2  9  1 -1</clus>
<clus scale="   90.605">  7  8 -1 -1</clus>
<clus scale="   91.297">  5  6 -1 -1</clus>
<clus scale="   95.129">  2  7  1 -1</clus>
<clus scale="   33.065">  2  5  1 -1</clus>
</clustering>
</event>
<event>
 9    1  0.1445593E-005  0.1790157E+03  0.7546771E-02  0.1168859E+00
          1   -1    0    0  502    0 -0.00000000000E+00  0.00000000000E+00  0.50512417193E+03  0.50512417193E+03  0.00000000000E+00 0. -1.
         21   -1    0    0  501  502  0.00000000000E+00 -0.00000000000E+00 -0.35843585503E+03  0.35843585503E+03  0.00000000000E+00 0. -1.
         23    2    1    2    0    0 -0.15981048470E+03 -0.34970323994E+02  0.32119332310E+03  0.37177901873E+03  0.91061371539E+02 0.  0.
         23    2    1    2    0    0  0.10437647086E+03  0.11301340052E+03  0.97607796111E+02  0.20332125564E+03  0.90253945990E+02 0.  0.
        -11    1    4    4    0    0  0.64752533957E+02  0.76085290499E+02  0.10911776088E+03  0.14794778749E+03  0.00000000000E+00 0.  1.
         11    1    4    4    0    0  0.39623936901E+02  0.36928110019E+02 -0.11509964773E+02  0.55373468143E+02  0.00000000000E+00 0. -1.
        -11    1    3    3    0    0 -0.59419837291E+02 -0.24536399780E+02  0.21861510767E+03  0.22787127349E+03  0.00000000000E+00 0. -1.
         11    1    3    3    0    0 -0.10039064741E+03 -0.10433924213E+02  0.10257821543E+03  0.14390774525E+03  0.00000000000E+00 0.  1.
          1    1    1    2  501    0  0.55434013841E+02 -0.78043076524E+02 -0.27211280231E+03  0.28845975259E+03  0.00000000000E+00 0. -1.
<scales pt_clust_5="13000.00000" pt_clust_6="13000.00000" pt_clust_7="13000.00000" pt_clust_8="13000.00000" pt_clust_9="95.72696"></scales>
<clustering>
<clus scale="   90.254">  5  6 -1 -1</clus>
<clus scale="   91.061">  7  8 -1 -1</clus>
<clus scale="   95.727">  2  9  1 -1</clus>
<clus scale="  178.606">  2  5  1 -1</clus>
<clus scale="   95.727">  2  5  1 -1</clus>
</clustering>
</event>
<event>
 9    1  0.1445593E-005  0.1003448E+03  0.7546771E-02  0.1280477E+00
         21   -1    0    0  501  502  0.00000000000E+00  0.00000000000E+00  0.12388853406E+03  0.12388853406E+03  0.00000000000E+00 0. -1.
         -1   -1    0    0    0  501 -0.00000000000E+00 -0.00000000000E+00 -0.21423578971E+03  0.21423578971E+03  0.00000000000E+00 0.  1.
         23    2    1    2    0    0  0.34325694508E+02 -0.17290119472E+02 -0.14531947922E+03  0.17533275914E+03  0.90258649731E+02 0.  0.
         23    2    1    2    0    0 -0.52260147882E+02  0.38748263658E+01  0.77287851673E+02  0.13117508215E+03  0.92126830101E+02 0.  0.
        -13    1    3    3    0    0  0.66574883991E+01  0.35319644992E+02 -0.75631884372E+02  0.83737574647E+02  0.00000000000E+00 0.  1.
         13    1    3    3    0    0  0.27668206109E+02 -0.52609764464E+02 -0.69687594849E+02  0.91595184492E+02  0.00000000000E+00 0. -1.
        -13    1    4    4    0    0 -0.18774178531E+02  0.30156436064E+02 -0.74957717053E+01  0.36305192590E+02  0.00000000000E+00 0.  1.
         13    1    4    4    0    0 -0.33485969351E+02 -0.26281609698E+02  0.84783623378E+02  0.94869889558E+02  0.00000000000E+00 0. -1.
         -1    1    1    2    0  502  0.17934453374E+02  0.13415293106E+02 -0.22315628102E+02  0.31616482482E+02  0.00000000000E+00 0.  1.
<scales pt_clust_5="13000.00000" pt_clust_6="13000.00000" pt_clust_7="13000.00000" pt_clust_8="13000.00000" pt_clust_9="22.39677"></scales>
<clustering>
<clus scale="   22.397">  1  9  2 -1</clus>
<clus scale="   90.259">  5  6 -1 -1</clus>
<clus scale="   92.127">  7  8 -1 -1</clus>
<clus scale="   98.632">  2  5  1 -1</clus>
<clus scale="   22.397">  1  5  2 -1</clus>
</clustering>
</event>
<event>
 9    1  0.1445593E-005  0.1021611E+03  0.7546771E-02  0.1276068E+00
         21   -1    0    0  501  502  0.00000000000E+00  0.00000000000E+00  0.16661331806E+03  0.16661331806E+03  0.00000000000E+00 0.  1.
          2   -1    0    0  502    0 -0.00000000000E+00 -0.00000000000E+00 -0.24262109165E+03  0.24262109165E+03  0.00000000000E+00 0. -1.
         23    2    1    2    0    0  0.28678946604E+02  0.68772654543E+00 -0.12211681301E+03  0.15597921923E+03  0.92704076853E+02 0.  0.
         23    2    1    2    0    0 -0.11122280845E+03  0.48167984902E+02  0.18136516831E+02  0.15334106891E+03  0.92162260631E+02 0.  0.
        -11    1    4    4    0    0 -0.42399650240E+02 -0.26526077313E+02 -0.81978634348E+00  0.50020347537E+02  0.00000000000E+00 0. -1.
         11    1    4    4    0    0 -0.68823158206E+02  0.74694062215E+02  0.18956303175E+02  0.10332072138E+03  0.00000000000E+00 0.  1.
        -13    1    3    3    0    0  0.29279516771E+02  0.39691100391E+02 -0.99077792929E+02  0.11067557366E+03  0.00000000000E+00 0.  1.
         13    1    3    3    0    0 -0.60057016724E+00 -0.39003373845E+02 -0.23039020084E+02  0.45303645574E+02  0.00000000000E+00 0. -1.
          2    1    1    2  501    0  0.82543861842E+02 -0.48855711447E+02  0.27972522588E+02  0.99914121568E+02  0.00000000000E+00 0. -1.
<scales pt_clust_5="13000.00000" pt_clust_6="13000.00000" pt_clust_7="13000.00000" pt_clust_8="13000.00000" pt_clust_9="95.91856"></scales>
<clustering>
<clus scale="   92.162">  5  6 -1 -1</clus>
<clus scale="   92.704">  7  8 -1 -1</clus>
<clus scale="   95.919">  1  9  2 -1</clus>
<clus scale="  101.670">  1  5  2 -1</clus>
<clus scale="   95.919">  1  5  2 -1</clus>
</clustering>
</event>
<event>
 9    1  0.1445593E-005  0.9984220E+02  0.7546771E-02  0.1280754E+00
         21   -1    0    0  501  502  0.00000000000E+00  0.00000000000E+00  0.20960229559E+03  0.20960229559E+03  0.00000000000E+00 0. -1.
          2   -1    0    0  502    0 -0.00000000000E+00 -0.00000000000E+00 -0.13460527794E+03  0.13460527794E+03  0.00000000000E+00 0. -1.
         23    2    1    2    0    0  0.37097661851E+02 -0.55974472112E+02 -0.47723357926E+02  0.12207891607E+03  0.90090869766E+02 0.  0.
         23    2    1    2    0    0 -0.97136189976E+01  0.61790248913E+01  0.47789861575E+01  0.91210195404E+02  0.90354448116E+02 0.  0.
        -11    1    3    3    0    0 -0.23153554660E+01 -0.26616012742E+02 -0.64767595404E+02  0.70061504549E+02  0.00000000000E+00 0. -1.
         11    1    3    3    0    0  0.39413017317E+02 -0.29358459370E+02  0.17044237478E+02  0.52017411526E+02  0.00000000000E+00 0.  1.
        -13    1    4    4    0    0  0.34637149885E+02 -0.12102755052E+01  0.24160738405E+02  0.42248528960E+02  0.00000000000E+00 0.  1.
         13    1    4    4    0    0 -0.44350768883E+02  0.73893003964E+01 -0.19381752248E+02  0.48961666445E+02  0.00000000000E+00 0. -1.
          2    1    1    2  501    0 -0.27384042854E+02  0.49795447221E+02  0.11794138942E+03  0.13091846205E+03  0.00000000000E+00 0. -1.
<scales pt_clust_5="13000.00000" pt_clust_6="13000.00000" pt_clust_7="13000.00000" pt_clust_8="13000.00000" pt_clust_9="56.82845"></scales>
<clustering>
<clus scale="   56.828">  1  9  2 -1</clus>
<clus scale="   90.091">  5  6 -1 -1</clus>
<clus scale="   90.354">  7  8 -1 -1</clus>
<clus scale="   99.604">  2  5  1 -1</clus>
<clus scale="   56.828">  1  5  2 -1</clus>
</clustering>
</event>
<event>
 9    1  0.1445593E-005  0.1043155E+03  0.7546771E-02  0.1274578E+00
         21   -1    0    0  501  502  0.00000000000E+00  0.00000000000E+00  0.15760361889E+03  0.15760361889E+03  0.00000000000E+00 0.  1.
          3   -1    0    0  502    0 -0.00000000000E+00 -0.00000000000E+00 -0.90294050121E+02  0.90294050121E+02  0.00000000000E+00 0. -1.
         23    2    1    2    0    0 -0.58624443124E+01  0.58145958566E+02  0.32720845714E+01  0.10979576665E+03  0.92892858097E+02 0.  0.
         23    2    1    2    0    0  0.84433053237E+01 -0.33912947388E+02  0.32822059827E+02  0.98500104514E+02  0.86044207084E+02 0.  0.
        -11    1    4    4    0    0  0.11053470274E+02  0.18084985867E+02  0.40657292465E+02  0.45850423657E+02  0.00000000000E+00 0.  1.
         11    1    4    4    0    0 -0.26101649507E+01 -0.51997933255E+02 -0.78352326376E+01  0.52649680857E+02  0.00000000000E+00 0. -1.
        -13    1    3    3    0    0 -0.31603558915E+02 -0.88377532926E+01  0.16652607006E+02  0.36799458412E+02  0.00000000000E+00 0. -1.
         13    1    3    3    0    0  0.25741114602E+02  0.66983711858E+02 -0.13380522435E+02  0.72996308235E+02  0.00000000000E+00 0.  1.
          3    1    1    2  501    0 -0.25808610113E+01 -0.24233011178E+02  0.31215424375E+02  0.39601797853E+02  0.00000000000E+00 0. -1.
<scales pt_clust_5="13000.00000" pt_clust_6="13000.00000" pt_clust_7="13000.00000" pt_clust_8="13000.00000" pt_clust_9="24.37006"></scales>
<clustering>
<clus scale="   24.370">  1  9  2 -1</clus>
<clus scale="   86.044">  5  6 -1 -1</clus>
<clus scale="   92.893">  7  8 -1 -1</clus>
<clus scale="   98.266">  1  5  2 -1</clus>
<clus scale="   24.370">  1  5  2 -1</clus>
</clustering>
</event>
<event>
 9    1  0.1445593E-005  0.1093443E+03  0.7546771E-02  0.1262038E+00
          2   -1    0    0  502    0 -0.00000000000E+00  0.00000000000E+00  0.87713043678E+03  0.87713043678E+03  0.00000000000E+00 0. -1.
         21   -1    0    0  501  502  0.00000000000E+00 -0.00000000000E+00 -0.35981275292E+02  0.35981275292E+02  0.00000000000E+00 0.  1.
         23    2    1    2    0    0  0.16107310408E+02  0.50597552432E+02  0.60600024261E+03  0.61515763311E+03  0.91449777287E+02 0.  0.
         23    2    1    2    0    0 -0.15767164864E+01 -0.86934365896E+02  0.22464610751E+03  0.25743480924E+03  0.90811548712E+02 0.  0.
        -13    1    3    3    0    0  0.27768752735E+01 -0.26807694179E+02  0.13699465008E+03  0.13962054883E+03  0.00000000000E+00 0.  1.
         13    1    3    3    0    0  0.13330435134E+02  0.77405246611E+02  0.46900559253E+03  0.47553708428E+03  0.00000000000E+00 0. -1.
        -13    1    4    4    0    0 -0.33826017965E+02 -0.92366757591E+00  0.58061162880E+02  0.67202316091E+02  0.00000000000E+00 0. -1.
         13    1    4    4    0    0  0.32249301478E+02 -0.86010698320E+02  0.16658494463E+03  0.19023249315E+03  0.00000000000E+00 0.  1.
          2    1    1    2  501    0 -0.14530593921E+02  0.36336813464E+02  0.10502811366E+02  0.40519269725E+02  0.00000000000E+00 0. -1.
<scales pt_clust_5="13000.00000" pt_clust_6="13000.00000" pt_clust_7="13000.00000" pt_clust_8="13000.00000" pt_clust_9="39.13441"></scales>
<clustering>
<clus scale="   39.134">  2  9  1 -1</clus>
<clus scale="   90.812">  7  8 -1 -1</clus>
<clus scale="   91.450">  5  6 -1 -1</clus>
<clus scale="  108.811">  2  7  1 -1</clus>
<clus scale="   39.134">  2  5  1 -1</clus>
</clustering>
</event>
<event>
 9    1  0.1445593E-005  0.9569829E+02  0.7546771E-02  0.1289933E+00
          4   -1    0    0  502    0 -0.00000000000E+00  0.00000000000E+00  0.17927423736E+03  0.17927423736E+03  0.00000000000E+00 0. -1.
         21   -1    0    0  501  502  0.00000000000E+00 -0.00000000000E+00 -0.14336261046E+03  0.14336261046E+03  0.00000000000E+00 0. -1.
         23    2    1    2    0    0  0.27448424511E+02 -0.24635719729E+02  0.95621739568E+02  0.13676401775E+03  0.90556859361E+02 0.  0.
         23    2    1    2    0    0 -0.29817409669E+02 -0.36046174587E+02 -0.25817403508E+01  0.10249684246E+03  0.91162123212E+02 0.  0.
        -13    1    3    3    0    0  0.60710964596E+01  0.29268846566E+02  0.64180303840E+02  0.70799964636E+02  0.00000000000E+00 0.  1.
         13    1    3    3    0    0  0.21377328051E+02 -0.53904566294E+02  0.31441435727E+02  0.65964053109E+02  0.00000000000E+00 0. -1.
        -13    1    4    4    0    0 -0.22362919412E+02 -0.66991282391E+02 -0.23980732742E+01  0.70665994909E+02  0.00000000000E+00 0. -1.
         13    1    4    4    0    0 -0.74544902563E+01  0.30945107804E+02 -0.18366707657E+00  0.31830847547E+02  0.00000000000E+00 0.  1.
          4    1    1    2  501    0  0.23689851578E+01  0.60681894316E+02 -0.57128372311E+02  0.83375987619E+02  0.00000000000E+00 0. -1.
<scales pt_clust_5="13000.00000" pt_clust_6="13000.00000" pt_clust_7="13000.00000" pt_clust_8="13000.00000" pt_clust_9="60.72812"></scales>
<clustering>
<clus scale="   60.728">  2  9  1 -1</clus>
<clus scale="   90.557">  5  6 -1 -1</clus>
<clus scale="   91.162">  7  8 -1 -1</clus>
<clus scale="   95.122">  1  5  2 -1</clus>
<clus scale="   60.728">  2  5  1 -1</clus>
</clustering>
</event>
<event>
 9    1  0.1445593E-005  0.1211360E+03  0.7546771E-02  0.1242805E+00
          1   -1    0    0  502    0 -0.00000000000E+00  0.00000000000E+00  0.24347682728E+03  0.24347682728E+03  0.00000000000E+00 0. -1.
         21   -1    0    0  501  502  0.00000000000E+00 -0.00000000000E+00 -0.10434735573E+03  0.10434735573E+03  0.00000000000E+00 0.  1.
         23    2    1    2    0    0  0.44419773336E+02  0.70415408316E+02  0.15906467770E+03  0.20306509887E+03  0.94881066057E+02 0.  0.
         23    2    1    2    0    0 -0.24780327218E+02 -0.51844666844E+02  0.64733553917E+01  0.10697029736E+03  0.89993366928E+02 0.  0.
        -11    1    3    3    0    0 -0.22802943998E+02 -0.67797194211E+01  0.27265578775E+02  0.36184950412E+02  0.00000000000E+00 0. -1.
         11    1    3    3    0    0  0.67222717335E+02  0.77195127737E+02  0.13179909892E+03  0.16688014846E+03  0.00000000000E+00 0.  1.
        -13    1    4    4    0    0  0.24038009975E+02  0.87846709665E+01  0.13279126955E+02  0.28832821233E+02  0.00000000000E+00 0.  1.
         13    1    4    4    0    0 -0.48818337193E+02 -0.60629337810E+02 -0.68057715632E+01  0.78137476131E+02  0.00000000000E+00 0. -1.
          1    1    1    2  501    0 -0.19639446118E+02 -0.18570741472E+02 -0.26408561543E+02  0.37788786768E+02  0.00000000000E+00 0. -1.
<scales pt_clust_5="13000.00000" pt_clust_6="13000.00000" pt_clust_7="13000.00000" pt_clust_8="13000.00000" pt_clust_9="27.02925"></scales>
<clustering>
<clus scale="   27.029">  2  9  1 -1</clus>
<clus scale="   89.993">  7  8 -1 -1</clus>
<clus scale="   94.881">  5  6 -1 -1</clus>
<clus scale="  117.347">  2  7  1 -1</clus>
<clus scale="   27.029">  2  5  1 -1</clus>
</clustering>
</event>
<event>
 9    1  0.1445593E-005  0.1025564E+03  0.7546771E-02  0.1280250E+00
          2   -1    0    0  502    0 -0.00000000000E+00  0.00000000000E+00  0.15671109706E+03  0.15671109706E+03  0.00000000000E+00 0. -1.
         21   -1    0    0  501  502  0.00000000000E+00 -0.00000000000E+00 -0.18547847535E+03  0.18547847535E+03  0.00000000000E+00 0. -1.
         23    2    1    2    0    0 -0.40728572104E+01 -0.42245701291E+02  0.11550704501E+03  0.14883550336E+03  0.83718828053E+02 0.  0.
         23    2    1    2    0    0  0.18622695042E+02  0.21529159719E+02 -0.90232117174E+02  0.13367623627E+03  0.94430883109E+02 0.  0.
        -11    1    3    3    0    0  0.30533599779E+02 -0.12198900126E+01  0.13164762331E+02  0.33273109478E+02  0.00000000000E+00 0.  1.
         11    1    3    3    0    0 -0.34606456989E+02 -0.41025811278E+02  0.10234228267E+03  0.11556239388E+03  0.00000000000E+00 0. -1.
        -13    1    4    4    0    0  0.20876717995E+02  0.45655299518E+02 -0.11777746734E+02  0.51565095234E+02  0.00000000000E+00 0.  1.
         13    1    4    4    0    0 -0.22540229533E+01 -0.24126139799E+02 -0.78454370441E+02  0.82111141036E+02  0.00000000000E+00 0. -1.
          2    1    1    2  501    0 -0.14549837831E+02  0.20716541571E+02 -0.54042306117E+02  0.59677832786E+02  0.00000000000E+00 0. -1.
<scales pt_clust_5="13000.00000" pt_clust_6="13000.00000" pt_clust_7="13000.00000" pt_clust_8="13000.00000" pt_clust_9="25.31547"></scales>
<clustering>
<clus scale="   25.315">  2  9  1 -1</clus>
<clus scale="   83.719">  5  6 -1 -1</clus>
<clus scale="   92.787">  1  5  2 -1</clus>
<clus scale="   94.431">  7  8 -1 -1</clus>
<clus scale="   25.315">  2  5  1 -1</clus>
</clustering>
</event>
<event>
 9    1  0.1445593E-005  0.1978156E+03  0.7546771E-02  0.1151908E+00
         -2   -1    0    0    0  501 -0.00000000000E+00  0.00000000000E+00  0.14350768111E+04  0.14350768111E+04  0.00000000000E+00 0.  1.
         21   -1    0    0  501  502  0.00000000000E+00 -0.00000000000E+00 -0.10684933184E+03  0.10684933184E+03  0.00000000000E+00 0.  1.
         23    2    1    2    0    0  0.10467462502E+03 -0.15407134534E+03  0.82763833217E+03  0.85318317319E+03  0.90783046652E+02 0.  0.
         23    2    1    2    0    0 -0.17310815830E+03  0.59092025650E+02  0.53048049395E+03  0.56792197706E+03  0.87564351203E+02 0.  0.
        -13    1    3    3    0    0  0.29475420277E+02 -0.11650081097E+03  0.55584436249E+03  0.56868637637E+03  0.00000000000E+00 0.  1.
         13    1    3    3    0    0  0.75199204738E+02 -0.37570534375E+02  0.27179396968E+03  0.28449679682E+03  0.00000000000E+00 0. -1.
        -13    1    4    4    0    0 -0.44413363111E+02  0.52246722077E+02  0.12661035429E+03  0.14398766824E+03  0.00000000000E+00 0. -1.
         13    1    4    4    0    0 -0.12869479519E+03  0.68453035732E+01  0.40387013966E+03  0.42393430883E+03  0.00000000000E+00 0.  1.
         -2    1    1    2    0  502  0.68433533282E+02  0.94979319692E+02 -0.29891346898E+02  0.12082099265E+03  0.00000000000E+00 0.  1.
<scales pt_clust_5="13000.00000" pt_clust_6="13000.00000" pt_clust_7="13000.00000" pt_clust_8="13000.00000" pt_clust_9="117.06502"></scales>
<clustering>
<clus scale="   87.564">  7  8 -1 -1</clus>
<clus scale="   90.783">  5  6 -1 -1</clus>
<clus scale="  117.065">  2  9  1 -1</clus>
<clus scale="  196.359">  2  7  1 -1</clus>
<clus scale="  117.065">  2  5  1 -1</clus>
</clustering>
</event>
<event>
 9    1  0.1445593E-005  0.1485583E+03  0.7546771E-02  0.1204183E+00
         -1   -1    0    0    0  501 -0.00000000000E+00  0.00000000000E+00  0.21350800199E+03  0.21350800199E+03  0.00000000000E+00 0.  1.
         21   -1    0    0  501  502  0.00000000000E+00 -0.00000000000E+00 -0.19183906917E+03  0.19183906917E+03  0.00000000000E+00 0. -1.
         23    2    1    2    0    0  0.39098687595E+02  0.10143978364E+03  0.12076897158E+03  0.18557179796E+03  0.89627064125E+02 0.  0.
         23    2    1    2    0    0 -0.70526739735E+02 -0.10072838629E+03 -0.10241822724E+03  0.18816453258E+03  0.98975599154E+02 0.  0.
        -11    1    3    3    0    0  0.46165524118E+02  0.74113169950E+02  0.12935745578E+03  0.15606847517E+03  0.00000000000E+00 0.  1.
         11    1    3    3    0    0 -0.70668365229E+01  0.27326613694E+02 -0.85884842016E+01  0.29503322784E+02  0.00000000000E+00 0. -1.
        -13    1    4    4    0    0 -0.72477575749E+01 -0.83312004868E+02 -0.26314581661E+02  0.87669135692E+02  0.00000000000E+00 0. -1.
         13    1    4    4    0    0 -0.63278982160E+02 -0.17416381421E+02 -0.76103645583E+02  0.10049539689E+03  0.00000000000E+00 0.  1.
         -1    1    1    2    0  502  0.31428052140E+02 -0.71139735398E+00  0.33181884881E+01  0.31610740617E+02  0.00000000000E+00 0.  1.
<scales pt_clust_5="13000.00000" pt_clust_6="13000.00000" pt_clust_7="13000.00000" pt_clust_8="13000.00000" pt_clust_9="31.43612"></scales>
<clustering>
<clus scale="   31.436">  2  9  1 -1</clus>
<clus scale="   89.627">  5  6 -1 -1</clus>
<clus scale="   98.976">  7  8 -1 -1</clus>
<clus scale="  142.501">  1  5  2 -1</clus>
<clus scale="   31.436">  2  5  1 -1</clus>
</clustering>
</event>
<event>
 9    1  0.1445593E-005  0.1246615E+03  0.7546771E-02  0.1236048E+00
         -3   -1    0    0    0  501 -0.00000000000E+00  0.00000000000E+00  0.25550090735E+03  0.25550090735E+03  0.00000000000E+00 0.  1.
         21   -1    0    0  501  502  0.00000000000E+00 -0.00000000000E+00 -0.25950401683E+03  0.25950401683E+03  0.00000000000E+00 0.  1.
         23    2    1    2    0    0 -0.89940452616E+02  0.18827870933E+02  0.20546126913E+03  0.24198989554E+03  0.88887584571E+02 0.  0.
         23    2    1    2    0    0  0.34351548934E+02 -0.47260712291E+02 -0.99813218960E+02  0.14683290039E+03  0.90463352338E+02 0.  0.
        -11    1    3    3    0    0 -0.59961276781E+02 -0.21294773258E+02  0.57429178216E+02  0.85714249643E+02  0.00000000000E+00 0. -1.
         11    1    3    3    0    0 -0.29979175835E+02  0.40122644192E+02  0.14803209091E+03  0.15627564590E+03  0.00000000000E+00 0.  1.
        -13    1    4    4    0    0  0.50423687482E+02 -0.64615953762E+02 -0.64351325722E+02  0.10420586769E+03  0.00000000000E+00 0. -1.
         13    1    4    4    0    0 -0.16072138548E+02  0.17355241472E+02 -0.35461893238E+02  0.42627032692E+02  0.00000000000E+00 0.  1.
         -3    1    1    2    0  502  0.55588903682E+02  0.28432841357E+02 -0.10965115964E+03  0.12618212826E+03  0.00000000000E+00 0.  1.
<scales pt_clust_5="13000.00000" pt_clust_6="13000.00000" pt_clust_7="13000.00000" pt_clust_8="13000.00000" pt_clust_9="62.43839"></scales>
<clustering>
<clus scale="   62.438">  2  9  1 -1</clus>
<clus scale="   88.888">  5  6 -1 -1</clus>
<clus scale="   90.463">  7  8 -1 -1</clus>
<clus scale="  123.523">  1  5  2 -1</clus>
<clus scale="   62.438">  2  5  1 -1</clus>
</clustering>
</event>
<event>
 9    1  0.1445593E-005  0.9980403E+02  0.7546771E-02  0.1283924E+00
         -1   -1    0    0    0  501 -0.00000000000E+00  0.00000000000E+00  0.14143960496E+02  0.14143960496E+02  0.00000000000E+00 0.  1.
         21   -1    0    0  501  502  0.00000000000E+00 -0.00000000000E+00 -0.10598103933E+04  0.10598103933E+04  0.00000000000E+00 0. -1.
         23    2    1    2    0    0  0.18850104682E+02  0.22199486587E+02 -0.32199311234E+03  0.33765326261E+03  0.97375652541E+02 0.  0.
         23    2    1    2    0    0 -0.23764918254E+02  0.15384009190E+02 -0.45231019828E+03  0.46230361194E+03  0.91316346132E+02 0.  0.
        -11    1    4    4    0    0  0.23933762994E+02 -0.23462655449E+02 -0.13617776275E+03  0.14024159254E+03  0.00000000000E+00 0.  1.
         11    1    4    4    0    0 -0.47698681248E+02  0.38846664639E+02 -0.31613243553E+03  0.32206201940E+03  0.00000000000E+00 0. -1.
        -13    1    3    3    0    0 -0.31528745316E+02 -0.15652515491E+02 -0.76636459251E+02  0.84333919089E+02  0.00000000000E+00 0.  1.
         13    1    3    3    0    0  0.50378849999E+02  0.37852002077E+02 -0.24535665309E+03  0.25331934352E+03  0.00000000000E+00 0. -1.
         -1    1    1    2    0  502  0.49148135715E+01 -0.37583495777E+02 -0.27136312222E+03  0.27399747928E+03  0.00000000000E+00 0.  1.
<scales pt_clust_5="13000.00000" pt_clust_6="13000.00000" pt_clust_7="13000.00000" pt_clust_8="13000.00000" pt_clust_9="37.90349"></scales>
<clustering>
<clus scale="   37.903">  2  9  1 -1</clus>
<clus scale="   91.316">  5  6 -1 -1</clus>
<clus scale="   93.902">  2  5  1 -1</clus>
<clus scale="   97.376">  7  8 -1 -1</clus>
<clus scale="   37.903">  2  5  1 -1</clus>
</clustering>
</event>
<event>
 9    1  0.1445593E-005  0.1319859E+03  0.7546771E-02  0.1226188E+00
          3   -1    0    0  502    0 -0.00000000000E+00  0.00000000000E+00  0.32828963724E+03  0.32828963724E+03  0.00000000000E+00 0. -1.
         21   -1    0    0  501  502  0.00000000000E+00 -0.00000000000E+00 -0.78745303567E+02  0.78745303567E+02  0.00000000000E+00 0.  1.
         23    2    1    2    0    0 -0.40402398970E+02 -0.66957681915E+02  0.10346733896E+03  0.15473127630E+03  0.84383604008E+02 0.  0.
         23    2    1    2    0    0  0.81784890587E+02  0.94869654800E+02  0.99459299980E+02  0.18400433577E+03  0.90974850924E+02 0.  0.
        -13    1    4    4    0    0  0.31211842954E+02  0.92702734823E+02  0.89147582075E+02  0.13234525898E+03  0.00000000000E+00 0.  1.
         13    1    4    4    0    0  0.50573047633E+02  0.21669199765E+01  0.10311717905E+02  0.51659076795E+02  0.00000000000E+00 0. -1.
        -13    1    3    3    0    0 -0.24909922923E+02 -0.44412548799E+02  0.11443989904E+03  0.12525761152E+03  0.00000000000E+00 0. -1.
         13    1    3    3    0    0 -0.15492476047E+02 -0.22545133116E+02 -0.10972560080E+02  0.29473664787E+02  0.00000000000E+00 0.  1.
          3    1    1    2  501    0 -0.41382491617E+02 -0.27911972885E+02  0.46617694735E+02  0.68299328731E+02  0.00000000000E+00 0. -1.
<scales pt_clust_5="13000.00000" pt_clust_6="13000.00000" pt_clust_7="13000.00000" pt_clust_8="13000.00000" pt_clust_9="49.91584"></scales>
<clustering>
<clus scale="   49.916">  2  9  1 -1</clus>
<clus scale="   84.384">  7  8 -1 -1</clus>
<clus scale="   90.975">  5  6 -1 -1</clus>
<clus scale="  127.532">  1  7  2 -1</clus>
<clus scale="   49.916">  2  5  1 -1</clus>
</clustering>
</event>
<event>
 9    1  0.1445593E-005  0.9145166E+02  0.7546771E-02  0.1299471E+00
         21   -1    0    0  501  502  0.00000000000E+00  0.00000000000E+00  0.57627490683E+02  0.57627490683E+02  0.00000000000E+00 0.  1.
          1   -1    0    0  502    0 -0.00000000000E+00 -0.00000000000E+00 -0.23028104741E+03  0.23028104741E+03  0.00000000000E+00 0. -1.
         23    2    1    2    0    0 -0.22360025141E+01  0.16772528464E+01 -0.14158015960E+03  0.16849822717E+03  0.91317567223E+02 0.  0.
         23    2    1    2    0    0 -0.18591196782E+02 -0.79910407482E+01 -0.27643203949E+02  0.97378461854E+02  0.91153325658E+02 0.  0.
        -11    1    4    4    0    0 -0.55107055361E+02 -0.10248314480E+02 -0.10717255403E+02  0.57067285406E+02  0.00000000000E+00 0. -1.
         11    1    4    4    0    0  0.36515858579E+02  0.22572737318E+01 -0.16925948546E+02  0.40311176448E+02  0.00000000000E+00 0.  1.
        -13    1    3    3    0    0 -0.38752840867E+02 -0.20148729315E+02 -0.99478958298E+02  0.10864537318E+03  0.00000000000E+00 0. -1.
         13    1    3    3    0    0  0.36516838352E+02  0.21825982161E+02 -0.42101201300E+02  0.59852853996E+02  0.00000000000E+00 0.  1.
          1    1    1    2  501    0  0.20827199296E+02  0.63137879018E+01 -0.34301931818E+01  0.22031849071E+02  0.00000000000E+00 0. -1.
<scales pt_clust_5="13000.00000" pt_clust_6="13000.00000" pt_clust_7="13000.00000" pt_clust_8="13000.00000" pt_clust_9="21.76318"></scales>
<clustering>
<clus scale="   21.763">  1  9  2 -1</clus>
<clus scale="   91.153">  5  6 -1 -1</clus>
<clus scale="   91.288">  1  5  2 -1</clus>
<clus scale="   91.318">  7  8 -1 -1</clus>
<clus scale="   21.763">  1  5  2 -1</clus>
</clustering>
</event>
<event>
 9    1  0.1445593E-005  0.1037962E+03  0.7546771E-02  0.1273481E+00
         21   -1    0    0  501  502  0.00000000000E+00  0.00000000000E+00  0.34457813260E+03  0.34457813260E+03  0.00000000000E+00 0.  1.
         -1   -1    0    0    0  501 -0.00000000000E+00 -0.00000000000E+00 -0.42726100941E+03  0.42726100941E+03  0.00000000000E+00 0.  1.
         23    2    1    2    0    0  0.19317711839E+02  0.34656481493E+02 -0.27475413072E+03  0.29187820476E+03  0.90159904431E+02 0.  0.
         23    2    1    2    0    0 -0.96571481866E+01 -0.71639539043E+02 -0.11869770914E+03  0.16685006004E+03  0.92327202466E+02 0.  0.
        -13    1    4    4    0    0 -0.42732526451E+02 -0.54271931545E+02 -0.10762574999E+03  0.12788593915E+03  0.00000000000E+00 0.  1.
         13    1    4    4    0    0  0.33075378264E+02 -0.17367607498E+02 -0.11071959146E+02  0.38964120891E+02  0.00000000000E+00 0. -1.
        -13    1    3    3    0    0  0.40554911128E+02  0.52639453146E+02 -0.15002856143E+03  0.16408589850E+03  0.00000000000E+00 0.  1.
         13    1    3    3    0    0 -0.21237199289E+02 -0.17982971653E+02 -0.12472556930E+03  0.12779230626E+03  0.00000000000E+00 0. -1.
         -1    1    1    2    0  502 -0.96605636523E+01  0.36983057550E+02  0.31076896305E+03  0.31311087722E+03  0.00000000000E+00 0.  1.
<scales pt_clust_5="13000.00000" pt_clust_6="13000.00000" pt_clust_7="13000.00000" pt_clust_8="13000.00000" pt_clust_9="38.22399"></scales>
<clustering>
<clus scale="   38.224">  1  9  2 -1</clus>
<clus scale="   90.160">  7  8 -1 -1</clus>
<clus scale="   92.327">  5  6 -1 -1</clus>
<clus scale="  101.873">  2  7  1 -1</clus>
<clus scale="   38.224">  1  5  2 -1</clus>
</clustering>
</event>
<event>
 9    1  0.1486112E-005  0.1180607E+03  0.7546771E-02  0.1248738E+00
         21   -1    0    0  501  502  0.00000000000E+00  0.00000000000E+00  0.18533232178E+03  0.18533232178E+03  0.00000000000E+00 0.  1.
          1   -1    0    0  502    0 -0.00000000000E+00 -0.00000000000E+00 -0.36387038450E+03  0.36387038450E+03  0.00000000000E+00 0. -1.
         23    2    1    2    0    0  0.13377565414E+02  0.74101570076E+02 -0.31709160374E+03  0.33663083566E+03  0.84280676406E+02 0.  0.
         23    2    1    2    0    0  0.28813671765E+02 -0.69118912017E+02  0.10863261110E+03  0.16060852370E+03  0.91577300750E+02 0.  0.
        -13    1    3    3    0    0 -0.10879507625E+02  0.84102158388E+02 -0.21244965315E+03  0.22874962701E+03  0.00000000000E+00 0.  1.
         13    1    3    3    0    0  0.24257073039E+02 -0.10000588312E+02 -0.10464195059E+03  0.10788120866E+03  0.00000000000E+00 0. -1.
        -13    1    4    4    0    0 -0.29323001752E+01 -0.57985564122E+02  0.11264612534E+03  0.12672834563E+03  0.00000000000E+00 0.  1.
         13    1    4    4    0    0  0.31745971940E+02 -0.11133347895E+02 -0.40135142431E+01  0.33880178075E+02  0.00000000000E+00 0. -1.
          1    1    1    2  501    0 -0.42191237180E+02 -0.49826580596E+01  0.29920929916E+02  0.51963346920E+02  0.00000000000E+00 0. -1.
<scales pt_clust_5="13000.00000" pt_clust_6="13000.00000" pt_clust_7="13000.00000" pt_clust_8="13000.00000" pt_clust_9="42.48444"></scales>
<clustering>
<clus scale="   42.484">  1  9  2 -1</clus>
<clus scale="   84.281">  5  6 -1 -1</clus>
<clus scale="   91.577">  7  8 -1 -1</clus>
<clus scale="  112.495">  2  5  1 -1</clus>
<clus scale="   42.484">  1  5  2 -1</clus>
</clustering>
</event>
<event>
 9    1  0.1445593E-005  0.1065178E+03  0.7546771E-02  0.1267939E+00
          2   -1    0    0  502    0 -0.00000000000E+00  0.00000000000E+00  0.20055507901E+03  0.20055507901E+03  0.00000000000E+00 0. -1.
         21   -1    0    0  501  502  0.00000000000E+00 -0.00000000000E+00 -0.16535616858E+03  0.16535616858E+03  0.00000000000E+00 0.  1.
         23    2    1    2    0    0 -0.32480207939E+02  0.22455876929E+02  0.91563636553E+02  0.13641899848E+03  0.93096795284E+02 0.  0.
         23    2    1    2    0    0  0.53191831077E+02 -0.53552164817E+02  0.40905792285E+02  0.12529290072E+03  0.91256900440E+02 0.  0.
        -11    1    4    4    0    0  0.29789266580E+02 -0.76652051488E+02  0.15374249063E+02  0.83661848743E+02  0.00000000000E+00 0.  1.
         11    1    4    4    0    0  0.23402564496E+02  0.23099886671E+02  0.25531543222E+02  0.41631051975E+02  0.00000000000E+00 0. -1.
        -13    1    3    3    0    0  0.14998178947E+02  0.23656290888E+02  0.83720905576E+02  0.88282249070E+02  0.00000000000E+00 0. -1.
         13    1    3    3    0    0 -0.47478386886E+02 -0.12004139589E+01  0.78427309764E+01  0.48136749414E+02  0.00000000000E+00 0.  1.
          2    1    1    2  501    0 -0.20711623138E+02  0.31096287888E+02 -0.97270518408E+02  0.10419934839E+03  0.00000000000E+00 0. -1.
<scales pt_clust_5="13000.00000" pt_clust_6="13000.00000" pt_clust_7="13000.00000" pt_clust_8="13000.00000" pt_clust_9="37.36242"></scales>
<clustering>
<clus scale="   37.362">  2  9  1 -1</clus>
<clus scale="   91.257">  5  6 -1 -1</clus>
<clus scale="   93.097">  7  8 -1 -1</clus>
<clus scale="  104.914">  2  5  1 -1</clus>
<clus scale="   37.362">  2  5  1 -1</clus>
</clustering>
</event>
<event>
 9    1  0.1445593E-005  0.2000244E+03  0.7546771E-02  0.1149726E+00
         -2   -1    0    0    0  501 -0.00000000000E+00  0.00000000000E+00  0.39473216936E+03  0.39473216936E+03  0.00000000000E+00 0.  1.
         21   -1    0    0  501  502  0.00000000000E+00 -0.00000000000E+00 -0.13727299705E+03  0.13727299705E+03  0.00000000000E+00 0.  1.
         23    2    1    2    0    0  0.19204263663E+03  0.53090017070E+02  0.16925475460E+03  0.27697303356E+03  0.91476582651E+02 0.  0.
         23    2    1    2    0    0 -0.14409344725E+03 -0.35825053143E+02  0.28857833390E+02  0.17680668422E+03  0.91550385390E+02 0.  0.
        -11    1    4    4    0    0 -0.10364756775E+03 -0.65645442664E+02  0.30885946237E+02  0.12651515371E+03  0.00000000000E+00 0. -1.
         11    1    4    4    0    0 -0.40445879499E+02  0.29820389522E+02 -0.20281128473E+01  0.50291530513E+02  0.00000000000E+00 0.  1.
        -13    1    3    3    0    0  0.14194386283E+03  0.53230574747E+01  0.76799788480E+02  0.16147632225E+03  0.00000000000E+00 0.  1.
         13    1    3    3    0    0  0.50098773790E+02  0.47766959595E+02  0.92454966117E+02  0.11549671131E+03  0.00000000000E+00 0. -1.
         -2    1    1    2    0  502 -0.47949189374E+02 -0.17264963927E+02  0.59346584323E+02  0.78225448620E+02  0.00000000000E+00 0.  1.
<scales pt_clust_5="13000.00000" pt_clust_6="13000.00000" pt_clust_7="13000.00000" pt_clust_8="13000.00000" pt_clust_9="50.96279"></scales>
<clustering>
<clus scale="   50.963">  2  9  1 -1</clus>
<clus scale="   91.477">  7  8 -1 -1</clus>
<clus scale="   91.550">  5  6 -1 -1</clus>
<clus scale="  199.991">  1  7  2 -1</clus>
<clus scale="   50.963">  2  5  1 -1</clus>
</clustering>
</event>
<event>
 9    1  0.1445593E-005  0.1102445E+03  0.7546771E-02  0.1260261E+00
         21   -1    0    0  501  502  0.00000000000E+00  0.00000000000E+00  0.14355509078E+03  0.14355509078E+03  0.00000000000E+00 0.  1.
         -1   -1    0    0    0  501 -0.00000000000E+00 -0.00000000000E+00 -0.18406063641E+03  0.18406063641E+03  0.00000000000E+00 0.  1.
         23    2    1    2    0    0 -0.50781612063E+02 -0.28490397891E+02 -0.50149848810E+02  0.11903416793E+03  0.90904625308E+02 0.  0.
         23    2    1    2    0    0  0.18042977709E+02  0.76711297928E+02 -0.44975154178E+02  0.12870441296E+03  0.91279182445E+02 0.  0.
        -11    1    4    4    0    0  0.10300482928E+02  0.19479527646E+02 -0.64167709109E+02  0.67845757702E+02  0.00000000000E+00 0.  1.
         11    1    4    4    0    0  0.77424947812E+01  0.57231770283E+02  0.19192554931E+02  0.60858655259E+02  0.00000000000E+00 0. -1.
        -11    1    3    3    0    0 -0.71370827967E+02  0.15422049525E+01 -0.36196006322E+02  0.80039517455E+02  0.00000000000E+00 0.  1.
         11    1    3    3    0    0  0.20589215904E+02 -0.30032602844E+02 -0.13953842488E+02  0.38994650470E+02  0.00000000000E+00 0. -1.
         -1    1    1    2    0  502  0.32738634353E+02 -0.48220900037E+02  0.54619457361E+02  0.79877146306E+02  0.00000000000E+00 0.  1.
<scales pt_clust_5="13000.00000" pt_clust_6="13000.00000" pt_clust_7="13000.00000" pt_clust_8="13000.00000" pt_clust_9="58.28442"></scales>
<clustering>
<clus scale="   58.284">  1  9  2 -1</clus>
<clus scale="   90.905">  7  8 -1 -1</clus>
<clus scale="   91.279">  5  6 -1 -1</clus>
<clus scale="  109.935">  2  7  1 -1</clus>
<clus scale="   58.284">  1  5  2 -1</clus>
</clustering>
</event>
<event>
 9    1  0.1445593E-005  0.1068192E+03  0.7546771E-02  0.1267771E+00
          1   -1    0    0  502    0 -0.00000000000E+00  0.00000000000E+00  0.14609837902E+03  0.14609837902E+03  0.00000000000E+00 0. -1.
         21   -1    0    0  501  502  0.00000000000E+00 -0.00000000000E+00 -0.29539607800E+03  0.29539607800E+03  0.00000000000E+00 0. -1.
         23    2    1    2    0    0 -0.24222765813E+02 -0.34145530433E+02  0.65260669911E+02  0.11922477129E+03  0.90570035992E+02 0.  0.
         23    2    1    2    0    0  0.56950156182E+02  0.55408262803E+02 -0.20487716110E+02  0.12431361954E+03  0.93384868238E+02 0.  0.
        -11    1    3    3    0    0  0.18719494925E+02 -0.35983833315E+02 -0.61586560678E+00  0.40566427507E+02  0.00000000000E+00 0.  1.
         11    1    3    3    0    0 -0.42942260737E+02  0.18383028821E+01  0.65876535518E+02  0.78658343782E+02  0.00000000000E+00 0. -1.
        -13    1    4    4    0    0  0.40497122036E+02  0.30375904487E+00 -0.46097832160E+02  0.61360567897E+02  0.00000000000E+00 0.  1.
         13    1    4    4    0    0  0.16453034146E+02  0.55104503759E+02  0.25610116051E+02  0.62953051644E+02  0.00000000000E+00 0. -1.
          1    1    1    2  501    0 -0.32727390370E+02 -0.21262732371E+02 -0.19407065279E+03  0.19795606619E+03  0.00000000000E+00 0. -1.
<scales pt_clust_5="13000.00000" pt_clust_6="13000.00000" pt_clust_7="13000.00000" pt_clust_8="13000.00000" pt_clust_9="39.02801"></scales>
<clustering>
<clus scale="   39.028">  2  9  1 -1</clus>
<clus scale="   90.570">  5  6 -1 -1</clus>
<clus scale="   93.385">  7  8 -1 -1</clus>
<clus scale="  104.367">  1  5  2 -1</clus>
<clus scale="   39.028">  2  5  1 -1</clus>
</clustering>
</event>
<event>
 9    1  0.1445593E-005  0.1016437E+03  0.7546771E-02  0.1277989E+00
         21   -1    0    0  501  502  0.00000000000E+00  0.00000000000E+00  0.58210476030E+03  0.58210476030E+03  0.00000000000E+00 0. -1.
          4   -1    0    0  502    0 -0.00000000000E+00 -0.00000000000E+00 -0.84388880056E+02  0.84388880056E+02  0.00000000000E+00 0. -1.
         23    2    1    2    0    0 -0.14021786157E+02 -0.39978221382E+02  0.24095839890E+01  0.10199134578E+03  0.92744594703E+02 0.  0.
         23    2    1    2    0    0  0.63608869729E+02  0.33790238461E+01  0.61890909068E+02  0.12672692071E+03  0.90397575720E+02 0.  0.
        -11    1    3    3    0    0 -0.39067541646E+02 -0.58643333661E+02 -0.17055800837E+01  0.70485618367E+02  0.00000000000E+00 0. -1.
         11    1    3    3    0    0  0.25045755489E+02  0.18665112279E+02  0.41151640728E+01  0.31505727411E+02  0.00000000000E+00 0.  1.
        -11    1    4    4    0    0  0.70059177799E+02  0.34777200867E+02  0.48175564510E+02  0.91862000359E+02  0.00000000000E+00 0.  1.
         11    1    4    4    0    0 -0.64503080705E+01 -0.31398177021E+02  0.13715344557E+02  0.34864920347E+02  0.00000000000E+00 0. -1.
          4    1    1    2  501    0 -0.49587083572E+02  0.36599197536E+02  0.43341538719E+03  0.43777537387E+03  0.00000000000E+00 0. -1.
<scales pt_clust_5="13000.00000" pt_clust_6="13000.00000" pt_clust_7="13000.00000" pt_clust_8="13000.00000" pt_clust_9="61.63100"></scales>
<clustering>
<clus scale="   61.631">  1  9  2 -1</clus>
<clus scale="   90.398">  7  8 -1 -1</clus>
<clus scale="   92.745">  5  6 -1 -1</clus>
<clus scale="   99.507">  1  7  2 -1</clus>
<clus scale="   61.631">  1  5  2 -1</clus>
</clustering>
</event>
<event>
 9    1  0.1445593E-005  0.9166647E+02  0.7546771E-02  0.1299164E+00
          1   -1    0    0  502    0 -0.00000000000E+00  0.00000000000E+00  0.74313134310E+03  0.74313134310E+03  0.00000000000E+00 0. -1.
         21   -1    0    0  501  502  0.00000000000E+00 -0.00000000000E+00 -0.25182559009E+02  0.25182559009E+02  0.00000000000E+00 0. -1.
         23    2    1    2    0    0 -0.41401618250E+02  0.20521300953E+02  0.31671654213E+03  0.33263002241E+03  0.90543613594E+02 0.  0.
         23    2    1    2    0    0 -0.22652740648E+02  0.12832341490E+02  0.26635968723E+03  0.28269357812E+03  0.91051416695E+02 0.  0.
        -13    1    4    4    0    0  0.30360520612E+02  0.25621370322E+02  0.99016195414E+02  0.10668843791E+03  0.00000000000E+00 0.  1.
         13    1    4    4    0    0 -0.53013261260E+02 -0.12789028832E+02  0.16734349181E+03  0.17600514021E+03  0.00000000000E+00 0. -1.
        -13    1    3    3    0    0 -0.42466445644E+02 -0.23768290295E+02  0.97370274715E+02  0.10885449475E+03  0.00000000000E+00 0.  1.
         13    1    3    3    0    0  0.10648273943E+01  0.44289591248E+02  0.21934626742E+03  0.22377552766E+03  0.00000000000E+00 0. -1.
          1    1    1    2  501    0  0.64054358898E+02 -0.33353642444E+02  0.13487255473E+03  0.15299030158E+03  0.00000000000E+00 0. -1.
<scales pt_clust_5="13000.00000" pt_clust_6="13000.00000" pt_clust_7="13000.00000" pt_clust_8="13000.00000" pt_clust_9="72.21791"></scales>
<clustering>
<clus scale="   72.218">  2  9  1 -1</clus>
<clus scale="   90.544">  7  8 -1 -1</clus>
<clus scale="   91.051">  5  6 -1 -1</clus>
<clus scale="   91.162">  1  7  2 -1</clus>
<clus scale="   72.218">  2  5  1 -1</clus>
</clustering>
</event>
<event>
 9    1  0.1445593E-005  0.1141036E+03  0.7546771E-02  0.1253370E+00
         21   -1    0    0  501  502  0.00000000000E+00  0.00000000000E+00  0.69183882398E+02  0.69183882398E+02  0.00000000000E+00 0.  1.
          4   -1    0    0  502    0 -0.00000000000E+00 -0.00000000000E+00 -0.63656274306E+03  0.63656274306E+03  0.00000000000E+00 0. -1.
         23    2    1    2    0    0  0.42131132323E+02  0.53268613733E+02 -0.50321315267E+03  0.51593996691E+03  0.91422070143E+02 0.  0.
         23    2    1    2    0    0 -0.17561167470E+02 -0.76346683574E+02 -0.30045223071E+01  0.11997134432E+03  0.90812364835E+02 0.  0.
        -11    1    4    4    0    0  0.24855003615E+02 -0.14829037749E+01  0.18808512206E+02  0.31204652533E+02  0.00000000000E+00 0.  1.
         11    1    4    4    0    0 -0.42416171085E+02 -0.74863779799E+02 -0.21813034513E+02  0.88766691782E+02  0.00000000000E+00 0. -1.
        -13    1    3    3    0    0 -0.77066975239E+01 -0.21864209353E+02 -0.83939429497E+02  0.87081942225E+02  0.00000000000E+00 0.  1.
         13    1    3    3    0    0  0.49837829847E+02  0.75132823085E+02 -0.41927372317E+03  0.42885802468E+03  0.00000000000E+00 0. -1.
          4    1    1    2  501    0 -0.24569964853E+02  0.23078069841E+02 -0.61161185688E+02  0.69835314241E+02  0.00000000000E+00 0. -1.
<scales pt_clust_5="13000.00000" pt_clust_6="13000.00000" pt_clust_7="13000.00000" pt_clust_8="13000.00000" pt_clust_9="33.70878"></scales>
<clustering>
<clus scale="   33.709">  1  9  2 -1</clus>
<clus scale="   90.812">  5  6 -1 -1</clus>
<clus scale="   91.422">  7  8 -1 -1</clus>
<clus scale="  113.616">  1  5  2 -1</clus>
<clus scale="   33.709">  1  5  2 -1</clus>
</clustering>
</event>
<event>
 9    1  0.1445593E-005  0.9457058E+02  0.7546771E-02  0.1293062E+00
         21   -1    0    0  501  502  0.00000000000E+00  0.00000000000E+00  0.94886097660E+02  0.94886097660E+02  0.00000000000E+00 0.  1.
         -3   -1    0    0    0  501 -0.00000000000E+00 -0.00000000000E+00 -0.44848717508E+03  0.44848717508E+03  0.00000000000E+00 0.  1.
         23    2    1    2    0    0  0.21278746477E+02 -0.19951675470E+02 -0.30269336636E+03  0.31753269998E+03  0.91394130605E+02 0.  0.
         23    2    1    2    0    0 -0.36639019315E+02 -0.71738707640E+02 -0.56394278510E+02  0.13271073458E+03  0.89123310725E+02 0.  0.
        -11    1    4    4    0    0  0.12525221596E+02 -0.37822503346E+02 -0.60941452721E+02  0.72809914127E+02  0.00000000000E+00 0.  1.
         11    1    4    4    0    0 -0.49164240910E+02 -0.33916204293E+02  0.45471742107E+01  0.59900820456E+02  0.00000000000E+00 0. -1.
        -13    1    3    3    0    0 -0.34293103335E+02 -0.16883919123E+02 -0.15658028942E+03  0.16117838160E+03  0.00000000000E+00 0. -1.
         13    1    3    3    0    0  0.55571849813E+02 -0.30677563468E+01 -0.14611307695E+03  0.15635431838E+03  0.00000000000E+00 0.  1.
         -3    1    1    2    0  502  0.15360272837E+02  0.91690383109E+02  0.54865674568E+01  0.93129838177E+02  0.00000000000E+00 0.  1.
<scales pt_clust_5="13000.00000" pt_clust_6="13000.00000" pt_clust_7="13000.00000" pt_clust_8="13000.00000" pt_clust_9="92.96808"></scales>
<clustering>
<clus scale="   89.123">  5  6 -1 -1</clus>
<clus scale="   91.394">  7  8 -1 -1</clus>
<clus scale="   92.968">  1  9  2 -1</clus>
<clus scale="   92.968">  1  5  2 -1</clus>
<clus scale="   92.968">  1  5  2 -1</clus>
</clustering>
</event>
<event>
 9    1  0.1445593E-005  0.1880675E+03  0.7546771E-02  0.1160276E+00
         -1   -1    0    0    0  501 -0.00000000000E+00  0.00000000000E+00  0.27235064814E+03  0.27235064814E+03  0.00000000000E+00 0.  1.
         21   -1    0    0  501  502  0.00000000000E+00 -0.00000000000E+00 -0.17829389497E+03  0.17829389497E+03  0.00000000000E+00 0.  1.
         23    2    1    2    0    0 -0.14512992351E+03  0.46360359945E+02  0.25502255025E+02  0.17959140161E+03  0.91600921649E+02 0.  0.
         23    2    1    2    0    0  0.14568681796E+03 -0.10643184487E+03  0.55376133176E+02  0.20955059898E+03  0.91063444250E+02 0.  0.
        -11    1    4    4    0    0  0.39389958487E+02 -0.64413277083E+02  0.58018479181E+02  0.95219656693E+02  0.00000000000E+00 0. -1.
         11    1    4    4    0    0  0.10629685947E+03 -0.42018567789E+02 -0.26423460050E+01  0.11433094229E+03  0.00000000000E+00 0.  1.
        -13    1    3    3    0    0 -0.26956551230E+02  0.50098460434E+02  0.22911197369E+02  0.61330533644E+02  0.00000000000E+00 0. -1.
         13    1    3    3    0    0 -0.11817337228E+03 -0.37381004890E+01  0.25910576557E+01  0.11826086796E+03  0.00000000000E+00 0.  1.
         -1    1    1    2    0  502 -0.55689444364E+00  0.60071484927E+02  0.13178364964E+02  0.61502542515E+02  0.00000000000E+00 0.  1.
<scales pt_clust_5="13000.00000" pt_clust_6="13000.00000" pt_clust_7="13000.00000" pt_clust_8="13000.00000" pt_clust_9="60.07410"></scales>
<clustering>
<clus scale="   60.074">  2  9  1 -1</clus>
<clus scale="   91.063">  5  6 -1 -1</clus>
<clus scale="   91.601">  7  8 -1 -1</clus>
<clus scale="  187.806">  2  5  1 -1</clus>
<clus scale="   60.074">  2  5  1 -1</clus>
</clustering>
</event>
<event>
 9    1  0.1445593E-005  0.1114405E+03  0.7546771E-02  0.1260386E+00
         21   -1    0    0  501  502  0.00000000000E+00  0.00000000000E+00  0.12480127780E+03  0.12480127780E+03  0.00000000000E+00 0.  1.
          1   -1    0    0  502    0 -0.00000000000E+00 -0.00000000000E+00 -0.30005466433E+03  0.30005466433E+03  0.00000000000E+00 0. -1.
         23    2    1    2    0    0  0.60151150258E+02  0.18295007313E+02 -0.20711298061E+03  0.23354888575E+03  0.87729283190E+02 0.  0.
         23    2    1    2    0    0 -0.49556261772E+02  0.40669241770E+02  0.55848930421E+02  0.12677394402E+03  0.94035735480E+02 0.  0.
        -13    1    4    4    0    0  0.25582718346E+02  0.23950756098E+02  0.28202796515E+02  0.44983462816E+02  0.00000000000E+00 0. -1.
         13    1    4    4    0    0 -0.75138980118E+02  0.16718485671E+02  0.27646133906E+02  0.81790481208E+02  0.00000000000E+00 0.  1.
        -13    1    3    3    0    0  0.52270212655E+02  0.51515701356E+02 -0.13172177327E+03  0.15078683023E+03  0.00000000000E+00 0. -1.
         13    1    3    3    0    0  0.78809376029E+01 -0.33220694044E+02 -0.75391207330E+02  0.82762055514E+02  0.00000000000E+00 0.  1.
          1    1    1    2  501    0 -0.10594888486E+02 -0.58964249082E+02 -0.23989336351E+02  0.64533112357E+02  0.00000000000E+00 0. -1.
<scales pt_clust_5="13000.00000" pt_clust_6="13000.00000" pt_clust_7="13000.00000" pt_clust_8="13000.00000" pt_clust_9="59.90855"></scales>
<clustering>
<clus scale="   59.909">  1  9  2 -1</clus>
<clus scale="   87.729">  7  8 -1 -1</clus>
<clus scale="   94.036">  5  6 -1 -1</clus>
<clus scale="  106.173">  2  7  1 -1</clus>
<clus scale="   59.909">  1  5  2 -1</clus>
</clustering>
</event>
<event>
 9    1  0.1445593E-005  0.9794782E+02  0.7546771E-02  0.1286052E+00
          2   -1    0    0  502    0 -0.00000000000E+00  0.00000000000E+00  0.30879217513E+03  0.30879217513E+03  0.00000000000E+00 0. -1.
         21   -1    0    0  501  502  0.00000000000E+00 -0.00000000000E+00 -0.44099451643E+02  0.44099451643E+02  0.00000000000E+00 0.  1.
         23    2    1    2    0    0  0.34020510090E+02  0.22235659219E+02  0.14101031569E+03  0.17204392353E+03  0.89796340936E+02 0.  0.
         23    2    1    2    0    0 -0.94240574126E+01 -0.24905053639E+02  0.12290687248E+03  0.15609467098E+03  0.92468223999E+02 0.  0.
        -11    1    3    3    0    0  0.41192439795E+02 -0.13966065352E+02  0.12399967462E+03  0.13140695333E+03  0.00000000000E+00 0.  1.
         11    1    3    3    0    0 -0.71719297048E+01  0.36201724571E+02  0.17010641071E+02  0.40636970203E+02  0.00000000000E+00 0. -1.
        -13    1    4    4    0    0 -0.15201402015E+02  0.32983996727E+02  0.33393250690E+02  0.49336962361E+02  0.00000000000E+00 0.  1.
         13    1    4    4    0    0  0.57773446029E+01 -0.57889050366E+02  0.89513621795E+02  0.10675770862E+03  0.00000000000E+00 0. -1.
          2    1    1    2  501    0 -0.24596452677E+02  0.26693944195E+01  0.77553530706E+00  0.24753032257E+02  0.00000000000E+00 0. -1.
<scales pt_clust_5="13000.00000" pt_clust_6="13000.00000" pt_clust_7="13000.00000" pt_clust_8="13000.00000" pt_clust_9="24.74088"></scales>
<clustering>
<clus scale="   24.741">  2  9  1 -1</clus>
<clus scale="   89.796">  5  6 -1 -1</clus>
<clus scale="   92.468">  7  8 -1 -1</clus>
<clus scale="   95.429">  1  5  2 -1</clus>
<clus scale="   24.741">  2  5  1 -1</clus>
</clustering>
</event>
<event>
 9    1  0.1445593E-005  0.1027151E+03  0.7546771E-02  0.1278534E+00
         21   -1    0    0  501  502  0.00000000000E+00  0.00000000000E+00  0.45230913254E+02  0.45230913254E+02  0.00000000000E+00 0.  1.
          2   -1    0    0  502    0 -0.00000000000E+00 -0.00000000000E+00 -0.56537382740E+03  0.56537382740E+03  0.00000000000E+00 0. -1.
         23    2    1    2    0    0 -0.29912074799E+01 -0.43843587914E+02 -0.38792654686E+03  0.40004739859E+03  0.87290937894E+02 0.  0.
         23    2    1    2    0    0 -0.16156944508E+02  0.25045067725E+02 -0.14870174522E+03  0.17906442586E+03  0.95202716885E+02 0.  0.
        -13    1    4    4    0    0  0.59690359398E+01  0.25421326016E+02 -0.15409145285E+03  0.15628835224E+03  0.00000000000E+00 0. -1.
         13    1    4    4    0    0 -0.22125980448E+02 -0.37625829039E+00  0.53897076230E+01  0.22776073615E+02  0.00000000000E+00 0.  1.
        -13    1    3    3    0    0  0.81986563384E+01 -0.68217059935E+02 -0.31336884708E+03  0.32081274842E+03  0.00000000000E+00 0.  1.
         13    1    3    3    0    0 -0.11189863818E+02  0.24373472021E+02 -0.74557699782E+02  0.79234650169E+02  0.00000000000E+00 0. -1.
          2    1    1    2  501    0  0.19148151988E+02  0.18798520189E+02  0.16485377931E+02  0.31492916209E+02  0.00000000000E+00 0. -1.
<scales pt_clust_5="13000.00000" pt_clust_6="13000.00000" pt_clust_7="13000.00000" pt_clust_8="13000.00000" pt_clust_9="26.83349"></scales>
<clustering>
<clus scale="   26.833">  1  9  2 -1</clus>
<clus scale="   87.291">  7  8 -1 -1</clus>
<clus scale="   95.203">  5  6 -1 -1</clus>
<clus scale="   95.428">  2  7  1 -1</clus>
<clus scale="   26.833">  1  5  2 -1</clus>
</clustering>
</event>
<event>
 9    1  0.1445593E-005  0.1064973E+03  0.7546771E-02  0.1268520E+00
         21   -1    0    0  501  502  0.00000000000E+00  0.00000000000E+00  0.63782726483E+02  0.63782726483E+02  0.00000000000E+00 0. -1.
          2   -1    0    0  502    0 -0.00000000000E+00 -0.00000000000E+00 -0.54160316385E+03  0.54160316385E+03  0.00000000000E+00 0. -1.
         23    2    1    2    0    0  0.29379995425E+02  0.30803156078E+02 -0.26420041877E+03  0.28169634521E+03  0.87971308235E+02 0.  0.
         23    2    1    2    0    0 -0.42756518786E+02 -0.83188542590E+02 -0.23404923972E+03  0.26589237242E+03  0.84683254447E+02 0.  0.
        -11    1    3    3    0    0  0.60260809172E+01  0.59550837190E+02 -0.14480420257E+03  0.15668718181E+03  0.00000000000E+00 0.  1.
         11    1    3    3    0    0  0.23353914507E+02 -0.28747681112E+02 -0.11939621620E+03  0.12500916340E+03  0.00000000000E+00 0. -1.
        -11    1    4    4    0    0 -0.20934674838E+02 -0.88834383292E+02 -0.22265721644E+03  0.24063674761E+03  0.00000000000E+00 0. -1.
         11    1    4    4    0    0 -0.21821843948E+02  0.56458407029E+01 -0.11392023275E+02  0.25255624816E+02  0.00000000000E+00 0.  1.
          2    1    1    2  501    0  0.13376523362E+02  0.52385386512E+02  0.20429221113E+02  0.57797172703E+02  0.00000000000E+00 0. -1.
<scales pt_clust_5="13000.00000" pt_clust_6="13000.00000" pt_clust_7="13000.00000" pt_clust_8="13000.00000" pt_clust_9="54.06626"></scales>
<clustering>
<clus scale="   54.066">  1  9  2 -1</clus>
<clus scale="   84.683">  7  8 -1 -1</clus>
<clus scale="   87.971">  5  6 -1 -1</clus>
<clus scale="  103.798">  1  7  2 -1</clus>
<clus scale="   54.066">  1  5  2 -1</clus>
</clustering>
</event>
<event>
 9    1  0.1445593E-005  0.1002863E+03  0.7546771E-02  0.1283469E+00
         -3   -1    0    0    0  501 -0.00000000000E+00  0.00000000000E+00  0.23202117344E+03  0.23202117344E+03  0.00000000000E+00 0.  1.
         21   -1    0    0  501  502  0.00000000000E+00 -0.00000000000E+00 -0.20601817464E+03  0.20601817464E+03  0.00000000000E+00 0.  1.
         23    2    1    2    0    0  0.25757944396E+02 -0.27090188826E+02  0.11950824584E+03  0.15972116483E+03  0.99152809543E+02 0.  0.
         23    2    1    2    0    0  0.88859271528E+00 -0.22566299014E+02  0.61724801082E+02  0.11317529796E+03  0.92133976096E+02 0.  0.
        -11    1    3    3    0    0  0.60531990175E+02 -0.21032793375E+02  0.10164936198E+03  0.12016277719E+03  0.00000000000E+00 0.  1.
         11    1    3    3    0    0 -0.34774045779E+02 -0.60573954509E+01  0.17858883855E+02  0.39558387631E+02  0.00000000000E+00 0. -1.
        -11    1    4    4    0    0 -0.43119349950E+02 -0.67640947243E+01  0.47027380755E+02  0.64160781310E+02  0.00000000000E+00 0. -1.
         11    1    4    4    0    0  0.44007942666E+02 -0.15802204290E+02  0.14697420327E+02  0.49014516649E+02  0.00000000000E+00 0.  1.
         -3    1    1    2    0  502 -0.26646537111E+02  0.49656487840E+02 -0.15523004812E+03  0.16514288529E+03  0.00000000000E+00 0.  1.
<scales pt_clust_5="13000.00000" pt_clust_6="13000.00000" pt_clust_7="13000.00000" pt_clust_8="13000.00000" pt_clust_9="56.35428"></scales>
<clustering>
<clus scale="   56.354">  2  9  1 -1</clus>
<clus scale="   92.134">  7  8 -1 -1</clus>
<clus scale="   93.353">  2  7  1 -1</clus>
<clus scale="   99.153">  5  6 -1 -1</clus>
<clus scale="   56.354">  2  5  1 -1</clus>
</clustering>
</event>
<event>
 9    1  0.1445593E-005  0.1604391E+03  0.7546771E-02  0.1202908E+00
         21   -1    0    0  501  502  0.00000000000E+00  0.00000000000E+00  0.11724309976E+03  0.11724309976E+03  0.00000000000E+00 0.  1.
          2   -1    0    0  502    0 -0.00000000000E+00 -0.00000000000E+00 -0.49446785671E+03  0.49446785671E+03  0.00000000000E+00 0. -1.
         23    2    1    2    0    0 -0.64345793131E+02  0.26345145023E+02 -0.17600961171E+03  0.21095542191E+03  0.93211366577E+02 0.  0.
         23    2    1    2    0    0  0.12169282166E+03 -0.13211999066E+03 -0.19484699574E+03  0.28026672604E+03  0.91209929266E+02 0.  0.
        -11    1    3    3    0    0 -0.37208769493E+02 -0.11183591372E+02 -0.12197842713E+02  0.40722875758E+02  0.00000000000E+00 0.  1.
         11    1    3    3    0    0 -0.27137023638E+02  0.37528736395E+02 -0.16381176900E+03  0.17023254615E+03  0.00000000000E+00 0. -1.
        -13    1    4    4    0    0  0.28998326541E+02 -0.98713696256E+02 -0.96751144715E+02  0.14123059433E+03  0.00000000000E+00 0.  1.
         13    1    4    4    0    0  0.92694495119E+02 -0.33406294406E+02 -0.98095851028E+02  0.13903613171E+03  0.00000000000E+00 0. -1.
          2    1    1    2  501    0 -0.57347028530E+02  0.10577484564E+03 -0.63681494883E+01  0.12048880852E+03  0.00000000000E+00 0. -1.
<scales pt_clust_5="13000.00000" pt_clust_6="13000.00000" pt_clust_7="13000.00000" pt_clust_8="13000.00000" pt_clust_9="131.99031"></scales>
<clustering>
<clus scale="   91.210">  7  8 -1 -1</clus>
<clus scale="   93.211">  5  6 -1 -1</clus>
<clus scale="  116.288">  2  5  1 -1</clus>
<clus scale="  131.990">  1  9  2 -1</clus>
<clus scale="  131.990">  1  5  2 -1</clus>
</clustering>
</event>
<event>
 9    1  0.1445593E-005  0.1205835E+03  0.7546771E-02  0.1242801E+00
          1   -1    0    0  502    0 -0.00000000000E+00  0.00000000000E+00  0.56568293840E+03  0.56568293840E+03  0.00000000000E+00 0. -1.
         21   -1    0    0  501  502  0.00000000000E+00 -0.00000000000E+00 -0.72176179385E+02  0.72176179385E+02  0.00000000000E+00 0.  1.
         23    2    1    2    0    0 -0.53435549911E+02  0.55336292617E+02  0.37734753833E+03  0.39600676236E+03  0.92264445313E+02 0.  0.
         23    2    1    2    0    0  0.68776917533E+02 -0.30027479938E+02  0.15288322522E+03  0.19468726167E+03  0.94328868152E+02 0.  0.
        -13    1    3    3    0    0 -0.29426842825E+02  0.74364029294E+02  0.33045225021E+03  0.33999211403E+03  0.00000000000E+00 0. -1.
         13    1    3    3    0    0 -0.24008707086E+02 -0.19027736677E+02  0.46895288121E+02  0.56014648325E+02  0.00000000000E+00 0.  1.
        -13    1    4    4    0    0  0.85260214237E+02 -0.46184761940E+02  0.11615778466E+03  0.15131083010E+03  0.00000000000E+00 0.  1.
         13    1    4    4    0    0 -0.16483296704E+02  0.16157282002E+02  0.36725440558E+02  0.43376431574E+02  0.00000000000E+00 0. -1.
          1    1    1    2  501    0 -0.15341367623E+02 -0.25308812679E+02 -0.36724004540E+02  0.47165093758E+02  0.00000000000E+00 0. -1.
<scales pt_clust_5="13000.00000" pt_clust_6="13000.00000" pt_clust_7="13000.00000" pt_clust_8="13000.00000" pt_clust_9="29.59550"></scales>
<clustering>
<clus scale="   29.595">  2  9  1 -1</clus>
<clus scale="   92.264">  5  6 -1 -1</clus>
<clus scale="   94.329">  7  8 -1 -1</clus>
<clus scale="  118.976">  1  5  2 -1</clus>
<clus scale="   29.595">  2  5  1 -1</clus>
</clustering>
</event>
<event>
 9    1  0.1445593E-005  0.1042000E+03  0.7546771E-02  0.1272168E+00
         21   -1    0    0  501  502  0.00000000000E+00  0.00000000000E+00  0.67264478014E+02  0.67264478014E+02  0.00000000000E+00 0. -1.
          2   -1    0    0  502    0 -0.00000000000E+00 -0.00000000000E+00 -0.30114193990E+03  0.30114193990E+03  0.00000000000E+00 0. -1.
         23    2    1    2    0    0  0.11261394939E+01  0.37874991318E+02 -0.13213310603E+03  0.16544035643E+03  0.92062862596E+02 0.  0.
         23    2    1    2    0    0 -0.16574749248E+02 -0.61183870471E+02 -0.12462772507E+03  0.16683280841E+03  0.91010591631E+02 0.  0.
        -11    1    4    4    0    0  0.32844526124E+02 -0.50374795096E+02 -0.62852619524E+02  0.86987554617E+02  0.00000000000E+00 0. -1.
         11    1    4    4    0    0 -0.49419275372E+02 -0.10809075376E+02 -0.61775105545E+02  0.79845253797E+02  0.00000000000E+00 0.  1.
        -13    1    3    3    0    0 -0.37705729741E+02  0.30611510331E+01 -0.92500695948E+02  0.99937337626E+02  0.00000000000E+00 0.  1.
         13    1    3    3    0    0  0.38831869235E+02  0.34813840284E+02 -0.39632410083E+02  0.65503018805E+02  0.00000000000E+00 0. -1.
          2    1    1    2  501    0  0.15448609754E+02  0.23308879154E+02  0.22883369213E+02  0.36133253068E+02  0.00000000000E+00 0. -1.
<scales pt_clust_5="13000.00000" pt_clust_6="13000.00000" pt_clust_7="13000.00000" pt_clust_8="13000.00000" pt_clust_9="27.96361"></scales>
<clustering>
<clus scale="   27.964">  1  9  2 -1</clus>
<clus scale="   91.011">  5  6 -1 -1</clus>
<clus scale="   92.063">  7  8 -1 -1</clus>
<clus scale="  103.271">  1  5  2 -1</clus>
<clus scale="   27.964">  1  5  2 -1</clus>
</clustering>
</event>
<event>
 9    1  0.1445593E-005  0.1118193E+03  0.7546771E-02  0.1258836E+00
          1   -1    0    0  502    0 -0.00000000000E+00  0.00000000000E+00  0.29563586326E+03  0.29563586326E+03  0.00000000000E+00 0. -1.
         21   -1    0    0  501  502  0.00000000000E+00 -0.00000000000E+00 -0.62215951448E+02  0.62215951448E+02  0.00000000000E+00 0.  1.
         23    2    1    2    0    0 -0.30718772551E+02 -0.38378989021E+02  0.19017998571E+03  0.22202270999E+03  0.10348462205E+03 0.  0.
         23    2    1    2    0    0  0.18193242375E+02  0.21622487156E+02  0.48225997067E+02  0.11432259025E+03  0.99726535238E+02 0.  0.
        -11    1    4    4    0    0  0.76168636476E+01  0.49341738639E+02 -0.81781481194E+01  0.50591559478E+02  0.00000000000E+00 0.  1.
         11    1    4    4    0    0  0.10576378727E+02 -0.27719251482E+02  0.56404145186E+02  0.63731030777E+02  0.00000000000E+00 0. -1.
        -13    1    3    3    0    0  0.20862618860E+02  0.53453328554E+01  0.12915268622E+03  0.13093600653E+03  0.00000000000E+00 0. -1.
         13    1    3    3    0    0 -0.51581391411E+02 -0.43724321876E+02  0.61027299484E+02  0.91086703452E+02  0.00000000000E+00 0.  1.
          1    1    1    2  501    0  0.12525530176E+02  0.16756501864E+02 -0.49860709598E+01  0.21506514468E+02  0.00000000000E+00 0. -1.
<scales pt_clust_5="13000.00000" pt_clust_6="13000.00000" pt_clust_7="13000.00000" pt_clust_8="13000.00000" pt_clust_9="20.92055"></scales>
<clustering>
<clus scale="   20.921">  2  9  1 -1</clus>
<clus scale="   99.727">  5  6 -1 -1</clus>
<clus scale="  103.485">  7  8 -1 -1</clus>
<clus scale="  108.351">  2  5  1 -1</clus>
<clus scale="   20.921">  2  5  1 -1</clus>
</clustering>
</event>
<event>
 9    1  0.1581145E-005  0.9228416E+02  0.7546771E-02  0.1305895E+00
         21   -1    0    0  501  502  0.00000000000E+00  0.00000000000E+00  0.34922961974E+02  0.34922961974E+02  0.00000000000E+00 0. -1.
          1   -1    0    0  502    0 -0.00000000000E+00 -0.00000000000E+00 -0.63216966119E+03  0.63216966119E+03  0.00000000000E+00 0. -1.
         23    2    1    2    0    0  0.15923175333E+02  0.82275697733E+01 -0.44379456481E+03  0.45344376777E+03  0.91303857272E+02 0.  0.
         23    2    1    2    0    0  0.37647170567E+02 -0.28922899666E+02 -0.97472007454E+02  0.13345001967E+03  0.77809202123E+02 0.  0.
        -11    1    4    4    0    0  0.21391388186E+02 -0.54254557645E+02 -0.47959648372E+02  0.75506796951E+02  0.00000000000E+00 0. -1.
         11    1    4    4    0    0  0.16255782381E+02  0.25331657979E+02 -0.49512359081E+02  0.57943222715E+02  0.00000000000E+00 0.  1.
        -11    1    3    3    0    0 -0.55873044011E+01  0.46919375544E+02 -0.26976861187E+03  0.27387542738E+03  0.00000000000E+00 0.  1.
         11    1    3    3    0    0  0.21510479734E+02 -0.38691805770E+02 -0.17402595294E+03  0.17956834039E+03  0.00000000000E+00 0. -1.
          1    1    1    2  501    0 -0.53570345899E+02  0.20695329893E+02 -0.55980126951E+02  0.80198835731E+02  0.00000000000E+00 0. -1.
<scales pt_clust_5="13000.00000" pt_clust_6="13000.00000" pt_clust_7="13000.00000" pt_clust_8="13000.00000" pt_clust_9="57.42890"></scales>
<clustering>
<clus scale="   57.429">  1  9  2 -1</clus>
<clus scale="   77.809">  5  6 -1 -1</clus>
<clus scale="   78.957">  1  5  2 -1</clus>
<clus scale="   91.304">  7  8 -1 -1</clus>
<clus scale="   57.429">  1  5  2 -1</clus>
</clustering>
</event>
<event>
 9    1  0.1445593E-005  0.9793529E+02  0.7546771E-02  0.1284850E+00
         21   -1    0    0  501  502  0.00000000000E+00  0.00000000000E+00  0.49763305702E+03  0.49763305702E+03  0.00000000000E+00 0. -1.
          1   -1    0    0  502    0 -0.00000000000E+00 -0.00000000000E+00 -0.54125562828E+02  0.54125562828E+02  0.00000000000E+00 0. -1.
         23    2    1    2    0    0  0.15076907290E+02 -0.14800764161E+01  0.10133632975E+03  0.13733349397E+03  0.91443606003E+02 0.  0.
         23    2    1    2    0    0  0.46041374650E+02  0.60993427817E+02  0.93881363261E+02  0.15188920690E+03  0.91742108050E+02 0.  0.
        -11    1    4    4    0    0  0.71290002052E+02  0.42511872727E+02  0.46593780972E+02  0.95186680478E+02  0.00000000000E+00 0. -1.
         11    1    4    4    0    0 -0.25248627401E+02  0.18481555090E+02  0.47287582289E+02  0.56702526425E+02  0.00000000000E+00 0.  1.
        -13    1    3    3    0    0  0.39994032122E+02 -0.19715688475E+02  0.17341448620E+02  0.47843043566E+02  0.00000000000E+00 0. -1.
         13    1    3    3    0    0 -0.24917124833E+02  0.18235612059E+02  0.83994881132E+02  0.89490450404E+02  0.00000000000E+00 0.  1.
          1    1    1    2  501    0 -0.61118281940E+02 -0.59513351401E+02  0.24828980118E+03  0.26253591898E+03  0.00000000000E+00 0. -1.
<scales pt_clust_5="13000.00000" pt_clust_6="13000.00000" pt_clust_7="13000.00000" pt_clust_8="13000.00000" pt_clust_9="85.30699"></scales>
<clustering>
<clus scale="   85.307">  1  9  2 -1</clus>
<clus scale="   91.444">  7  8 -1 -1</clus>
<clus scale="   91.742">  5  6 -1 -1</clus>
<clus scale="   97.656">  2  7  1 -1</clus>
<clus scale="   85.307">  1  5  2 -1</clus>
</clustering>
</event>
<event>
 9    1  0.1445593E-005  0.1211222E+03  0.7546771E-02  0.1242233E+00
         21   -1    0    0  501  502  0.00000000000E+00  0.00000000000E+00  0.23807100066E+03  0.23807100066E+03  0.00000000000E+00 0.  1.
         -2   -1    0    0    0  501 -0.00000000000E+00 -0.00000000000E+00 -0.41560972690E+03  0.41560972690E+03  0.00000000000E+00 0.  1.
         23    2    1    2    0    0  0.92233267975E+02 -0.50706790939E+02 -0.24605107410E+03  0.28349124912E+03  0.93530759099E+02 0.  0.
         23    2    1    2    0    0  0.29160761300E-02  0.66967742401E+02 -0.11702436306E+03  0.16235347749E+03  0.90439325368E+02 0.  0.
        -11    1    3    3    0    0  0.63336510562E+01 -0.33547034910E+02 -0.16748638828E+02  0.38026774640E+02  0.00000000000E+00 0. -1.
         11    1    3    3    0    0  0.85899616919E+02 -0.17159756029E+02 -0.22930243527E+03  0.24546447448E+03  0.00000000000E+00 0.  1.
        -11    1    4    4    0    0  0.30409283273E+02  0.13203505466E+02 -0.37894886866E+01  0.33367908089E+02  0.00000000000E+00 0. -1.
         11    1    4    4    0    0 -0.30406367197E+02  0.53764236935E+02 -0.11323487438E+03  0.12898556940E+03  0.00000000000E+00 0.  1.
         -2    1    1    2    0  502 -0.92236184051E+02 -0.16260951462E+02  0.18553671092E+03  0.20783600095E+03  0.00000000000E+00 0.  1.
<scales pt_clust_5="13000.00000" pt_clust_6="13000.00000" pt_clust_7="13000.00000" pt_clust_8="13000.00000" pt_clust_9="93.65859"></scales>
<clustering>
<clus scale="   90.439">  7  8 -1 -1</clus>
<clus scale="   93.531">  5  6 -1 -1</clus>
<clus scale="   93.659">  1  9  2 -1</clus>
<clus scale="  118.751">  1  7  2 -1</clus>
<clus scale="   93.659">  1  5  2 -1</clus>
</clustering>
</event>
<event>
 9    1  0.1445593E-005  0.9797518E+02  0.7546771E-02  0.1285286E+00
         21   -1    0    0  501  502  0.00000000000E+00  0.00000000000E+00  0.16694576269E+03  0.16694576269E+03  0.00000000000E+00 0.  1.
          2   -1    0    0  502    0 -0.00000000000E+00 -0.00000000000E+00 -0.36819511359E+03  0.36819511359E+03  0.00000000000E+00 0. -1.
         23    2    1    2    0    0 -0.27525403042E+02 -0.20060907466E+02 -0.30420159701E+03  0.31904519076E+03  0.89950732651E+02 0.  0.
         23    2    1    2    0    0  0.62369796309E+02 -0.92602560347E+01  0.85333696318E+01  0.11126827210E+03  0.91280151974E+02 0.  0.
        -11    1    4    4    0    0 -0.12523827378E+02 -0.23174347984E+02 -0.16502718247E+02  0.31084342783E+02  0.00000000000E+00 0. -1.
         11    1    4    4    0    0  0.74893623687E+02  0.13914091950E+02  0.25036087879E+02  0.80183929313E+02  0.00000000000E+00 0.  1.
        -13    1    3    3    0    0 -0.36763715042E+02 -0.50964585943E+02 -0.17724181200E+03  0.18805217278E+03  0.00000000000E+00 0. -1.
         13    1    3    3    0    0  0.92383120006E+01  0.30903678477E+02 -0.12695978500E+03  0.13099301798E+03  0.00000000000E+00 0.  1.
          2    1    1    2  501    0 -0.34844393267E+02  0.29321163500E+02  0.94418876474E+02  0.10482741343E+03  0.00000000000E+00 0. -1.
<scales pt_clust_5="13000.00000" pt_clust_6="13000.00000" pt_clust_7="13000.00000" pt_clust_8="13000.00000" pt_clust_9="45.53968"></scales>
<clustering>
<clus scale="   45.540">  1  9  2 -1</clus>
<clus scale="   89.951">  7  8 -1 -1</clus>
<clus scale="   91.280">  5  6 -1 -1</clus>
<clus scale="   96.738">  2  7  1 -1</clus>
<clus scale="   45.540">  1  5  2 -1</clus>
</clustering>
</event>
<event>
 9    1  0.1445593E-005  0.1129943E+03  0.7546771E-02  0.1256151E+00
         21   -1    0    0  501  502  0.00000000000E+00  0.00000000000E+00  0.24565625681E+03  0.24565625681E+03  0.00000000000E+00 0. -1.
          1   -1    0    0  502    0 -0.00000000000E+00 -0.00000000000E+00 -0.11358279852E+03  0.11358279852E+03  0.00000000000E+00 0. -1.
         23    2    1    2    0    0  0.52592267300E+02  0.17675646878E+02 -0.22478087102E+02  0.10946101484E+03  0.91641007727E+02 0.  0.
         23    2    1    2    0    0 -0.81408056508E+02 -0.30163003121E+02  0.39218804294E+02  0.13024593208E+03  0.88818972025E+02 0.  0.
        -13    1    3    3    0    0  0.16631753431E+02 -0.37170777889E+02 -0.15232799624E+02  0.43477811990E+02  0.00000000000E+00 0.  1.
         13    1    3    3    0    0  0.35960513869E+02  0.54846424767E+02 -0.72452874784E+01  0.65983202848E+02  0.00000000000E+00 0. -1.
        -13    1    4    4    0    0 -0.61203515143E+02  0.10164925010E+02 -0.10710094832E+02  0.62959527457E+02  0.00000000000E+00 0. -1.
         13    1    4    4    0    0 -0.20204541365E+02 -0.40327928131E+02  0.49928899127E+02  0.67286404623E+02  0.00000000000E+00 0.  1.
          1    1    1    2  501    0  0.28815789208E+02  0.12487356243E+02  0.11533274110E+03  0.11953210842E+03  0.00000000000E+00 0. -1.
<scales pt_clust_5="13000.00000" pt_clust_6="13000.00000" pt_clust_7="13000.00000" pt_clust_8="13000.00000" pt_clust_9="31.40516"></scales>
<clustering>
<clus scale="   31.405">  1  9  2 -1</clus>
<clus scale="   88.819">  7  8 -1 -1</clus>
<clus scale="   91.641">  5  6 -1 -1</clus>
<clus scale="  110.718">  1  7  2 -1</clus>
<clus scale="   31.405">  1  5  2 -1</clus>
</clustering>
</event>
<event>
 9    1  0.1445593E-005  0.1373536E+03  0.7546771E-02  0.1217025E+00
         21   -1    0    0  501  502  0.00000000000E+00  0.00000000000E+00  0.66460403639E+02  0.66460403639E+02  0.00000000000E+00 0. -1.
          1   -1    0    0  502    0 -0.00000000000E+00 -0.00000000000E+00 -0.51874021344E+03  0.51874021344E+03  0.00000000000E+00 0. -1.
         23    2    1    2    0    0  0.62416247143E+02 -0.10136294983E+03 -0.30167080158E+03  0.33704172943E+03  0.91769381295E+02 0.  0.
         23    2    1    2    0    0 -0.36281777559E+02  0.74712558391E+02 -0.16674820639E+03  0.20749283815E+03  0.91378223785E+02 0.  0.
        -11    1    3    3    0    0 -0.21222963821E+02 -0.39166930893E+02 -0.11355453322E+03  0.12197989459E+03  0.00000000000E+00 0.  1.
         11    1    3    3    0    0  0.83639210964E+02 -0.62196018935E+02 -0.18811626836E+03  0.21506183484E+03  0.00000000000E+00 0. -1.
        -11    1    4    4    0    0 -0.63586595459E+02  0.71872628926E+02 -0.12672517348E+03  0.15895974177E+03  0.00000000000E+00 0.  1.
         11    1    4    4    0    0  0.27304817901E+02  0.28399294647E+01 -0.40023032914E+02  0.48533096374E+02  0.00000000000E+00 0. -1.
          1    1    1    2  501    0 -0.26134469584E+02  0.26650391437E+02  0.16139198178E+02  0.40666049501E+02  0.00000000000E+00 0. -1.
<scales pt_clust_5="13000.00000" pt_clust_6="13000.00000" pt_clust_7="13000.00000" pt_clust_8="13000.00000" pt_clust_9="37.32632"></scales>
<clustering>
<clus scale="   37.326">  1  9  2 -1</clus>
<clus scale="   91.378">  7  8 -1 -1</clus>
<clus scale="   91.769">  5  6 -1 -1</clus>
<clus scale="  137.093">  1  7  2 -1</clus>
<clus scale="   37.326">  1  5  2 -1</clus>
</clustering>
</event>
<event>
 9    1  0.1445593E-005  0.1098706E+03  0.7546771E-02  0.1261131E+00
          1   -1    0    0  502    0 -0.00000000000E+00  0.00000000000E+00  0.41440366964E+03  0.41440366964E+03  0.00000000000E+00 0. -1.
         21   -1    0    0  501  502  0.00000000000E+00 -0.00000000000E+00 -0.69615400245E+02  0.69615400245E+02  0.00000000000E+00 0. -1.
         23    2    1    2    0    0 -0.48131287058E+02  0.28521110530E+02  0.27878946113E+03  0.29882862877E+03  0.91896197960E+02 0.  0.
         23    2    1    2    0    0  0.68109381740E+02 -0.25747008322E+02  0.94630908038E+02  0.15016734805E+03  0.91068256526E+02 0.  0.
        -13    1    3    3    0    0 -0.24807104362E+01 -0.29560834723E+02  0.47257551837E+02  0.55796712085E+02  0.00000000000E+00 0.  1.
         13    1    3    3    0    0 -0.45650576621E+02  0.58081945253E+02  0.23153190929E+03  0.24303191669E+03  0.00000000000E+00 0. -1.
        -13    1    4    4    0    0 -0.79774477732E+01  0.19719428508E+02  0.42008311940E+02  0.47087087462E+02  0.00000000000E+00 0.  1.
         13    1    4    4    0    0  0.76086829513E+02 -0.45466436830E+02  0.52622596098E+02  0.10308026059E+03  0.00000000000E+00 0. -1.
          1    1    1    2  501    0 -0.19978094682E+02 -0.27741022082E+01 -0.28632099770E+02  0.35023093059E+02  0.00000000000E+00 0. -1.
<scales pt_clust_5="13000.00000" pt_clust_6="13000.00000" pt_clust_7="13000.00000" pt_clust_8="13000.00000" pt_clust_9="20.16978"></scales>
<clustering>
<clus scale="   20.170">  2  9  1 -1</clus>
<clus scale="   91.068">  7  8 -1 -1</clus>
<clus scale="   91.896">  5  6 -1 -1</clus>
<clus scale="  109.179">  2  7  1 -1</clus>
<clus scale="   20.170">  2  5  1 -1</clus>
</clustering>
</event>
<event>
 9    1  0.1445593E-005  0.9260982E+02  0.7546771E-02  0.1296928E+00
         21   -1    0    0  501  502  0.00000000000E+00  0.00000000000E+00  0.40800417535E+03  0.40800417535E+03  0.00000000000E+00 0. -1.
         -1   -1    0    0    0  501 -0.00000000000E+00 -0.00000000000E+00 -0.33137480426E+02  0.33137480426E+02  0.00000000000E+00 0.  1.
         23    2    1    2    0    0 -0.81582157271E+01  0.22933643499E+01  0.10952373471E+03  0.14290106666E+03  0.91397212127E+02 0.  0.
         23    2    1    2    0    0 -0.63842509704E+01 -0.22334917105E+02  0.13127936734E+03  0.16190939639E+03  0.91873680496E+02 0.  0.
        -13    1    4    4    0    0 -0.33005378124E+02 -0.20879021110E+02  0.13766646979E+02  0.41410253279E+02  0.00000000000E+00 0.  1.
         13    1    4    4    0    0  0.26621127153E+02 -0.14558959949E+01  0.11751272036E+03  0.12049914311E+03  0.00000000000E+00 0. -1.
        -13    1    3    3    0    0 -0.41956676868E+02  0.26801347165E+02  0.64834860871E+02  0.81744933346E+02  0.00000000000E+00 0.  1.
         13    1    3    3    0    0  0.33798461141E+02 -0.24507982816E+02  0.44688873834E+02  0.61156133313E+02  0.00000000000E+00 0. -1.
         -1    1    1    2    0  502  0.14542466698E+02  0.20041552755E+02  0.13406359288E+03  0.13633119273E+03  0.00000000000E+00 0.  1.
<scales pt_clust_5="13000.00000" pt_clust_6="13000.00000" pt_clust_7="13000.00000" pt_clust_8="13000.00000" pt_clust_9="24.76181"></scales>
<clustering>
<clus scale="   24.762">  1  9  2 -1</clus>
<clus scale="   91.397">  7  8 -1 -1</clus>
<clus scale="   91.874">  5  6 -1 -1</clus>
<clus scale="   92.137">  2  7  1 -1</clus>
<clus scale="   24.762">  1  5  2 -1</clus>
</clustering>
</event>
<event>
 9    1  0.1445593E-005  0.1638095E+03  0.7546771E-02  0.1184568E+00
         21   -1    0    0  501  502  0.00000000000E+00  0.00000000000E+00  0.49963901636E+02  0.49963901636E+02  0.00000000000E+00 0. -1.
          4   -1    0    0  502    0 -0.00000000000E+00 -0.00000000000E+00 -0.79236262039E+03  0.79236262039E+03  0.00000000000E+00 0. -1.
         23    2    1    2    0    0 -0.14168359422E+03  0.70613134070E+02 -0.39907308344E+03  0.43889693703E+03  0.91163259230E+02 0.  0.
         23    2    1    2    0    0  0.11711788946E+03 -0.12714129414E+02 -0.25262085806E+03  0.29305238986E+03  0.90466326084E+02 0.  0.
        -11    1    3    3    0    0 -0.58888971164E+02  0.38397961403E+01 -0.24273929581E+03  0.24980996915E+03  0.00000000000E+00 0.  1.
         11    1    3    3    0    0 -0.82794623053E+02  0.66773337930E+02 -0.15633378763E+03  0.18908696788E+03  0.00000000000E+00 0. -1.
        -11    1    4    4    0    0  0.46470905504E+00 -0.30519745585E+02 -0.50801257514E+02  0.59265829869E+02  0.00000000000E+00 0.  1.
         11    1    4    4    0    0  0.11665318041E+03  0.17805616171E+02 -0.20181960055E+03  0.23378655999E+03  0.00000000000E+00 0. -1.
          4    1    1    2  501    0  0.24565704756E+02 -0.57899004656E+02 -0.90704777248E+02  0.11037719513E+03  0.00000000000E+00 0. -1.
<scales pt_clust_5="13000.00000" pt_clust_6="13000.00000" pt_clust_7="13000.00000" pt_clust_8="13000.00000" pt_clust_9="62.89490"></scales>
<clustering>
<clus scale="   62.895">  1  9  2 -1</clus>
<clus scale="   90.466">  7  8 -1 -1</clus>
<clus scale="   91.163">  5  6 -1 -1</clus>
<clus scale="  163.423">  1  7  2 -1</clus>
<clus scale="   62.895">  1  5  2 -1</clus>
</clustering>
</event>
<event>
 9    1  0.1445593E-005  0.9974279E+02  0.7546771E-02  0.1281113E+00
         21   -1    0    0  501  502  0.00000000000E+00  0.00000000000E+00  0.12160312887E+03  0.12160312887E+03  0.00000000000E+00 0. -1.
         -1   -1    0    0    0  501 -0.00000000000E+00 -0.00000000000E+00 -0.14379977585E+03  0.14379977585E+03  0.00000000000E+00 0.  1.
         23    2    1    2    0    0  0.74931640948E+01  0.45295757920E+02 -0.62863525577E+02  0.11969088395E+03  0.90918819052E+02 0.  0.
         23    2    1    2    0    0  0.12066179066E+02 -0.30343530958E+02 -0.11951761479E+01  0.97146924010E+02  0.91486468127E+02 0.  0.
        -11    1    4    4    0    0 -0.57841609124E+01  0.31878481091E+02  0.21541317850E+00  0.32399698718E+02  0.00000000000E+00 0.  1.
         11    1    4    4    0    0  0.17850339978E+02 -0.62222012050E+02 -0.14105893264E+01  0.64747225293E+02  0.00000000000E+00 0. -1.
        -11    1    3    3    0    0 -0.84115713981E+01  0.60629846883E+02 -0.73098703406E+02  0.95342295473E+02  0.00000000000E+00 0.  1.
         11    1    3    3    0    0  0.15904735493E+02 -0.15334088962E+02  0.10235177829E+02  0.24348588472E+02  0.00000000000E+00 0. -1.
         -1    1    1    2    0  502 -0.19559343160E+02 -0.14952226962E+02  0.41862054742E+02  0.48565096759E+02  0.00000000000E+00 0.  1.
<scales pt_clust_5="13000.00000" pt_clust_6="13000.00000" pt_clust_7="13000.00000" pt_clust_8="13000.00000" pt_clust_9="24.61985"></scales>
<clustering>
<clus scale="   24.620">  1  9  2 -1</clus>
<clus scale="   90.919">  7  8 -1 -1</clus>
<clus scale="   91.486">  5  6 -1 -1</clus>
<clus scale="   99.222">  2  7  1 -1</clus>
<clus scale="   24.620">  1  5  2 -1</clus>
</clustering>
</event>
<event>
 9    1  0.1445593E-005  0.1733269E+03  0.7546771E-02  0.1174659E+00
         21   -1    0    0  501  502  0.00000000000E+00  0.00000000000E+00  0.10852405349E+03  0.10852405349E+03  0.00000000000E+00 0. -1.
          4   -1    0    0  502    0 -0.00000000000E+00 -0.00000000000E+00 -0.49556327312E+03  0.49556327312E+03  0.00000000000E+00 0. -1.
         23    2    1    2    0    0  0.11576946613E+03  0.73618294486E+02 -0.28580555198E+03  0.33042456479E+03  0.93130859013E+02 0.  0.
         23    2    1    2    0    0 -0.14315649026E+03 -0.84425261394E+02 -0.13200067388E+03  0.23107816019E+03  0.91386720839E+02 0.  0.
        -11    1    3    3    0    0  0.12521596621E+03  0.55398899105E+02 -0.27506728131E+03  0.30726224217E+03  0.00000000000E+00 0. -1.
         11    1    3    3    0    0 -0.94465000847E+01  0.18219395381E+02 -0.10738270669E+02  0.23162322614E+02  0.00000000000E+00 0.  1.
        -11    1    4    4    0    0 -0.26309765781E+02 -0.29743652444E+02  0.82065243042E+01  0.40549176037E+02  0.00000000000E+00 0.  1.
         11    1    4    4    0    0 -0.11684672448E+03 -0.54681608951E+02 -0.14020719818E+03  0.19052898415E+03  0.00000000000E+00 0. -1.
          4    1    1    2  501    0  0.27387024134E+02  0.10806966908E+02  0.30767006222E+02  0.42584601636E+02  0.00000000000E+00 0. -1.
<scales pt_clust_5="13000.00000" pt_clust_6="13000.00000" pt_clust_7="13000.00000" pt_clust_8="13000.00000" pt_clust_9="29.44214"></scales>
<clustering>
<clus scale="   29.442">  1  9  2 -1</clus>
<clus scale="   91.387">  7  8 -1 -1</clus>
<clus scale="   93.131">  5  6 -1 -1</clus>
<clus scale="  172.396">  1  7  2 -1</clus>
<clus scale="   29.442">  1  5  2 -1</clus>
</clustering>
</event>
<event>
 9    1  0.1445593E-005  0.1162995E+03  0.7546771E-02  0.1250303E+00
         21   -1    0    0  501  502  0.00000000000E+00  0.00000000000E+00  0.87517149877E+02  0.87517149877E+02  0.00000000000E+00 0. -1.
          2   -1    0    0  502    0 -0.00000000000E+00 -0.00000000000E+00 -0.54915623902E+03  0.54915623902E+03  0.00000000000E+00 0. -1.
         23    2    1    2    0    0 -0.50930976904E+01 -0.73643174516E+02 -0.41344618661E+03  0.42967532320E+03  0.90740714976E+02 0.  0.
         23    2    1    2    0    0  0.11557555939E+02  0.54620800107E+02 -0.10220180696E+03  0.14937340339E+03  0.93542479080E+02 0.  0.
        -11    1    3    3    0    0  0.35436058015E+02 -0.65113079087E+02 -0.23171492135E+03  0.24328426183E+03  0.00000000000E+00 0. -1.
         11    1    3    3    0    0 -0.40529155705E+02 -0.85300954291E+01 -0.18173126525E+03  0.18639106138E+03  0.00000000000E+00 0.  1.
        -13    1    4    4    0    0 -0.14700277906E+02  0.63484100456E+02 -0.29426600557E+02  0.71500027983E+02  0.00000000000E+00 0.  1.
         13    1    4    4    0    0  0.26257833845E+02 -0.88633003493E+01 -0.72775206399E+02  0.77873375410E+02  0.00000000000E+00 0. -1.
          2    1    1    2  501    0 -0.64644582482E+01  0.19022374409E+02  0.54008904419E+02  0.57624662300E+02  0.00000000000E+00 0. -1.
<scales pt_clust_5="13000.00000" pt_clust_6="13000.00000" pt_clust_7="13000.00000" pt_clust_8="13000.00000" pt_clust_9="20.09079"></scales>
<clustering>
<clus scale="   20.091">  1  9  2 -1</clus>
<clus scale="   90.741">  5  6 -1 -1</clus>
<clus scale="   93.542">  7  8 -1 -1</clus>
<clus scale="  114.058">  2  5  1 -1</clus>
<clus scale="   20.091">  1  5  2 -1</clus>
</clustering>
</event>
<event>
 9    1  0.1445593E-005  0.9971999E+02  0.7546771E-02  0.1283488E+00
          2   -1    0    0  502    0 -0.00000000000E+00  0.00000000000E+00  0.72808159785E+03  0.72808159785E+03  0.00000000000E+00 0. -1.
         21   -1    0    0  501  502  0.00000000000E+00 -0.00000000000E+00 -0.37150081914E+02  0.37150081914E+02  0.00000000000E+00 0. -1.
         23    2    1    2    0    0 -0.16505289689E+01  0.25680837583E+01  0.35775098539E+03  0.37105052714E+03  0.98404302983E+02 0.  0.
         23    2    1    2    0    0 -0.25945061014E+02 -0.19798519417E+02  0.34547820855E+03  0.35940131099E+03  0.93535994140E+02 0.  0.
        -11    1    3    3    0    0  0.40623524381E+02  0.27659291968E+02  0.16874045228E+03  0.17575166400E+03  0.00000000000E+00 0. -1.
         11    1    3    3    0    0 -0.42274053350E+02 -0.25091208209E+02  0.18901053311E+03  0.19529886314E+03  0.00000000000E+00 0.  1.
        -13    1    4    4    0    0  0.16400093605E+02 -0.42124788818E+02  0.22989425160E+03  0.23429645286E+03  0.00000000000E+00 0. -1.
         13    1    4    4    0    0 -0.42345154619E+02  0.22326269401E+02  0.11558395694E+03  0.12510485813E+03  0.00000000000E+00 0.  1.
          2    1    1    2  501    0  0.27595589983E+02  0.17230435659E+02 -0.12297678000E+02  0.34779841629E+02  0.00000000000E+00 0. -1.
<scales pt_clust_5="13000.00000" pt_clust_6="13000.00000" pt_clust_7="13000.00000" pt_clust_8="13000.00000" pt_clust_9="32.53313"></scales>
<clustering>
<clus scale="   32.533">  2  9  1 -1</clus>
<clus scale="   93.536">  7  8 -1 -1</clus>
<clus scale="   94.919">  2  7  1 -1</clus>
<clus scale="   98.404">  5  6 -1 -1</clus>
<clus scale="   32.533">  2  5  1 -1</clus>
</clustering>
</event>
<event>
 9    1  0.1445593E-005  0.9617078E+02  0.7546771E-02  0.1289651E+00
         21   -1    0    0  501  502  0.00000000000E+00  0.00000000000E+00  0.22367562378E+03  0.22367562378E+03  0.00000000000E+00 0. -1.
         -3   -1    0    0    0  501 -0.00000000000E+00 -0.00000000000E+00 -0.63658386285E+02  0.63658386285E+02  0.00000000000E+00 0.  1.
         23    2    1    2    0    0 -0.31589473417E+02 -0.18203918292E+02  0.22426379386E+02  0.10178531641E+03  0.92347337114E+02 0.  0.
         23    2    1    2    0    0 -0.21925283502E+00  0.16716435373E+02  0.92601950339E+02  0.13043055242E+03  0.90318993099E+02 0.  0.
        -11    1    4    4    0    0  0.41020623343E+02 -0.54948402531E+01  0.25551345739E+02  0.48639038621E+02  0.00000000000E+00 0.  1.
         11    1    4    4    0    0 -0.41239876178E+02  0.22211275626E+02  0.67050604600E+02  0.81791513798E+02  0.00000000000E+00 0. -1.
        -11    1    3    3    0    0  0.40819487009E+01  0.34835472134E+02  0.11692285370E+02  0.36971366775E+02  0.00000000000E+00 0. -1.
         11    1    3    3    0    0 -0.35671422118E+02 -0.53039390426E+02  0.10734094016E+02  0.64813949633E+02  0.00000000000E+00 0.  1.
         -3    1    1    2    0  502  0.31808726252E+02  0.14874829186E+01  0.44988907771E+02  0.55118141239E+02  0.00000000000E+00 0.  1.
<scales pt_clust_5="13000.00000" pt_clust_6="13000.00000" pt_clust_7="13000.00000" pt_clust_8="13000.00000" pt_clust_9="31.84349"></scales>
<clustering>
<clus scale="   31.843">  1  9  2 -1</clus>
<clus scale="   90.319">  5  6 -1 -1</clus>
<clus scale="   92.347">  7  8 -1 -1</clus>
<clus scale="   94.225">  1  5  2 -1</clus>
<clus scale="   31.843">  1  5  2 -1</clus>
</clustering>
</event>
<event>
 9    1  0.1445593E-005  0.2272918E+03  0.7546771E-02  0.1128994E+00
         21   -1    0    0  501  502  0.00000000000E+00  0.00000000000E+00  0.25893404268E+03  0.25893404268E+03  0.00000000000E+00 0. -1.
          1   -1    0    0  502    0 -0.00000000000E+00 -0.00000000000E+00 -0.42245833889E+03  0.42245833889E+03  0.00000000000E+00 0. -1.
         23    2    1    2    0    0 -0.20553354567E+03 -0.78275811420E+02 -0.31248973882E+03  0.39087746945E+03  0.82244867362E+02 0.  0.
         23    2    1    2    0    0  0.14505246525E+03  0.68703237321E+02  0.13505965394E+03  0.22772186933E+03  0.88632878546E+02 0.  0.
        -11    1    4    4    0    0  0.98835915115E+02 -0.15429744012E+00  0.88203641551E+02  0.13247054128E+03  0.00000000000E+00 0.  1.
         11    1    4    4    0    0  0.46216550133E+02  0.68857534761E+02  0.46856012385E+02  0.95251328055E+02  0.00000000000E+00 0. -1.
        -13    1    3    3    0    0 -0.39363300413E+02 -0.32260557112E+02 -0.13100834576E+03  0.14054678802E+03  0.00000000000E+00 0.  1.
         13    1    3    3    0    0 -0.16617024526E+03 -0.46015254308E+02 -0.18148139306E+03  0.25033068143E+03  0.00000000000E+00 0. -1.
          1    1    1    2  501    0  0.60481080425E+02  0.95725740992E+01  0.13905788673E+02  0.62793042790E+02  0.00000000000E+00 0. -1.
<scales pt_clust_5="13000.00000" pt_clust_6="13000.00000" pt_clust_7="13000.00000" pt_clust_8="13000.00000" pt_clust_9="61.23394"></scales>
<clustering>
<clus scale="   61.234">  1  9  2 -1</clus>
<clus scale="   82.245">  7  8 -1 -1</clus>
<clus scale="   88.633">  5  6 -1 -1</clus>
<clus scale="  224.878">  2  7  1 -1</clus>
<clus scale="   61.234">  1  5  2 -1</clus>
</clustering>
</event>
<event>
 9    1  0.1445593E-005  0.1134186E+03  0.7546771E-02  0.1255027E+00
         21   -1    0    0  501  502  0.00000000000E+00  0.00000000000E+00  0.54308893209E+02  0.54308893209E+02  0.00000000000E+00 0. -1.
          1   -1    0    0  502    0 -0.00000000000E+00 -0.00000000000E+00 -0.10327564211E+04  0.10327564211E+04  0.00000000000E+00 0. -1.
         23    2    1    2    0    0  0.10099510965E+02 -0.51283310595E+02 -0.61392570374E+03  0.62289068136E+03  0.91411449720E+02 0.  0.
         23    2    1    2    0    0 -0.28073700846E+02  0.91170612726E+02 -0.39094149687E+03  0.41306624339E+03  0.93210804893E+02 0.  0.
        -11    1    3    3    0    0 -0.28778957594E+02 -0.59009952686E+02 -0.37925579739E+03  0.38489656113E+03  0.00000000000E+00 0.  1.
         11    1    3    3    0    0  0.38878468559E+02  0.77266420907E+01 -0.23466990635E+03  0.23799412023E+03  0.00000000000E+00 0. -1.
        -13    1    4    4    0    0 -0.58844678306E+02  0.60856332173E+02 -0.30962956289E+03  0.32099323286E+03  0.00000000000E+00 0.  1.
         13    1    4    4    0    0  0.30770977460E+02  0.30314280554E+02 -0.81311933986E+02  0.92073010529E+02  0.00000000000E+00 0. -1.
          1    1    1    2  501    0  0.17974189881E+02 -0.39887302131E+02  0.26419672745E+02  0.51108389538E+02  0.00000000000E+00 0. -1.
<scales pt_clust_5="13000.00000" pt_clust_6="13000.00000" pt_clust_7="13000.00000" pt_clust_8="13000.00000" pt_clust_9="43.75007"></scales>
<clustering>
<clus scale="   43.750">  1  9  2 -1</clus>
<clus scale="   91.411">  5  6 -1 -1</clus>
<clus scale="   93.211">  7  8 -1 -1</clus>
<clus scale="  111.945">  2  5  1 -1</clus>
<clus scale="   43.750">  1  5  2 -1</clus>
</clustering>
</event>
<event>
 9    1  0.1445593E-005  0.1921690E+03  0.7546771E-02  0.1156579E+00
          2   -1    0    0  502    0 -0.00000000000E+00  0.00000000000E+00  0.11125061172E+04  0.11125061172E+04  0.00000000000E+00 0. -1.
         21   -1    0    0  501  502  0.00000000000E+00 -0.00000000000E+00 -0.58274264322E+02  0.58274264322E+02  0.00000000000E+00 0. -1.
         23    2    1    2    0    0  0.15641070819E+03 -0.23542171282E+00  0.59257499140E+03  0.62042299146E+03  0.96515298453E+02 0.  0.
         23    2    1    2    0    0 -0.17913534577E+03  0.40593107871E+02  0.45916877949E+03  0.50397482286E+03  0.97043194054E+02 0.  0.
        -11    1    3    3    0    0  0.12243454777E+03  0.49212218104E+01  0.55938055580E+03  0.57264390604E+03  0.00000000000E+00 0. -1.
         11    1    3    3    0    0  0.33976160413E+02 -0.51566435232E+01  0.33194435601E+02  0.47779085421E+02  0.00000000000E+00 0.  1.
        -13    1    4    4    0    0 -0.15914147607E+03  0.68559656702E+02  0.37793454749E+03  0.41576550857E+03  0.00000000000E+00 0. -1.
         13    1    4    4    0    0 -0.19993869701E+02 -0.27966548831E+02  0.81234231995E+02  0.88209314287E+02  0.00000000000E+00 0.  1.
          2    1    1    2  501    0  0.22724637582E+02 -0.40357686159E+02  0.24880819536E+01  0.46382567168E+02  0.00000000000E+00 0. -1.
<scales pt_clust_5="13000.00000" pt_clust_6="13000.00000" pt_clust_7="13000.00000" pt_clust_8="13000.00000" pt_clust_9="46.31579"></scales>
<clustering>
<clus scale="   46.316">  2  9  1 -1</clus>
<clus scale="   96.515">  5  6 -1 -1</clus>
<clus scale="   97.043">  7  8 -1 -1</clus>
<clus scale="  191.903">  1  5  2 -1</clus>
<clus scale="   46.316">  2  5  1 -1</clus>
</clustering>
</event>
<event>
 9    1  0.1445593E-005  0.8948352E+02  0.7546771E-02  0.1304173E+00
         21   -1    0    0  501  502  0.00000000000E+00  0.00000000000E+00  0.48242664404E+02  0.48242664404E+02  0.00000000000E+00 0.  1.
          1   -1    0    0  502    0 -0.00000000000E+00 -0.00000000000E+00 -0.30127141020E+03  0.30127141020E+03  0.00000000000E+00 0. -1.
         23    2    1    2    0    0  0.21418272857E+02  0.90905800141E-01 -0.17362906917E+03  0.19571406109E+03  0.87739326247E+02 0.  0.
         23    2    1    2    0    0 -0.27649470929E+01  0.23856329974E+02 -0.83014849992E+02  0.12323064745E+03  0.87849631415E+02 0.  0.
        -11    1    4    4    0    0 -0.35525496078E+02 -0.15668085560E+02 -0.44467110156E+02  0.59032818519E+02  0.00000000000E+00 0.  1.
         11    1    4    4    0    0  0.32760548985E+02  0.39524415534E+02 -0.38547739836E+02  0.64197828932E+02  0.00000000000E+00 0. -1.
        -13    1    3    3    0    0  0.14224862987E-01 -0.27783326331E+02 -0.11923934144E+02  0.30233981376E+02  0.00000000000E+00 0.  1.
         13    1    3    3    0    0  0.21404047994E+02  0.27874232132E+02 -0.16170513502E+03  0.16548007971E+03  0.00000000000E+00 0. -1.
          1    1    1    2  501    0 -0.18653325764E+02 -0.23947235774E+02  0.36151733650E+01  0.30569366067E+02  0.00000000000E+00 0. -1.
<scales pt_clust_5="13000.00000" pt_clust_6="13000.00000" pt_clust_7="13000.00000" pt_clust_8="13000.00000" pt_clust_9="30.35485"></scales>
<clustering>
<clus scale="   30.355">  1  9  2 -1</clus>
<clus scale="   87.739">  7  8 -1 -1</clus>
<clus scale="   87.850">  5  6 -1 -1</clus>
<clus scale="   89.375">  2  7  1 -1</clus>
<clus scale="   30.355">  1  5  2 -1</clus>
</clustering>
</event>
<event>
 9    1  0.1445593E-005  0.9791840E+02  0.7546771E-02  0.1285017E+00
          1   -1    0    0  502    0 -0.00000000000E+00  0.00000000000E+00  0.16799372434E+03  0.16799372434E+03  0.00000000000E+00 0. -1.
         21   -1    0    0  501  502  0.00000000000E+00 -0.00000000000E+00 -0.10125913516E+03  0.10125913516E+03  0.00000000000E+00 0. -1.
         23    2    1    2    0    0  0.15136585191E+02 -0.21977452134E+02  0.67896690519E+02  0.11709812462E+03  0.91596318666E+02 0.  0.
         23    2    1    2    0    0 -0.67560735183E+01  0.44266066579E+02  0.35508390455E+02  0.10843128261E+03  0.92148619504E+02 0.  0.
        -11    1    4    4    0    0  0.35551904036E+02  0.48181698649E+02  0.22944945297E+02  0.64123977419E+02  0.00000000000E+00 0.  1.
         11    1    4    4    0    0 -0.42307977554E+02 -0.39156320707E+01  0.12563445158E+02  0.44307305193E+02  0.00000000000E+00 0. -1.
        -11    1    3    3    0    0  0.12162447971E+02  0.20148639447E+02  0.70955271902E+02  0.74756561069E+02  0.00000000000E+00 0. -1.
         11    1    3    3    0    0  0.29741372198E+01 -0.42126091580E+02 -0.30585813832E+01  0.42341563553E+02  0.00000000000E+00 0.  1.
          1    1    1    2  501    0 -0.83805116729E+01 -0.22288614445E+02 -0.36670491795E+02  0.43723452268E+02  0.00000000000E+00 0. -1.
<scales pt_clust_5="13000.00000" pt_clust_6="13000.00000" pt_clust_7="13000.00000" pt_clust_8="13000.00000" pt_clust_9="23.81208"></scales>
<clustering>
<clus scale="   23.812">  2  9  1 -1</clus>
<clus scale="   91.596">  7  8 -1 -1</clus>
<clus scale="   92.149">  5  6 -1 -1</clus>
<clus scale="   97.399">  1  7  2 -1</clus>
<clus scale="   23.812">  2  5  1 -1</clus>
</clustering>
</event>
<event>
 9    1  0.1445593E-005  0.9284295E+02  0.7546771E-02  0.1298529E+00
         -1   -1    0    0    0  501 -0.00000000000E+00  0.00000000000E+00  0.10695808888E+03  0.10695808888E+03  0.00000000000E+00 0.  1.
         21   -1    0    0  501  502  0.00000000000E+00 -0.00000000000E+00 -0.15869831849E+03  0.15869831849E+03  0.00000000000E+00 0.  1.
         23    2    1    2    0    0 -0.24083355659E+01  0.18096898687E+02  0.47998806497E+02  0.10002705728E+03  0.85838388503E+02 0.  0.
         23    2    1    2    0    0  0.23977034924E+02 -0.31316038868E+02 -0.51057821661E+02  0.11076756831E+03  0.90038661376E+02 0.  0.
        -11    1    3    3    0    0 -0.26064181011E+02 -0.18118262938E+02  0.47054185784E+02  0.56760103800E+02  0.00000000000E+00 0. -1.
         11    1    3    3    0    0  0.23655845445E+02  0.36215161624E+02  0.94462071306E+00  0.43266953480E+02  0.00000000000E+00 0.  1.
        -13    1    4    4    0    0  0.57557107975E+02 -0.15660195983E+02 -0.21621869943E+02  0.63447361462E+02  0.00000000000E+00 0.  1.
         13    1    4    4    0    0 -0.33580073051E+02 -0.15655842886E+02 -0.29435951719E+02  0.47320206848E+02  0.00000000000E+00 0. -1.
         -1    1    1    2    0  502 -0.21568699358E+02  0.13219140182E+02 -0.48681214448E+02  0.54861781773E+02  0.00000000000E+00 0.  1.
<scales pt_clust_5="13000.00000" pt_clust_6="13000.00000" pt_clust_7="13000.00000" pt_clust_8="13000.00000" pt_clust_9="25.29732"></scales>
<clustering>
<clus scale="   25.297">  2  9  1 -1</clus>
<clus scale="   85.838">  5  6 -1 -1</clus>
<clus scale="   88.775">  1  5  2 -1</clus>
<clus scale="   90.039">  7  8 -1 -1</clus>
<clus scale="   25.297">  2  5  1 -1</clus>
</clustering>
</event>
<event>
 9    1  0.1445593E-005  0.1527629E+03  0.7546771E-02  0.1198644E+00
         21   -1    0    0  501  502  0.00000000000E+00  0.00000000000E+00  0.34919134411E+02  0.34919134411E+02  0.00000000000E+00 0. -1.
          2   -1    0    0  502    0 -0.00000000000E+00 -0.00000000000E+00 -0.12271674608E+04  0.12271674608E+04  0.00000000000E+00 0. -1.
         23    2    1    2    0    0  0.84800687144E+02 -0.61377109337E+02 -0.57213856051E+03  0.58846970659E+03  0.89418997206E+02 0.  0.
         23    2    1    2    0    0 -0.70835588990E+02  0.13156270719E+03 -0.52574784776E+03  0.55518879354E+03  0.97454453257E+02 0.  0.
        -11    1    3    3    0    0  0.94702726868E+02 -0.29017314754E+02 -0.48457549078E+03  0.49459480112E+03  0.00000000000E+00 0. -1.
         11    1    3    3    0    0 -0.99020397239E+01 -0.32359794584E+02 -0.87563069724E+02  0.93874905463E+02  0.00000000000E+00 0.  1.
        -13    1    4    4    0    0 -0.13182097405E+02 -0.15306975099E+02 -0.48617123242E+02  0.52646897829E+02  0.00000000000E+00 0.  1.
         13    1    4    4    0    0 -0.57653491585E+02  0.14686968229E+03 -0.47713072452E+03  0.50254189571E+03  0.00000000000E+00 0. -1.
          2    1    1    2  501    0 -0.13965098154E+02 -0.70185597854E+02 -0.94361918115E+02  0.11842809507E+03  0.00000000000E+00 0. -1.
<scales pt_clust_5="13000.00000" pt_clust_6="13000.00000" pt_clust_7="13000.00000" pt_clust_8="13000.00000" pt_clust_9="71.56146"></scales>
<clustering>
<clus scale="   71.561">  1  9  2 -1</clus>
<clus scale="   89.419">  5  6 -1 -1</clus>
<clus scale="   97.454">  7  8 -1 -1</clus>
<clus scale="  147.766">  2  5  1 -1</clus>
<clus scale="   71.561">  1  5  2 -1</clus>
</clustering>
</event>
<event>
 9    1  0.1445593E-005  0.1355599E+03  0.7546771E-02  0.1238576E+00
         21   -1    0    0  501  502  0.00000000000E+00  0.00000000000E+00  0.90809070105E+02  0.90809070105E+02  0.00000000000E+00 0.  1.
          2   -1    0    0  502    0 -0.00000000000E+00 -0.00000000000E+00 -0.30275936218E+03  0.30275936218E+03  0.00000000000E+00 0. -1.
         23    2    1    2    0    0  0.96127666753E+01  0.12540377835E+02 -0.33526946807E+02  0.97199446571E+02  0.89855494501E+02 0.  0.
         23    2    1    2    0    0  0.80016856823E+02 -0.59254472689E+02 -0.93662203453E+02  0.16445944387E+03  0.91435826755E+02 0.  0.
        -11    1    4    4    0    0  0.41754948339E+02 -0.81031807292E+02 -0.63193629385E+02  0.11091917913E+03  0.00000000000E+00 0.  1.
         11    1    4    4    0    0  0.38261908485E+02  0.21777334603E+02 -0.30468574068E+02  0.53540264746E+02  0.00000000000E+00 0. -1.
        -11    1    3    3    0    0 -0.20620439375E+02  0.40038689422E+02 -0.33834711816E+02  0.56330159722E+02  0.00000000000E+00 0. -1.
         11    1    3    3    0    0  0.30233206050E+02 -0.27498311587E+02  0.30776500912E+00  0.40869286849E+02  0.00000000000E+00 0.  1.
          2    1    1    2  501    0 -0.89629623499E+02  0.46714094854E+02 -0.84761141813E+02  0.13190954184E+03  0.00000000000E+00 0. -1.
<scales pt_clust_5="13000.00000" pt_clust_6="13000.00000" pt_clust_7="13000.00000" pt_clust_8="13000.00000" pt_clust_9="100.07987"></scales>
<clustering>
<clus scale="   89.855">  7  8 -1 -1</clus>
<clus scale="   91.234">  2  7  1 -1</clus>
<clus scale="   91.436">  5  6 -1 -1</clus>
<clus scale="  100.080">  1  9  2 -1</clus>
<clus scale="  100.080">  1  5  2 -1</clus>
</clustering>
</event>
<event>
 9    1  0.1445593E-005  0.1055475E+03  0.7546771E-02  0.1270199E+00
         21   -1    0    0  501  502  0.00000000000E+00  0.00000000000E+00  0.16295504677E+03  0.16295504677E+03  0.00000000000E+00 0.  1.
          1   -1    0    0  502    0 -0.00000000000E+00 -0.00000000000E+00 -0.14548444141E+03  0.14548444141E+03  0.00000000000E+00 0. -1.
         23    2    1    2    0    0  0.62467867756E+02 -0.39865150312E+02 -0.46156434711E+02  0.12649541086E+03  0.91538012829E+02 0.  0.
         23    2    1    2    0    0 -0.96164059898E+01  0.14364338344E+02  0.47020778901E+00  0.95732976612E+02  0.94158229781E+02 0.  0.
        -11    1    4    4    0    0 -0.14264439465E+02  0.50093865993E+02  0.18716175739E+02  0.55345865950E+02  0.00000000000E+00 0. -1.
         11    1    4    4    0    0  0.46480334748E+01 -0.35729527650E+02 -0.18245967950E+02  0.40387110663E+02  0.00000000000E+00 0.  1.
        -11    1    3    3    0    0  0.25598261631E+02 -0.30796312244E+02  0.24026220778E+02  0.46700568854E+02  0.00000000000E+00 0.  1.
         11    1    3    3    0    0  0.36869606125E+02 -0.90688380675E+01 -0.70182655489E+02  0.79794842008E+02  0.00000000000E+00 0. -1.
          1    1    1    2  501    0 -0.52851461766E+02  0.25500811968E+02  0.63156832283E+02  0.86211100711E+02  0.00000000000E+00 0. -1.
<scales pt_clust_5="13000.00000" pt_clust_6="13000.00000" pt_clust_7="13000.00000" pt_clust_8="13000.00000" pt_clust_9="58.68193"></scales>
<clustering>
<clus scale="   58.682">  1  9  2 -1</clus>
<clus scale="   91.538">  7  8 -1 -1</clus>
<clus scale="   94.158">  5  6 -1 -1</clus>
<clus scale="  103.217">  2  7  1 -1</clus>
<clus scale="   58.682">  1  5  2 -1</clus>
</clustering>
</event>
<event>
 9    1  0.1445593E-005  0.1444868E+03  0.7546771E-02  0.1208000E+00
         21   -1    0    0  501  502  0.00000000000E+00  0.00000000000E+00  0.17501176781E+03  0.17501176781E+03  0.00000000000E+00 0. -1.
          2   -1    0    0  502    0 -0.00000000000E+00 -0.00000000000E+00 -0.21646836052E+03  0.21646836052E+03  0.00000000000E+00 0. -1.
         23    2    1    2    0    0  0.13119872891E+03 -0.27951559652E+02 -0.97392685783E+02  0.18744590904E+03  0.87499928099E+02 0.  0.
         23    2    1    2    0    0 -0.79800954135E+02  0.29170313054E+02 -0.51801370864E+01  0.12416926952E+03  0.90399525602E+02 0.  0.
        -11    1    4    4    0    0 -0.46966048688E+02  0.61616562907E+02 -0.82062611623E+01  0.77908621320E+02  0.00000000000E+00 0.  1.
         11    1    4    4    0    0 -0.32834905447E+02 -0.32446249853E+02  0.30261240758E+01  0.46260648203E+02  0.00000000000E+00 0. -1.
        -13    1    3    3    0    0  0.43506655818E+02 -0.53133094518E+02 -0.36671130084E+02  0.77850668688E+02  0.00000000000E+00 0. -1.
         13    1    3    3    0    0  0.87692073091E+02  0.25181534866E+02 -0.60721555700E+02  0.10959524035E+03  0.00000000000E+00 0.  1.
          2    1    1    2  501    0 -0.51397774774E+02 -0.12187534020E+01  0.61116230167E+02  0.79864949768E+02  0.00000000000E+00 0. -1.
<scales pt_clust_5="13000.00000" pt_clust_6="13000.00000" pt_clust_7="13000.00000" pt_clust_8="13000.00000" pt_clust_9="51.41222"></scales>
<clustering>
<clus scale="   51.412">  1  9  2 -1</clus>
<clus scale="   87.500">  7  8 -1 -1</clus>
<clus scale="   90.400">  5  6 -1 -1</clus>
<clus scale="  142.691">  2  7  1 -1</clus>
<clus scale="   51.412">  1  5  2 -1</clus>
</clustering>
</event>
<event>
 9    1  0.1445593E-005  0.9143090E+02  0.7546771E-02  0.1306574E+00
         21   -1    0    0  501  502  0.00000000000E+00  0.00000000000E+00  0.13799380898E+02  0.13799380898E+02  0.00000000000E+00 0.  1.
          1   -1    0    0  502    0 -0.00000000000E+00 -0.00000000000E+00 -0.76123584204E+03  0.76123584204E+03  0.00000000000E+00 0. -1.
         23    2    1    2    0    0 -0.39745761348E+01 -0.24769030467E+01 -0.35336446869E+03  0.36225708515E+03  0.79635517860E+02 0.  0.
         23    2    1    2    0    0 -0.18950273212E+02  0.15251095894E+02 -0.33804422456E+03  0.35090860170E+03  0.90946358972E+02 0.  0.
        -11    1    3    3    0    0 -0.30925213497E+02  0.25105561431E+02 -0.21294900176E+03  0.21664241365E+03  0.00000000000E+00 0.  1.
         11    1    3    3    0    0  0.26950637362E+02 -0.27582464478E+02 -0.14041546693E+03  0.14561467150E+03  0.00000000000E+00 0. -1.
        -13    1    4    4    0    0 -0.52814223858E+02  0.22538488462E+02 -0.17341984854E+03  0.18267941748E+03  0.00000000000E+00 0.  1.
         13    1    4    4    0    0  0.33863950646E+02 -0.72873925678E+01 -0.16462437602E+03  0.16822918422E+03  0.00000000000E+00 0. -1.
          1    1    1    2  501    0  0.22924849346E+02 -0.12774192847E+02 -0.56027767901E+02  0.61869536093E+02  0.00000000000E+00 0. -1.
<scales pt_clust_5="13000.00000" pt_clust_6="13000.00000" pt_clust_7="13000.00000" pt_clust_8="13000.00000" pt_clust_9="26.24364"></scales>
<clustering>
<clus scale="   26.244">  1  9  2 -1</clus>
<clus scale="   79.636">  5  6 -1 -1</clus>
<clus scale="   80.188">  2  5  1 -1</clus>
<clus scale="   90.946">  7  8 -1 -1</clus>
<clus scale="   26.244">  1  5  2 -1</clus>
</clustering>
</event>
<event>
 9    1  0.1445593E-005  0.1038567E+03  0.7546771E-02  0.1272988E+00
         21   -1    0    0  501  502  0.00000000000E+00  0.00000000000E+00  0.24173014037E+03  0.24173014037E+03  0.00000000000E+00 0.  1.
         -2   -1    0    0    0  501 -0.00000000000E+00 -0.00000000000E+00 -0.13921917613E+03  0.13921917613E+03  0.00000000000E+00 0.  1.
         23    2    1    2    0    0 -0.42235022993E+02  0.94313464284E+01 -0.62504420274E+02  0.11740077979E+03  0.89461684971E+02 0.  0.
         23    2    1    2    0    0  0.63582870305E+02 -0.24433377464E+02  0.18865279527E+02  0.11508761691E+03  0.90826700169E+02 0.  0.
        -13    1    3    3    0    0 -0.29232083347E+02 -0.32418136855E+02 -0.59062670189E+02  0.73442830173E+02  0.00000000000E+00 0. -1.
         13    1    3    3    0    0 -0.13002939646E+02  0.41849483283E+02 -0.34417500857E+01  0.43957949613E+02  0.00000000000E+00 0.  1.
        -13    1    4    4    0    0 -0.21499662266E+02  0.36458693180E-01  0.15477678700E+02  0.26491420209E+02  0.00000000000E+00 0. -1.
         13    1    4    4    0    0  0.85082532571E+02 -0.24469836157E+02  0.33876008275E+01  0.88596196699E+02  0.00000000000E+00 0.  1.
         -2    1    1    2    0  502 -0.21347847312E+02  0.15002031036E+02  0.14615010499E+03  0.14846091980E+03  0.00000000000E+00 0.  1.
<scales pt_clust_5="13000.00000" pt_clust_6="13000.00000" pt_clust_7="13000.00000" pt_clust_8="13000.00000" pt_clust_9="26.09198"></scales>
<clustering>
<clus scale="   26.092">  1  9  2 -1</clus>
<clus scale="   89.462">  5  6 -1 -1</clus>
<clus scale="   90.827">  7  8 -1 -1</clus>
<clus scale="  102.665">  2  5  1 -1</clus>
<clus scale="   26.092">  1  5  2 -1</clus>
</clustering>
</event>
<event>
 9    1  0.1445593E-005  0.9806204E+02  0.7546771E-02  0.1285220E+00
          1   -1    0    0  502    0 -0.00000000000E+00  0.00000000000E+00  0.27791130395E+03  0.27791130395E+03  0.00000000000E+00 0. -1.
         21   -1    0    0  501  502  0.00000000000E+00 -0.00000000000E+00 -0.58443038035E+02  0.58443038035E+02  0.00000000000E+00 0. -1.
         23    2    1    2    0    0  0.48423878369E+02 -0.22333836797E+02  0.12755345967E+03  0.16662975529E+03  0.93015686912E+02 0.  0.
         23    2    1    2    0    0 -0.75978129886E+00  0.95880718180E+01  0.70734041965E+02  0.11603151964E+03  0.91474042594E+02 0.  0.
        -11    1    3    3    0    0 -0.18758026093E+02  0.20296840239E+02  0.34064659328E+02  0.43866003713E+02  0.00000000000E+00 0.  1.
         11    1    3    3    0    0  0.67181904463E+02 -0.42630677037E+02  0.93488800339E+02  0.12276375157E+03  0.00000000000E+00 0. -1.
        -11    1    4    4    0    0 -0.45723681721E+02  0.73770475553E+01  0.42720653863E+02  0.63008968943E+02  0.00000000000E+00 0.  1.
         11    1    4    4    0    0  0.44963900422E+02  0.22110242627E+01  0.28013388102E+02  0.53022550697E+02  0.00000000000E+00 0. -1.
          1    1    1    2  501    0 -0.47664097071E+02  0.12745764979E+02  0.21180764282E+02  0.53693067057E+02  0.00000000000E+00 0. -1.
<scales pt_clust_5="13000.00000" pt_clust_6="13000.00000" pt_clust_7="13000.00000" pt_clust_8="13000.00000" pt_clust_9="49.33884"></scales>
<clustering>
<clus scale="   49.339">  2  9  1 -1</clus>
<clus scale="   91.474">  7  8 -1 -1</clus>
<clus scale="   93.016">  5  6 -1 -1</clus>
<clus scale="   96.601">  2  7  1 -1</clus>
<clus scale="   49.339">  2  5  1 -1</clus>
</clustering>
</event>
<event>
 9    1  0.1445593E-005  0.1399104E+03  0.7546771E-02  0.1213564E+00
         21   -1    0    0  501  502  0.00000000000E+00  0.00000000000E+00  0.40487729012E+03  0.40487729012E+03  0.00000000000E+00 0. -1.
         -1   -1    0    0    0  501 -0.00000000000E+00 -0.00000000000E+00 -0.64102662716E+02  0.64102662716E+02  0.00000000000E+00 0.  1.
         23    2    1    2    0    0  0.36131482483E+02  0.91532517281E+02  0.12038051881E+03  0.18059993442E+03  0.91875901391E+02 0.  0.
         23    2    1    2    0    0 -0.88369891654E+01 -0.11652562955E+03  0.17605136615E+03  0.23062256147E+03  0.92392465144E+02 0.  0.
        -13    1    4    4    0    0  0.39574458505E+02 -0.68258169546E+02  0.76808345842E+02  0.11011283970E+03  0.00000000000E+00 0.  1.
         13    1    4    4    0    0 -0.48411447671E+02 -0.48267460002E+02  0.99243020309E+02  0.12050972177E+03  0.00000000000E+00 0. -1.
        -13    1    3    3    0    0  0.23706121110E+02  0.84108552402E+01  0.86328371323E+02  0.89918353851E+02  0.00000000000E+00 0. -1.
         13    1    3    3    0    0  0.12425361373E+02  0.83121662041E+02  0.34052147489E+02  0.90681580568E+02  0.00000000000E+00 0.  1.
         -1    1    1    2    0  502 -0.27294493318E+02  0.24993112267E+02  0.44342742442E+02  0.57757456951E+02  0.00000000000E+00 0.  1.
<scales pt_clust_5="13000.00000" pt_clust_6="13000.00000" pt_clust_7="13000.00000" pt_clust_8="13000.00000" pt_clust_9="37.00872"></scales>
<clustering>
<clus scale="   37.009">  1  9  2 -1</clus>
<clus scale="   91.876">  7  8 -1 -1</clus>
<clus scale="   92.392">  5  6 -1 -1</clus>
<clus scale="  139.570">  2  7  1 -1</clus>
<clus scale="   37.009">  1  5  2 -1</clus>
</clustering>
</event>
<event>
 9    1  0.1445593E-005  0.1096915E+03  0.7546771E-02  0.1261603E+00
          1   -1    0    0  502    0 -0.00000000000E+00  0.00000000000E+00  0.39381637375E+02  0.39381637375E+02  0.00000000000E+00 0. -1.
         21   -1    0    0  501  502  0.00000000000E+00 -0.00000000000E+00 -0.74767214841E+03  0.74767214841E+03  0.00000000000E+00 0.  1.
         23    2    1    2    0    0  0.15160183734E+02 -0.29576143836E+02 -0.14288379169E+03  0.17323928160E+03  0.92149288138E+02 0.  0.
         23    2    1    2    0    0 -0.98634787319E+02  0.47553444378E+02 -0.26530466829E+03  0.30180098874E+03  0.93311941600E+02 0.  0.
        -13    1    3    3    0    0 -0.26026207559E+02 -0.38547516690E+01 -0.46409932216E+01  0.26716313526E+02  0.00000000000E+00 0.  1.
         13    1    3    3    0    0  0.41186391293E+02 -0.25721392167E+02 -0.13824279847E+03  0.14652296807E+03  0.00000000000E+00 0. -1.
        -13    1    4    4    0    0 -0.44107976169E+02 -0.41341833478E+01 -0.19122626549E+03  0.19629082925E+03  0.00000000000E+00 0.  1.
         13    1    4    4    0    0 -0.54526811151E+02  0.51687627725E+02 -0.74078402798E+02  0.10551015949E+03  0.00000000000E+00 0. -1.
          1    1    1    2  501    0  0.83474603585E+02 -0.17977300541E+02 -0.30010205105E+03  0.31201351545E+03  0.00000000000E+00 0. -1.
<scales pt_clust_5="13000.00000" pt_clust_6="13000.00000" pt_clust_7="13000.00000" pt_clust_8="13000.00000" pt_clust_9="85.38848"></scales>
<clustering>
<clus scale="   85.388">  2  9  1 -1</clus>
<clus scale="   92.149">  5  6 -1 -1</clus>
<clus scale="   93.312">  7  8 -1 -1</clus>
<clus scale="  108.704">  1  5  2 -1</clus>
<clus scale="   85.388">  2  5  1 -1</clus>
</clustering>
</event>
<event>
 9    1  0.1445593E-005  0.1251908E+03  0.7546771E-02  0.1238201E+00
          2   -1    0    0  502    0 -0.00000000000E+00  0.00000000000E+00  0.55096149810E+03  0.55096149810E+03  0.00000000000E+00 0. -1.
         21   -1    0    0  501  502  0.00000000000E+00 -0.00000000000E+00 -0.55740564038E+02  0.55740564038E+02  0.00000000000E+00 0. -1.
         23    2    1    2    0    0  0.17647618002E+02 -0.28772707699E+02  0.11398454737E+03  0.14945584991E+03  0.90582928332E+02 0.  0.
         23    2    1    2    0    0 -0.49157200260E+02  0.11407564064E+03  0.26459309122E+03  0.30934387106E+03  0.10126423119E+03 0.  0.
        -11    1    3    3    0    0 -0.37170592907E+02 -0.14412789685E+02  0.50951665740E+02  0.64695082698E+02  0.00000000000E+00 0.  1.
         11    1    3    3    0    0  0.54818210909E+02 -0.14359918014E+02  0.63032881627E+02  0.84760767215E+02  0.00000000000E+00 0. -1.
        -13    1    4    4    0    0 -0.45179475905E+01  0.61213776552E+02  0.21662658453E+03  0.22515464777E+03  0.00000000000E+00 0. -1.
         13    1    4    4    0    0 -0.44639252670E+02  0.52861864086E+02  0.47966506691E+02  0.84189223287E+02  0.00000000000E+00 0.  1.
          2    1    1    2  501    0  0.31509582259E+02 -0.85302932940E+02  0.11664329548E+03  0.14790234116E+03  0.00000000000E+00 0. -1.
<scales pt_clust_5="13000.00000" pt_clust_6="13000.00000" pt_clust_7="13000.00000" pt_clust_8="13000.00000" pt_clust_9="90.93648"></scales>
<clustering>
<clus scale="   90.583">  5  6 -1 -1</clus>
<clus scale="   90.936">  2  9  1 -1</clus>
<clus scale="  101.264">  7  8 -1 -1</clus>
<clus scale="  116.720">  1  5  2 -1</clus>
<clus scale="   90.936">  2  5  1 -1</clus>
</clustering>
</event>
<event>
 9    1  0.1445593E-005  0.1341703E+03  0.7546771E-02  0.1223068E+00
          3   -1    0    0  502    0 -0.00000000000E+00  0.00000000000E+00  0.63996078145E+02  0.63996078145E+02  0.00000000000E+00 0. -1.
         21   -1    0    0  501  502  0.00000000000E+00 -0.00000000000E+00 -0.70716266591E+03  0.70716266591E+03  0.00000000000E+00 0.  1.
         23    2    1    2    0    0  0.18365625175E+02 -0.87391635713E+02 -0.35910412546E+02  0.13715318990E+03  0.97707960731E+02 0.  0.
         23    2    1    2    0    0 -0.49034632537E+02  0.10029924985E+03 -0.54064584431E+03  0.55954663462E+03  0.91269779379E+02 0.  0.
        -11    1    4    4    0    0  0.79376976352E+01  0.51484967931E+02 -0.10201579824E+03  0.11454663704E+03  0.00000000000E+00 0. -1.
         11    1    4    4    0    0 -0.56972330172E+02  0.48814281923E+02 -0.43863004607E+03  0.44499999757E+03  0.00000000000E+00 0.  1.
        -13    1    3    3    0    0  0.73001195611E+01 -0.10513218179E+03 -0.44698413481E+02  0.11447277214E+03  0.00000000000E+00 0. -1.
         13    1    3    3    0    0  0.11065505613E+02  0.17740546075E+02  0.87880009343E+01  0.22680417764E+02  0.00000000000E+00 0.  1.
          3    1    1    2  501    0  0.30669007363E+02 -0.12907614141E+02 -0.66610330910E+02  0.74458919542E+02  0.00000000000E+00 0. -1.
<scales pt_clust_5="13000.00000" pt_clust_6="13000.00000" pt_clust_7="13000.00000" pt_clust_8="13000.00000" pt_clust_9="33.27453"></scales>
<clustering>
<clus scale="   33.275">  2  9  1 -1</clus>
<clus scale="   91.270">  5  6 -1 -1</clus>
<clus scale="   97.708">  7  8 -1 -1</clus>
<clus scale="  129.557">  2  5  1 -1</clus>
<clus scale="   33.275">  2  5  1 -1</clus>
</clustering>
</event>
<event>
 9    1  0.1445593E-005  0.9436594E+02  0.7546771E-02  0.1292956E+00
         21   -1    0    0  501  502  0.00000000000E+00  0.00000000000E+00  0.23413439311E+03  0.23413439311E+03  0.00000000000E+00 0. -1.
          1   -1    0    0  502    0 -0.00000000000E+00 -0.00000000000E+00 -0.10847300791E+03  0.10847300791E+03  0.00000000000E+00 0. -1.
         23    2    1    2    0    0 -0.17263134080E+01 -0.92819194816E+01 -0.14843232233E+02  0.95695673153E+02  0.94064903815E+02 0.  0.
         23    2    1    2    0    0 -0.17618397617E+02 -0.10342740713E+02 -0.78816349851E+01  0.95988485660E+02  0.93457418053E+02 0.  0.
        -11    1    3    3    0    0 -0.11679279802E+02  0.41303108223E+02 -0.50472426952E+01  0.43218363972E+02  0.00000000000E+00 0.  1.
         11    1    3    3    0    0  0.99529663940E+01 -0.50585027704E+02 -0.97959895373E+01  0.52477309181E+02  0.00000000000E+00 0. -1.
        -13    1    4    4    0    0 -0.45407603593E+02  0.14259356608E+02  0.17844805300E+02  0.50829290681E+02  0.00000000000E+00 0.  1.
         13    1    4    4    0    0  0.27789205976E+02 -0.24602097321E+02 -0.25726440285E+02  0.45159194979E+02  0.00000000000E+00 0. -1.
          1    1    1    2  501    0  0.19344711025E+02  0.19624660195E+02  0.14838625242E+03  0.15092324221E+03  0.00000000000E+00 0. -1.
<scales pt_clust_5="13000.00000" pt_clust_6="13000.00000" pt_clust_7="13000.00000" pt_clust_8="13000.00000" pt_clust_9="27.55622"></scales>
<clustering>
<clus scale="   27.556">  1  9  2 -1</clus>
<clus scale="   93.457">  7  8 -1 -1</clus>
<clus scale="   93.760">  1  7  2 -1</clus>
<clus scale="   94.065">  5  6 -1 -1</clus>
<clus scale="   27.556">  1  5  2 -1</clus>
</clustering>
</event>
<event>
 9    1  0.1445593E-005  0.1106934E+03  0.7546771E-02  0.1259948E+00
          1   -1    0    0  502    0 -0.00000000000E+00  0.00000000000E+00  0.32280417218E+03  0.32280417218E+03  0.00000000000E+00 0. -1.
         21   -1    0    0  501  502  0.00000000000E+00 -0.00000000000E+00 -0.77487734740E+02  0.77487734740E+02  0.00000000000E+00 0. -1.
         23    2    1    2    0    0  0.28587787954E+01  0.48679864390E+02  0.14973966643E+03  0.18177111185E+03  0.90779224425E+02 0.  0.
         23    2    1    2    0    0 -0.26436402107E+02 -0.77358499823E+02  0.12152925131E+03  0.17322289574E+03  0.92485630416E+02 0.  0.
        -11    1    3    3    0    0 -0.17166598384E+02 -0.22615257887E+02  0.50671908077E+02  0.58084285806E+02  0.00000000000E+00 0. -1.
         11    1    3    3    0    0  0.20025377180E+02  0.71295122277E+02  0.99067758350E+02  0.12368682604E+03  0.00000000000E+00 0.  1.
        -11    1    4    4    0    0 -0.36186863388E+02  0.83090785090E+01  0.33610944800E+02  0.50082187231E+02  0.00000000000E+00 0.  1.
         11    1    4    4    0    0  0.97504612808E+01 -0.85667578332E+02  0.87918306505E+02  0.12314070851E+03  0.00000000000E+00 0. -1.
          1    1    1    2  501    0  0.23577623312E+02  0.28678635433E+02 -0.25952480289E+02  0.45297899339E+02  0.00000000000E+00 0. -1.
<scales pt_clust_5="13000.00000" pt_clust_6="13000.00000" pt_clust_7="13000.00000" pt_clust_8="13000.00000" pt_clust_9="37.12638"></scales>
<clustering>
<clus scale="   37.126">  2  9  1 -1</clus>
<clus scale="   90.779">  5  6 -1 -1</clus>
<clus scale="   92.486">  7  8 -1 -1</clus>
<clus scale="  109.272">  1  5  2 -1</clus>
<clus scale="   37.126">  2  5  1 -1</clus>
</clustering>
</event>
<event>
 9    1  0.1445593E-005  0.2184435E+03  0.7546771E-02  0.1135065E+00
         -3   -1    0    0    0  501 -0.00000000000E+00  0.00000000000E+00  0.24601981548E+03  0.24601981548E+03  0.00000000000E+00 0.  1.
         21   -1    0    0  501  502  0.00000000000E+00 -0.00000000000E+00 -0.46660613532E+03  0.46660613532E+03  0.00000000000E+00 0. -1.
         23    2    1    2    0    0  0.21017716751E+03 -0.34044800852E+02  0.11394094033E+03  0.25797552784E+03  0.90748800945E+02 0.  0.
         23    2    1    2    0    0 -0.16867139116E+03 -0.82352981352E+01 -0.10720361102E+03  0.21973261244E+03  0.90950252449E+02 0.  0.
        -11    1    4    4    0    0 -0.45341010396E+01  0.23324142049E+02 -0.66514050773E+01  0.24674174030E+02  0.00000000000E+00 0.  1.
         11    1    4    4    0    0 -0.16413729012E+03 -0.31559440185E+02 -0.10055220594E+03  0.19505843841E+03  0.00000000000E+00 0. -1.
        -13    1    3    3    0    0  0.14631447108E+03  0.16427537325E+02  0.92209342275E+02  0.17372492980E+03  0.00000000000E+00 0.  1.
         13    1    3    3    0    0  0.63862696429E+02 -0.50472338176E+02  0.21731598050E+02  0.84250598039E+02  0.00000000000E+00 0. -1.
         -3    1    1    2    0  502 -0.41505776347E+02  0.42280098987E+02 -0.22732364915E+03  0.23491781053E+03  0.00000000000E+00 0.  1.
<scales pt_clust_5="13000.00000" pt_clust_6="13000.00000" pt_clust_7="13000.00000" pt_clust_8="13000.00000" pt_clust_9="59.24809"></scales>
<clustering>
<clus scale="   59.248">  2  9  1 -1</clus>
<clus scale="   90.749">  7  8 -1 -1</clus>
<clus scale="   90.950">  5  6 -1 -1</clus>
<clus scale="  218.360">  1  7  2 -1</clus>
<clus scale="   59.248">  2  5  1 -1</clus>
</clustering>
</event>
<event>
 9    1  0.1445593E-005  0.2196677E+03  0.7546771E-02  0.1171776E+00
          2   -1    0    0  502    0 -0.00000000000E+00  0.00000000000E+00  0.10925128995E+04  0.10925128995E+04  0.00000000000E+00 0. -1.
         21   -1    0    0  501  502  0.00000000000E+00 -0.00000000000E+00 -0.76407556976E+02  0.76407556976E+02  0.00000000000E+00 0. -1.
         23    2    1    2    0    0  0.22847790906E+02  0.65986720042E+01  0.10252765582E+03  0.13670892644E+03  0.87245895828E+02 0.  0.
         23    2    1    2    0    0  0.15520682248E+03 -0.10353040873E+03  0.72816565021E+03  0.75748106175E+03  0.93512787776E+02 0.  0.
        -13    1    3    3    0    0  0.59598135096E+01 -0.39768233173E+02  0.36724737089E+02  0.54458590332E+02  0.00000000000E+00 0. -1.
         13    1    3    3    0    0  0.16887977396E+02  0.46366905177E+02  0.65802918734E+02  0.82250336109E+02  0.00000000000E+00 0.  1.
        -13    1    4    4    0    0 -0.11225571510E+02 -0.18132460220E+02  0.87756871867E+02  0.90310952432E+02  0.00000000000E+00 0.  1.
         13    1    4    4    0    0  0.16643239399E+03 -0.85397948513E+02  0.64040877835E+03  0.66717010932E+03  0.00000000000E+00 0. -1.
          2    1    1    2  501    0 -0.17805461339E+03  0.96931736728E+02  0.18541203651E+03  0.27473046831E+03  0.00000000000E+00 0. -1.
<scales pt_clust_5="13000.00000" pt_clust_6="13000.00000" pt_clust_7="13000.00000" pt_clust_8="13000.00000" pt_clust_9="198.76938"></scales>
<clustering>
<clus scale="   87.246">  5  6 -1 -1</clus>
<clus scale="   90.429">  1  5  2 -1</clus>
<clus scale="   93.513">  7  8 -1 -1</clus>
<clus scale="  198.769">  2  9  1 -1</clus>
<clus scale="  198.769">  2  5  1 -1</clus>
</clustering>
</event>
<event>
 9    1  0.1445593E-005  0.9386318E+02  0.7546771E-02  0.1295756E+00
          1   -1    0    0  502    0 -0.00000000000E+00  0.00000000000E+00  0.22008591617E+03  0.22008591617E+03  0.00000000000E+00 0. -1.
         21   -1    0    0  501  502  0.00000000000E+00 -0.00000000000E+00 -0.86465590948E+02  0.86465590948E+02  0.00000000000E+00 0. -1.
         23    2    1    2    0    0 -0.86478620849E+01  0.17171923562E+02  0.14376407040E+03  0.17006446026E+03  0.88792748745E+02 0.  0.
         23    2    1    2    0    0 -0.12236312873E+02 -0.16081592419E+02  0.23068233813E+02  0.97239459241E+02  0.92276887977E+02 0.  0.
        -11    1    3    3    0    0  0.34455003495E+02  0.15291012537E+02  0.29313050893E+02  0.47751620736E+02  0.00000000000E+00 0.  1.
         11    1    3    3    0    0 -0.43102865580E+02  0.18809110251E+01  0.11445101950E+03  0.12231283952E+03  0.00000000000E+00 0. -1.
        -13    1    4    4    0    0 -0.49886784089E+02 -0.36489427108E+01 -0.24626374213E+01  0.50080640898E+02  0.00000000000E+00 0. -1.
         13    1    4    4    0    0  0.37650471216E+02 -0.12432649708E+02  0.25530871235E+02  0.47158818343E+02  0.00000000000E+00 0.  1.
          1    1    1    2  501    0  0.20884174958E+02 -0.10903311436E+01 -0.33211978985E+02  0.39247587618E+02  0.00000000000E+00 0. -1.
<scales pt_clust_5="13000.00000" pt_clust_6="13000.00000" pt_clust_7="13000.00000" pt_clust_8="13000.00000" pt_clust_9="20.91262"></scales>
<clustering>
<clus scale="   20.913">  2  9  1 -1</clus>
<clus scale="   88.793">  5  6 -1 -1</clus>
<clus scale="   90.440">  1  5  2 -1</clus>
<clus scale="   92.277">  7  8 -1 -1</clus>
<clus scale="   20.913">  2  5  1 -1</clus>
</clustering>
</event>
<event>
 9    1  0.1445593E-005  0.1059127E+03  0.7546771E-02  0.1268887E+00
         -4   -1    0    0    0  501 -0.00000000000E+00  0.00000000000E+00  0.23575226837E+03  0.23575226837E+03  0.00000000000E+00 0.  1.
         21   -1    0    0  501  502  0.00000000000E+00 -0.00000000000E+00 -0.12109655498E+03  0.12109655498E+03  0.00000000000E+00 0. -1.
         23    2    1    2    0    0 -0.42020119104E+02 -0.34098089559E+02  0.17934353596E+03  0.20841064246E+03  0.91337406805E+02 0.  0.
         23    2    1    2    0    0  0.42224797585E+02  0.25964820611E+01 -0.53272358783E+02  0.11493137587E+03  0.92636934857E+02 0.  0.
        -13    1    4    4    0    0 -0.20823034186E+02 -0.24072886975E+02 -0.26533190097E+02  0.41438060002E+02  0.00000000000E+00 0. -1.
         13    1    4    4    0    0  0.63047831771E+02  0.26669369036E+02 -0.26739168686E+02  0.73493315871E+02  0.00000000000E+00 0.  1.
        -13    1    3    3    0    0 -0.14312991539E+02  0.31693362670E+02  0.58255035725E+02  0.67845266242E+02  0.00000000000E+00 0. -1.
         13    1    3    3    0    0 -0.27707127565E+02 -0.65791452228E+02  0.12108850023E+03  0.14056537622E+03  0.00000000000E+00 0.  1.
         -4    1    1    2    0  502 -0.20467848053E+00  0.31501607497E+02 -0.11415463783E+02  0.33506805004E+02  0.00000000000E+00 0.  1.
<scales pt_clust_5="13000.00000" pt_clust_6="13000.00000" pt_clust_7="13000.00000" pt_clust_8="13000.00000" pt_clust_9="31.50227"></scales>
<clustering>
<clus scale="   31.502">  2  9  1 -1</clus>
<clus scale="   91.337">  7  8 -1 -1</clus>
<clus scale="   92.637">  5  6 -1 -1</clus>
<clus scale="  104.778">  1  7  2 -1</clus>
<clus scale="   31.502">  2  5  1 -1</clus>
</clustering>
</event>
<event>
 9    1  0.1445593E-005  0.1581676E+03  0.7546771E-02  0.1192693E+00
         21   -1    0    0  501  502  0.00000000000E+00  0.00000000000E+00  0.45908918242E+02  0.45908918242E+02  0.00000000000E+00 0.  1.
          1   -1    0    0  502    0 -0.00000000000E+00 -0.00000000000E+00 -0.80411289319E+03  0.80411289319E+03  0.00000000000E+00 0. -1.
         23    2    1    2    0    0  0.11943580810E+03 -0.23477271055E+02 -0.57391298032E+03  0.59399550282E+03  0.92943283166E+02 0.  0.
         23    2    1    2    0    0 -0.10729629708E+03  0.41154936151E+02 -0.14839402552E+03  0.21421171830E+03  0.10324557769E+03 0.  0.
        -13    1    4    4    0    0 -0.47380031020E+02 -0.69553569499E+01 -0.89385033024E+00  0.47896172061E+02  0.00000000000E+00 0.  1.
         13    1    4    4    0    0 -0.59916266060E+02  0.48110293101E+02 -0.14750017519E+03  0.16631554624E+03  0.00000000000E+00 0. -1.
        -13    1    3    3    0    0  0.10593646039E+03  0.77816091438E+01 -0.51595646086E+03  0.52677714129E+03  0.00000000000E+00 0. -1.
         13    1    3    3    0    0  0.13499347710E+02 -0.31258880198E+02 -0.57956519453E+02  0.67218361532E+02  0.00000000000E+00 0.  1.
          1    1    1    2  501    0 -0.12139511020E+02 -0.17677665097E+02 -0.35896969118E+02  0.41814590312E+02  0.00000000000E+00 0. -1.
<scales pt_clust_5="13000.00000" pt_clust_6="13000.00000" pt_clust_7="13000.00000" pt_clust_8="13000.00000" pt_clust_9="21.44452"></scales>
<clustering>
<clus scale="   21.445">  1  9  2 -1</clus>
<clus scale="   92.943">  7  8 -1 -1</clus>
<clus scale="  103.246">  5  6 -1 -1</clus>
<clus scale="  151.644">  2  7  1 -1</clus>
<clus scale="   21.445">  1  5  2 -1</clus>
</clustering>
</event>
<event>
 9    1  0.1445593E-005  0.2389669E+03  0.7546771E-02  0.1120607E+00
         21   -1    0    0  501  502  0.00000000000E+00  0.00000000000E+00  0.27896893992E+03  0.27896893992E+03  0.00000000000E+00 0. -1.
         -2   -1    0    0    0  501 -0.00000000000E+00 -0.00000000000E+00 -0.35827190439E+03  0.35827190439E+03  0.00000000000E+00 0.  1.
         23    2    1    2    0    0 -0.74438425616E+02 -0.17406625930E+03 -0.94591292760E+02  0.23049968480E+03  0.91337014367E+02 0.  0.
         23    2    1    2    0    0  0.87014575998E+02  0.27269388461E+03 -0.21703038453E+02  0.30065662131E+03  0.89386189775E+02 0.  0.
        -11    1    4    4    0    0  0.10241826272E+03  0.21493264096E+03 -0.31214707080E+02  0.24012475638E+03  0.00000000000E+00 0.  1.
         11    1    4    4    0    0 -0.15403686719E+02  0.57761243650E+02  0.95116686270E+01  0.60531864936E+02  0.00000000000E+00 0. -1.
        -13    1    3    3    0    0  0.19707705967E+02 -0.48943980050E+02 -0.15036071584E+02  0.54863378553E+02  0.00000000000E+00 0. -1.
         13    1    3    3    0    0 -0.94146131582E+02 -0.12512227925E+03 -0.79555221176E+02  0.17563630625E+03  0.00000000000E+00 0.  1.
         -2    1    1    2    0  502 -0.12576150383E+02 -0.98627625308E+02  0.36991366738E+02  0.10608453820E+03  0.00000000000E+00 0.  1.
<scales pt_clust_5="13000.00000" pt_clust_6="13000.00000" pt_clust_7="13000.00000" pt_clust_8="13000.00000" pt_clust_9="99.42619"></scales>
<clustering>
<clus scale="   89.386">  5  6 -1 -1</clus>
<clus scale="   91.337">  7  8 -1 -1</clus>
<clus scale="   99.426">  1  9  2 -1</clus>
<clus scale="  238.228">  1  5  2 -1</clus>
<clus scale="   99.426">  1  5  2 -1</clus>
</clustering>
</event>
<event>
 9    1  0.1445593E-005  0.1586330E+03  0.7546771E-02  0.1191157E+00
         21   -1    0    0  501  502  0.00000000000E+00  0.00000000000E+00  0.15238061760E+03  0.15238061760E+03  0.00000000000E+00 0. -1.
          1   -1    0    0  502    0 -0.00000000000E+00 -0.00000000000E+00 -0.38443852564E+03  0.38443852564E+03  0.00000000000E+00 0. -1.
         23    2    1    2    0    0 -0.88445730738E+02  0.10898835204E+03 -0.18711896093E+03  0.24961636009E+03  0.87141915968E+02 0.  0.
         23    2    1    2    0    0  0.70769948977E+02 -0.92319983106E+02 -0.13075337702E+03  0.19801542885E+03  0.92640701112E+02 0.  0.
        -11    1    3    3    0    0 -0.38376134257E+02 -0.28177868272E+01 -0.23041355763E+02  0.44850548252E+02  0.00000000000E+00 0.  1.
         11    1    3    3    0    0 -0.50069596481E+02  0.11180613887E+03 -0.16407760517E+03  0.20476581184E+03  0.00000000000E+00 0. -1.
        -13    1    4    4    0    0  0.62502067750E+02 -0.54750762156E+02 -0.27012204029E+02  0.87371697913E+02  0.00000000000E+00 0. -1.
         13    1    4    4    0    0  0.82678812274E+01 -0.37569220949E+02 -0.10374117299E+03  0.11064373094E+03  0.00000000000E+00 0.  1.
          1    1    1    2  501    0  0.17675781761E+02 -0.16668368932E+02  0.85814429921E+02  0.89187354296E+02  0.00000000000E+00 0. -1.
<scales pt_clust_5="13000.00000" pt_clust_6="13000.00000" pt_clust_7="13000.00000" pt_clust_8="13000.00000" pt_clust_9="24.29543"></scales>
<clustering>
<clus scale="   24.295">  1  9  2 -1</clus>
<clus scale="   87.142">  5  6 -1 -1</clus>
<clus scale="   92.641">  7  8 -1 -1</clus>
<clus scale="  155.486">  2  5  1 -1</clus>
<clus scale="   24.295">  1  5  2 -1</clus>
</clustering>
</event>
<event>
 9    1  0.1445593E-005  0.1766765E+03  0.7546771E-02  0.1174097E+00
         21   -1    0    0  501  502  0.00000000000E+00  0.00000000000E+00  0.13926297503E+04  0.13926297503E+04  0.00000000000E+00 0. -1.
          2   -1    0    0  502    0 -0.00000000000E+00 -0.00000000000E+00 -0.82340850252E+02  0.82340850252E+02  0.00000000000E+00 0. -1.
         23    2    1    2    0    0 -0.13346597255E+03  0.32243886280E+02  0.66773765283E+02  0.17787625637E+03  0.91260028599E+02 0.  0.
         23    2    1    2    0    0  0.83128587046E+02  0.12870617683E+03  0.41893576194E+03  0.45544719882E+03  0.91920271661E+02 0.  0.
        -11    1    4    4    0    0  0.86033321931E+02  0.70039126870E+02  0.33582596065E+03  0.35367539867E+03  0.00000000000E+00 0. -1.
         11    1    4    4    0    0 -0.29047348856E+01  0.58667049963E+02  0.83109801285E+02  0.10177180015E+03  0.00000000000E+00 0.  1.
        -11    1    3    3    0    0 -0.61051294435E+02  0.60576199697E+02  0.24787060767E+02  0.89504943458E+02  0.00000000000E+00 0. -1.
         11    1    3    3    0    0 -0.72414678118E+02 -0.28332313417E+02  0.41986704516E+02  0.88371312917E+02  0.00000000000E+00 0.  1.
          2    1    1    2  501    0  0.50337385507E+02 -0.16095006311E+03  0.82457937278E+03  0.84164714532E+03  0.00000000000E+00 0. -1.
<scales pt_clust_5="13000.00000" pt_clust_6="13000.00000" pt_clust_7="13000.00000" pt_clust_8="13000.00000" pt_clust_9="150.88157"></scales>
<clustering>
<clus scale="   91.260">  7  8 -1 -1</clus>
<clus scale="   91.920">  5  6 -1 -1</clus>
<clus scale="  164.867">  2  7  1 -1</clus>
<clus scale="  150.882">  1  9  2 -1</clus>
<clus scale="  150.882">  1  5  2 -1</clus>
</clustering>
</event>
<event>
 9    1  0.1558942E-005  0.9423096E+02  0.7546771E-02  0.1293069E+00
         -3   -1    0    0    0  501 -0.00000000000E+00  0.00000000000E+00  0.50620846809E+02  0.50620846809E+02  0.00000000000E+00 0.  1.
         21   -1    0    0  501  502  0.00000000000E+00 -0.00000000000E+00 -0.49582274038E+03  0.49582274038E+03  0.00000000000E+00 0. -1.
         23    2    1    2    0    0  0.19829625323E+02 -0.74928214361E+01 -0.11670335260E+02  0.94173140608E+02  0.91011138183E+02 0.  0.
         23    2    1    2    0    0 -0.42575113679E+02 -0.63003152757E+01 -0.36684679624E+03  0.38047584126E+03  0.91285045838E+02 0.  0.
        -11    1    3    3    0    0  0.55867789809E+02 -0.17438527274E+01 -0.12017240272E+00  0.55895128606E+02  0.00000000000E+00 0.  1.
         11    1    3    3    0    0 -0.36038164486E+02 -0.57489687086E+01 -0.11550162857E+02  0.38278012001E+02  0.00000000000E+00 0. -1.
        -13    1    4    4    0    0  0.10974593495E+02  0.27856642241E+02 -0.59197541394E+02  0.66338398582E+02  0.00000000000E+00 0.  1.
         13    1    4    4    0    0 -0.53549707174E+02 -0.34156957516E+02 -0.30764925484E+03  0.31413744267E+03  0.00000000000E+00 0. -1.
         -3    1    1    2    0  502  0.22745488355E+02  0.13793136712E+02 -0.66684762079E+02  0.71794605329E+02  0.00000000000E+00 0.  1.
<scales pt_clust_5="13000.00000" pt_clust_6="13000.00000" pt_clust_7="13000.00000" pt_clust_8="13000.00000" pt_clust_9="26.60090"></scales>
<clustering>
<clus scale="   26.601">  2  9  1 -1</clus>
<clus scale="   91.011">  5  6 -1 -1</clus>
<clus scale="   91.285">  7  8 -1 -1</clus>
<clus scale="   93.966">  1  5  2 -1</clus>
<clus scale="   26.601">  2  5  1 -1</clus>
</clustering>
</event>
<event>
 9    1  0.1445593E-005  0.1329851E+03  0.7546771E-02  0.1235997E+00
         -4   -1    0    0    0  501 -0.00000000000E+00  0.00000000000E+00  0.35624155471E+03  0.35624155471E+03  0.00000000000E+00 0.  1.
         21   -1    0    0  501  502  0.00000000000E+00 -0.00000000000E+00 -0.16755989792E+03  0.16755989792E+03  0.00000000000E+00 0. -1.
         23    2    1    2    0    0 -0.45013028856E+02 -0.19014225005E+02  0.31004304400E+03  0.33780260197E+03  0.12488472783E+03 0.  0.
         23    2    1    2    0    0  0.78447817637E+01  0.37175287307E+02 -0.75348064516E+02  0.12412374547E+03  0.91026538857E+02 0.  0.
        -11    1    4    4    0    0 -0.37786797259E+02  0.36553073775E+02 -0.46075252963E+02  0.69906352967E+02  0.00000000000E+00 0. -1.
         11    1    4    4    0    0  0.45631579023E+02  0.62221353224E+00 -0.29272811553E+02  0.54217392504E+02  0.00000000000E+00 0.  1.
        -13    1    3    3    0    0  0.11647612957E+02  0.36994442565E+02  0.37863699098E+02  0.54202540325E+02  0.00000000000E+00 0. -1.
         13    1    3    3    0    0 -0.56660641813E+02 -0.56008667570E+02  0.27217934490E+03  0.28360006165E+03  0.00000000000E+00 0.  1.
         -4    1    1    2    0  502  0.37168247093E+02 -0.18161062302E+02 -0.46013322703E+02  0.61875105188E+02  0.00000000000E+00 0.  1.
<scales pt_clust_5="13000.00000" pt_clust_6="13000.00000" pt_clust_7="13000.00000" pt_clust_8="13000.00000" pt_clust_9="41.36790"></scales>
<clustering>
<clus scale="   41.368">  2  9  1 -1</clus>
<clus scale="   91.027">  5  6 -1 -1</clus>
<clus scale="  101.856">  2  5  1 -1</clus>
<clus scale="  124.885">  7  8 -1 -1</clus>
<clus scale="   41.368">  2  5  1 -1</clus>
</clustering>
</event>
<event>
 9    1  0.1445593E-005  0.9674320E+02  0.7546771E-02  0.1287546E+00
         21   -1    0    0  501  502  0.00000000000E+00  0.00000000000E+00  0.39904937410E+02  0.39904937410E+02  0.00000000000E+00 0.  1.
          2   -1    0    0  502    0 -0.00000000000E+00 -0.00000000000E+00 -0.40571061543E+03  0.40571061543E+03  0.00000000000E+00 0. -1.
         23    2    1    2    0    0 -0.18499547957E+02 -0.98569843880E+01 -0.23138399212E+03  0.24988152353E+03  0.91993644221E+02 0.  0.
         23    2    1    2    0    0  0.52025185918E+02  0.22358320094E+01 -0.11624166326E+03  0.15684233884E+03  0.91519266070E+02 0.  0.
        -11    1    3    3    0    0  0.28389370968E+02  0.13128547502E+02 -0.14969613944E+03  0.15292890278E+03  0.00000000000E+00 0.  1.
         11    1    3    3    0    0 -0.46888918926E+02 -0.22985531890E+02 -0.81687852678E+02  0.96952620745E+02  0.00000000000E+00 0. -1.
        -13    1    4    4    0    0  0.72050720541E+02  0.13863152033E+02 -0.11106816632E+03  0.13311510389E+03  0.00000000000E+00 0.  1.
         13    1    4    4    0    0 -0.20025534622E+02 -0.11627320024E+02 -0.51734969393E+01  0.23727234951E+02  0.00000000000E+00 0. -1.
          2    1    1    2  501    0 -0.33525637961E+02  0.76211523786E+01 -0.18180022650E+02  0.38891690473E+02  0.00000000000E+00 0. -1.
<scales pt_clust_5="13000.00000" pt_clust_6="13000.00000" pt_clust_7="13000.00000" pt_clust_8="13000.00000" pt_clust_9="34.38096"></scales>
<clustering>
<clus scale="   34.381">  1  9  2 -1</clus>
<clus scale="   91.519">  7  8 -1 -1</clus>
<clus scale="   91.994">  5  6 -1 -1</clus>
<clus scale="   96.292">  1  7  2 -1</clus>
<clus scale="   34.381">  1  5  2 -1</clus>
</clustering>
</event>
<event>
 9    1  0.1445593E-005  0.1000706E+03  0.7546771E-02  0.1280809E+00
          3   -1    0    0  502    0 -0.00000000000E+00  0.00000000000E+00  0.51100768986E+02  0.51100768986E+02  0.00000000000E+00 0. -1.
         21   -1    0    0  501  502  0.00000000000E+00 -0.00000000000E+00 -0.59897440921E+03  0.59897440921E+03  0.00000000000E+00 0. -1.
         23    2    1    2    0    0  0.21639266506E+02  0.18087782790E+02 -0.70812975204E+02  0.11885687936E+03  0.91197886885E+02 0.  0.
         23    2    1    2    0    0  0.38131517089E+01 -0.69249856496E+02 -0.10439463524E+03  0.15419661096E+03  0.89823561575E+02 0.  0.
        -11    1    4    4    0    0 -0.10731967507E+02 -0.85758317346E+02 -0.61781099313E+02  0.10623826219E+03  0.00000000000E+00 0. -1.
         11    1    4    4    0    0  0.14545119215E+02  0.16508460849E+02 -0.42613535930E+02  0.47958348774E+02  0.00000000000E+00 0.  1.
        -13    1    3    3    0    0 -0.28646385974E+02  0.31368123240E+02 -0.40312951848E+02  0.58563714633E+02  0.00000000000E+00 0.  1.
         13    1    3    3    0    0  0.50285652479E+02 -0.13280340450E+02 -0.30500023356E+02  0.60293164724E+02  0.00000000000E+00 0. -1.
          3    1    1    2  501    0 -0.25452418214E+02  0.51162073706E+02 -0.37266602978E+03  0.37702168788E+03  0.00000000000E+00 0. -1.
<scales pt_clust_5="13000.00000" pt_clust_6="13000.00000" pt_clust_7="13000.00000" pt_clust_8="13000.00000" pt_clust_9="57.14353"></scales>
<clustering>
<clus scale="   57.144">  2  9  1 -1</clus>
<clus scale="   89.824">  5  6 -1 -1</clus>
<clus scale="   91.198">  7  8 -1 -1</clus>
<clus scale="   98.820">  2  5  1 -1</clus>
<clus scale="   57.144">  2  5  1 -1</clus>
</clustering>
</event>
<event>
 9    1  0.1445593E-005  0.1025307E+03  0.7546771E-02  0.1275111E+00
         -3   -1    0    0    0  501 -0.00000000000E+00  0.00000000000E+00  0.13082794888E+03  0.13082794888E+03  0.00000000000E+00 0.  1.
         21   -1    0    0  501  502  0.00000000000E+00 -0.00000000000E+00 -0.32946289404E+03  0.32946289404E+03  0.00000000000E+00 0.  1.
         23    2    1    2    0    0 -0.46958757630E+02  0.90757449185E+01  0.93300499762E+02  0.13937071397E+03  0.91824389965E+02 0.  0.
         23    2    1    2    0    0  0.25020932994E+02 -0.19949564033E+02 -0.16356992900E+03  0.19024031502E+03  0.91718174822E+02 0.  0.
        -11    1    3    3    0    0 -0.10833976196E+02 -0.30293731197E+02  0.37045661546E+00  0.32174872620E+02  0.00000000000E+00 0. -1.
         11    1    3    3    0    0 -0.36124781434E+02  0.39369476115E+02  0.92930043146E+02  0.10719584135E+03  0.00000000000E+00 0.  1.
        -13    1    4    4    0    0 -0.17579657456E+02  0.13888155480E+02 -0.11546617873E+03  0.11761957171E+03  0.00000000000E+00 0.  1.
         13    1    4    4    0    0  0.42600590450E+02 -0.33837719513E+02 -0.48103750268E+02  0.72620743307E+02  0.00000000000E+00 0. -1.
         -3    1    1    2    0  502  0.21937824636E+02  0.10873819114E+02 -0.12836551592E+03  0.13067981394E+03  0.00000000000E+00 0.  1.
<scales pt_clust_5="13000.00000" pt_clust_6="13000.00000" pt_clust_7="13000.00000" pt_clust_8="13000.00000" pt_clust_9="24.48485"></scales>
<clustering>
<clus scale="   24.485">  2  9  1 -1</clus>
<clus scale="   91.718">  7  8 -1 -1</clus>
<clus scale="   91.824">  5  6 -1 -1</clus>
<clus scale="  102.436">  2  7  1 -1</clus>
<clus scale="   24.485">  2  5  1 -1</clus>
</clustering>
</event>
<event>
 9    1  0.1445593E-005  0.9327384E+02  0.7546771E-02  0.1295124E+00
         21   -1    0    0  501  502  0.00000000000E+00  0.00000000000E+00  0.12412039474E+03  0.12412039474E+03  0.00000000000E+00 0. -1.
          2   -1    0    0  502    0 -0.00000000000E+00 -0.00000000000E+00 -0.14373140091E+03  0.14373140091E+03  0.00000000000E+00 0. -1.
         23    2    1    2    0    0 -0.58547269786E+01  0.32001715602E+01 -0.38393919618E+02  0.99952743539E+02  0.92043136362E+02 0.  0.
         23    2    1    2    0    0 -0.32284515897E+02 -0.17311591330E+02 -0.30845333381E+02  0.10373756133E+03  0.92022094510E+02 0.  0.
        -11    1    4    4    0    0  0.24569812606E+02  0.11019242438E+02  0.94212227098E+01  0.28528211173E+02  0.00000000000E+00 0.  1.
         11    1    4    4    0    0 -0.56854328502E+02 -0.28330833767E+02 -0.40266556091E+02  0.75209350156E+02  0.00000000000E+00 0. -1.
        -13    1    3    3    0    0  0.17467733382E+02  0.36811435407E+02  0.41183426047E+01  0.40953195626E+02  0.00000000000E+00 0.  1.
         13    1    3    3    0    0 -0.23322460361E+02 -0.33611263846E+02 -0.42512262222E+02  0.58999547913E+02  0.00000000000E+00 0. -1.
          2    1    1    2  501    0  0.38139242875E+02  0.14111419769E+02  0.49628246832E+02  0.64161490776E+02  0.00000000000E+00 0. -1.
<scales pt_clust_5="13000.00000" pt_clust_6="13000.00000" pt_clust_7="13000.00000" pt_clust_8="13000.00000" pt_clust_9="40.66613"></scales>
<clustering>
<clus scale="   40.666">  1  9  2 -1</clus>
<clus scale="   92.022">  5  6 -1 -1</clus>
<clus scale="   92.043">  7  8 -1 -1</clus>
<clus scale="   93.253">  1  5  2 -1</clus>
<clus scale="   40.666">  1  5  2 -1</clus>
</clustering>
</event>
<event>
 9    1  0.1445593E-005  0.1637264E+03  0.7546771E-02  0.1208009E+00
         21   -1    0    0  501  502  0.00000000000E+00  0.00000000000E+00  0.59828320822E+03  0.59828320822E+03  0.00000000000E+00 0.  1.
         -1   -1    0    0    0  501 -0.00000000000E+00 -0.00000000000E+00 -0.74698033327E+02  0.74698033327E+02  0.00000000000E+00 0.  1.
         23    2    1    2    0    0 -0.34115631191E+02 -0.99317896500E+01  0.14030891663E+03  0.17117264515E+03  0.91383617927E+02 0.  0.
         23    2    1    2    0    0  0.18617542349E+02  0.14246141716E+03  0.12641895566E+03  0.21236090367E+03  0.92051794081E+02 0.  0.
        -11    1    4    4    0    0  0.29016916346E+02  0.61862430356E+02  0.80817907716E+01  0.68805937722E+02  0.00000000000E+00 0. -1.
         11    1    4    4    0    0 -0.10399373998E+02  0.80598986804E+02  0.11833716489E+03  0.14355496594E+03  0.00000000000E+00 0.  1.
        -13    1    3    3    0    0 -0.48097084933E+01  0.34634626543E+02  0.21780163514E+02  0.41195463030E+02  0.00000000000E+00 0.  1.
         13    1    3    3    0    0 -0.29305922698E+02 -0.44566416193E+02  0.11852875311E+03  0.12997718212E+03  0.00000000000E+00 0. -1.
         -1    1    1    2    0  502  0.15498088843E+02 -0.13252962751E+03  0.25685730261E+03  0.28944769273E+03  0.00000000000E+00 0.  1.
<scales pt_clust_5="13000.00000" pt_clust_6="13000.00000" pt_clust_7="13000.00000" pt_clust_8="13000.00000" pt_clust_9="135.39866"></scales>
<clustering>
<clus scale="   91.384">  7  8 -1 -1</clus>
<clus scale="   92.052">  5  6 -1 -1</clus>
<clus scale="   98.048">  2  7  1 -1</clus>
<clus scale="  135.399">  1  9  2 -1</clus>
<clus scale="  135.399">  1  5  2 -1</clus>
</clustering>
</event>
<event>
 9    1  0.1445593E-005  0.2461524E+03  0.7546771E-02  0.1116291E+00
          1   -1    0    0  502    0 -0.00000000000E+00  0.00000000000E+00  0.30745181019E+03  0.30745181019E+03  0.00000000000E+00 0. -1.
         21   -1    0    0  501  502  0.00000000000E+00 -0.00000000000E+00 -0.22082080321E+03  0.22082080321E+03  0.00000000000E+00 0.  1.
         23    2    1    2    0    0  0.21419095981E+03 -0.66817966642E+02  0.61856220718E+02  0.25368095149E+03  0.10092286747E+03 0.  0.
         23    2    1    2    0    0 -0.20767479648E+03  0.87049225085E+02  0.42165857108E+02  0.24712871328E+03  0.92672826331E+02 0.  0.
        -11    1    3    3    0    0  0.72762053340E+01 -0.27478763479E+02  0.28828548585E+02  0.40485933605E+02  0.00000000000E+00 0. -1.
         11    1    3    3    0    0  0.20691475447E+03 -0.39339203163E+02  0.33027672134E+02  0.21319501788E+03  0.00000000000E+00 0.  1.
        -13    1    4    4    0    0 -0.14747352831E+02  0.38763622034E+02 -0.74906471763E+01  0.42145137369E+02  0.00000000000E+00 0.  1.
         13    1    4    4    0    0 -0.19292744365E+03  0.48285603050E+02  0.49656504285E+02  0.20498357591E+03  0.00000000000E+00 0. -1.
          1    1    1    2  501    0 -0.65161633258E+01 -0.20231258443E+02 -0.17391070839E+02  0.27462948633E+02  0.00000000000E+00 0. -1.
<scales pt_clust_5="13000.00000" pt_clust_6="13000.00000" pt_clust_7="13000.00000" pt_clust_8="13000.00000" pt_clust_9="21.25475"></scales>
<clustering>
<clus scale="   21.255">  2  9  1 -1</clus>
<clus scale="   92.673">  7  8 -1 -1</clus>
<clus scale="  100.923">  5  6 -1 -1</clus>
<clus scale="  242.886">  2  7  1 -1</clus>
<clus scale="   21.255">  2  5  1 -1</clus>
</clustering>
</event>
<event>
 9    1  0.1445593E-005  0.9528935E+02  0.7546771E-02  0.1302053E+00
         21   -1    0    0  501  502  0.00000000000E+00  0.00000000000E+00  0.93789860741E+02  0.93789860741E+02  0.00000000000E+00 0.  1.
         -1   -1    0    0    0  501 -0.00000000000E+00 -0.00000000000E+00 -0.30622603487E+03  0.30622603487E+03  0.00000000000E+00 0.  1.
         23    2    1    2    0    0 -0.92341919810E+01  0.44406685631E+02 -0.15968396929E+03  0.18101809210E+03  0.72189719434E+02 0.  0.
         23    2    1    2    0    0  0.15217055989E+02  0.92055113264E+01 -0.10740561738E+03  0.14220550035E+03  0.91488455300E+02 0.  0.
        -11    1    4    4    0    0 -0.25103333508E+02 -0.74468864839E+01  0.10143682470E+00  0.26184800190E+02  0.00000000000E+00 0. -1.
         11    1    4    4    0    0  0.40320389497E+02  0.16652397810E+02 -0.10750705420E+03  0.11602070016E+03  0.00000000000E+00 0.  1.
        -11    1    3    3    0    0  0.30018801886E+02  0.17983237069E+02 -0.45364055110E+02  0.57292432120E+02  0.00000000000E+00 0. -1.
         11    1    3    3    0    0 -0.39252993867E+02  0.26423448563E+02 -0.11431991418E+03  0.12372565998E+03  0.00000000000E+00 0.  1.
         -1    1    1    2    0  502 -0.59828640081E+01 -0.53612196958E+02  0.54653412529E+02  0.76792303165E+02  0.00000000000E+00 0.  1.
<scales pt_clust_5="13000.00000" pt_clust_6="13000.00000" pt_clust_7="13000.00000" pt_clust_8="13000.00000" pt_clust_9="53.94499"></scales>
<clustering>
<clus scale="   53.945">  1  9  2 -1</clus>
<clus scale="   72.190">  7  8 -1 -1</clus>
<clus scale="   76.950">  2  7  1 -1</clus>
<clus scale="   91.488">  5  6 -1 -1</clus>
<clus scale="   53.945">  1  5  2 -1</clus>
</clustering>
</event>
<event>
 9    1  0.1445593E-005  0.1059423E+03  0.7546771E-02  0.1269749E+00
         21   -1    0    0  501  502  0.00000000000E+00  0.00000000000E+00  0.10866280840E+03  0.10866280840E+03  0.00000000000E+00 0. -1.
          2   -1    0    0  502    0 -0.00000000000E+00 -0.00000000000E+00 -0.17648744610E+03  0.17648744610E+03  0.00000000000E+00 0. -1.
         23    2    1    2    0    0 -0.41570059317E+02 -0.16963513044E+02 -0.70359482922E+02  0.12470279754E+03  0.92652578324E+02 0.  0.
         23    2    1    2    0    0  0.24852040891E+02  0.45258688192E+02 -0.31204303539E+02  0.11334714660E+03  0.95957773475E+02 0.  0.
        -11    1    4    4    0    0  0.55063783887E+02  0.15073104156E+02 -0.40045530857E+02  0.69734233390E+02  0.00000000000E+00 0.  1.
         11    1    4    4    0    0 -0.30211742996E+02  0.30185584035E+02  0.88412273179E+01  0.43612913212E+02  0.00000000000E+00 0. -1.
        -13    1    3    3    0    0  0.21866685587E+02  0.14015859877E+02 -0.40362401583E+02  0.47997080413E+02  0.00000000000E+00 0. -1.
         13    1    3    3    0    0 -0.63436744904E+02 -0.30979372920E+02 -0.29997081339E+02  0.76705717124E+02  0.00000000000E+00 0.  1.
          2    1    1    2  501    0  0.16718018426E+02 -0.28295175148E+02  0.33739148768E+02  0.47100310363E+02  0.00000000000E+00 0. -1.
<scales pt_clust_5="13000.00000" pt_clust_6="13000.00000" pt_clust_7="13000.00000" pt_clust_8="13000.00000" pt_clust_9="32.86501"></scales>
<clustering>
<clus scale="   32.865">  1  9  2 -1</clus>
<clus scale="   92.653">  7  8 -1 -1</clus>
<clus scale="   95.958">  5  6 -1 -1</clus>
<clus scale="  102.958">  2  7  1 -1</clus>
<clus scale="   32.865">  1  5  2 -1</clus>
</clustering>
</event>
<event>
 9    1  0.1445593E-005  0.1914367E+03  0.7546771E-02  0.1157248E+00
         21   -1    0    0  501  502  0.00000000000E+00  0.00000000000E+00  0.79277563463E+02  0.79277563463E+02  0.00000000000E+00 0. -1.
          2   -1    0    0  502    0 -0.00000000000E+00 -0.00000000000E+00 -0.10832014022E+04  0.10832014022E+04  0.00000000000E+00 0. -1.
         23    2    1    2    0    0 -0.35693527875E+02 -0.20261579422E+03 -0.71551720974E+03  0.74994178780E+03  0.90114480805E+02 0.  0.
         23    2    1    2    0    0 -0.63776655346E+02  0.98069845775E+02 -0.11895813893E+03  0.18996816953E+03  0.90838924477E+02 0.  0.
        -11    1    4    4    0    0 -0.57344855733E+02  0.11197610099E+02 -0.30866487639E+02  0.66079944084E+02  0.00000000000E+00 0. -1.
         11    1    4    4    0    0 -0.64317996137E+01  0.86872235676E+02 -0.88091651287E+02  0.12388822545E+03  0.00000000000E+00 0.  1.
        -13    1    3    3    0    0 -0.15538452186E+02 -0.53263235846E+02 -0.83846172488E+02  0.10054151595E+03  0.00000000000E+00 0.  1.
         13    1    3    3    0    0 -0.20155075688E+02 -0.14935255837E+03 -0.63167103725E+03  0.64940027184E+03  0.00000000000E+00 0. -1.
          2    1    1    2  501    0  0.99470183221E+02  0.10454594844E+03 -0.16944849008E+03  0.22256900834E+03  0.00000000000E+00 0. -1.
<scales pt_clust_5="13000.00000" pt_clust_6="13000.00000" pt_clust_7="13000.00000" pt_clust_8="13000.00000" pt_clust_9="144.30583"></scales>
<clustering>
<clus scale="   90.114">  7  8 -1 -1</clus>
<clus scale="   90.839">  5  6 -1 -1</clus>
<clus scale="  144.306">  1  9  2 -1</clus>
<clus scale="  191.094">  2  7  1 -1</clus>
<clus scale="  144.306">  1  5  2 -1</clus>
</clustering>
</event>
<event>
 9    1  0.1445593E-005  0.2131389E+03  0.7546771E-02  0.1139326E+00
         -1   -1    0    0    0  501 -0.00000000000E+00  0.00000000000E+00  0.40305840157E+03  0.40305840157E+03  0.00000000000E+00 0.  1.
         21   -1    0    0  501  502  0.00000000000E+00 -0.00000000000E+00 -0.18796256054E+03  0.18796256054E+03  0.00000000000E+00 0.  1.
         23    2    1    2    0    0 -0.19944552313E+02  0.18600022193E+03  0.18395157778E+03  0.27661671675E+03  0.87662747474E+02 0.  0.
         23    2    1    2    0    0 -0.53979697384E+02 -0.20968961134E+03  0.14961970208E+02  0.23510829040E+03  0.90379792161E+02 0.  0.
        -11    1    4    4    0    0 -0.17717057450E+02 -0.23196301801E+02  0.33250061138E+02  0.44243972557E+02  0.00000000000E+00 0. -1.
         11    1    4    4    0    0 -0.36262639934E+02 -0.18649330954E+03 -0.18288090930E+02  0.19086431785E+03  0.00000000000E+00 0.  1.
        -11    1    3    3    0    0 -0.53855914782E+02  0.99767577601E+02  0.91125097452E+02  0.14545725311E+03  0.00000000000E+00 0.  1.
         11    1    3    3    0    0  0.33911362469E+02  0.86232644331E+02  0.92826480326E+02  0.13115946364E+03  0.00000000000E+00 0. -1.
         -1    1    1    2    0  502  0.73924249697E+02  0.23689389406E+02  0.16182293048E+02  0.79295954953E+02  0.00000000000E+00 0.  1.
<scales pt_clust_5="13000.00000" pt_clust_6="13000.00000" pt_clust_7="13000.00000" pt_clust_8="13000.00000" pt_clust_9="77.62720"></scales>
<clustering>
<clus scale="   77.627">  2  9  1 -1</clus>
<clus scale="   87.663">  7  8 -1 -1</clus>
<clus scale="   90.380">  5  6 -1 -1</clus>
<clus scale="  212.001">  1  7  2 -1</clus>
<clus scale="   77.627">  2  5  1 -1</clus>
</clustering>
</event>
<event>
 9    1  0.1445593E-005  0.9533050E+02  0.7546771E-02  0.1290954E+00
         21   -1    0    0  501  502  0.00000000000E+00  0.00000000000E+00  0.94004759109E+02  0.94004759109E+02  0.00000000000E+00 0.  1.
         -3   -1    0    0    0  501 -0.00000000000E+00 -0.00000000000E+00 -0.30869323685E+03  0.30869323685E+03  0.00000000000E+00 0.  1.
         23    2    1    2    0    0 -0.27785826270E+02 -0.21510527832E+02 -0.16030816037E+03  0.18797710146E+03  0.91662039265E+02 0.  0.
         23    2    1    2    0    0  0.15229545010E+02  0.59312874665E+01 -0.11702474273E+03  0.14895846633E+03  0.90701240724E+02 0.  0.
        -11    1    3    3    0    0  0.28736022350E+02 -0.27456869068E+02 -0.83007370593E+02  0.92031854334E+02  0.00000000000E+00 0.  1.
         11    1    3    3    0    0 -0.56521848619E+02  0.59463412355E+01 -0.77300789781E+02  0.95945247127E+02  0.00000000000E+00 0. -1.
        -13    1    4    4    0    0 -0.21555141340E+02  0.37690680872E+02 -0.59397793700E+02  0.73575195815E+02  0.00000000000E+00 0. -1.
         13    1    4    4    0    0  0.36784686351E+02 -0.31759393406E+02 -0.57626949032E+02  0.75383270519E+02  0.00000000000E+00 0.  1.
         -3    1    1    2    0  502  0.12556281260E+02  0.15579240366E+02  0.62644425361E+02  0.65762428166E+02  0.00000000000E+00 0.  1.
<scales pt_clust_5="13000.00000" pt_clust_6="13000.00000" pt_clust_7="13000.00000" pt_clust_8="13000.00000" pt_clust_9="20.00932"></scales>
<clustering>
<clus scale="   20.009">  1  9  2 -1</clus>
<clus scale="   90.701">  7  8 -1 -1</clus>
<clus scale="   91.662">  5  6 -1 -1</clus>
<clus scale="   94.407">  1  7  2 -1</clus>
<clus scale="   20.009">  1  5  2 -1</clus>
</clustering>
</event>
<event>
 9    1  0.1445593E-005  0.1641089E+03  0.7546771E-02  0.1184233E+00
         21   -1    0    0  501  502  0.00000000000E+00  0.00000000000E+00  0.15059874515E+03  0.15059874515E+03  0.00000000000E+00 0. -1.
          1   -1    0    0  502    0 -0.00000000000E+00 -0.00000000000E+00 -0.54557659598E+03  0.54557659598E+03  0.00000000000E+00 0. -1.
         23    2    1    2    0    0 -0.14031921405E+03  0.68605631927E+02 -0.31931314260E+03  0.36699071100E+03  0.91241900235E+02 0.  0.
         23    2    1    2    0    0  0.91509427966E+02 -0.69812167303E+02 -0.16912629111E+03  0.22373834797E+03  0.90594877880E+02 0.  0.
        -11    1    4    4    0    0  0.13947250582E+02  0.22147453957E+02 -0.29901988622E+02  0.39738702031E+02  0.00000000000E+00 0.  1.
         11    1    4    4    0    0  0.77562177384E+02 -0.91959621260E+02 -0.13922430249E+03  0.18399964594E+03  0.00000000000E+00 0. -1.
        -13    1    3    3    0    0 -0.56051245613E+02  0.29303337664E+02 -0.22822140997E+03  0.23682364683E+03  0.00000000000E+00 0.  1.
         13    1    3    3    0    0 -0.84267968440E+02  0.39302294263E+02 -0.91091732636E+02  0.13016706417E+03  0.00000000000E+00 0. -1.
          1    1    1    2  501    0  0.48809786086E+02  0.12065353757E+01  0.93461582882E+02  0.10544628215E+03  0.00000000000E+00 0. -1.
<scales pt_clust_5="13000.00000" pt_clust_6="13000.00000" pt_clust_7="13000.00000" pt_clust_8="13000.00000" pt_clust_9="48.82470"></scales>
<clustering>
<clus scale="   48.825">  1  9  2 -1</clus>
<clus scale="   90.595">  5  6 -1 -1</clus>
<clus scale="   91.242">  7  8 -1 -1</clus>
<clus scale="  163.750">  1  5  2 -1</clus>
<clus scale="   48.825">  1  5  2 -1</clus>
</clustering>
</event>
<event>
 9    1  0.1445593E-005  0.1207786E+03  0.7546771E-02  0.1242624E+00
         -4   -1    0    0    0  501 -0.00000000000E+00  0.00000000000E+00  0.49899876778E+02  0.49899876778E+02  0.00000000000E+00 0.  1.
         21   -1    0    0  501  502  0.00000000000E+00 -0.00000000000E+00 -0.46231863706E+03  0.46231863706E+03  0.00000000000E+00 0. -1.
         23    2    1    2    0    0  0.56189342671E+02 -0.44519414447E+02 -0.70523730381E+02  0.13571187549E+03  0.91131202722E+02 0.  0.
         23    2    1    2    0    0 -0.79873962396E+02  0.39937669364E+02 -0.25015291290E+03  0.28164584754E+03  0.93664487959E+02 0.  0.
        -11    1    3    3    0    0  0.46112695744E+02 -0.66244461914E+02 -0.25381211970E+02  0.84610373856E+02  0.00000000000E+00 0.  1.
         11    1    3    3    0    0  0.10076646928E+02  0.21725047467E+02 -0.45142518411E+02  0.51101501634E+02  0.00000000000E+00 0. -1.
        -11    1    4    4    0    0  0.15595864477E+02  0.24759237865E+02 -0.89383780224E+02  0.94051640153E+02  0.00000000000E+00 0.  1.
         11    1    4    4    0    0 -0.95469826873E+02  0.15178431500E+02 -0.16076913267E+03  0.18759420739E+03  0.00000000000E+00 0. -1.
         -4    1    1    2    0  502  0.23684619725E+02  0.45817450829E+01 -0.91742117009E+02  0.94860790809E+02  0.00000000000E+00 0.  1.
<scales pt_clust_5="13000.00000" pt_clust_6="13000.00000" pt_clust_7="13000.00000" pt_clust_8="13000.00000" pt_clust_9="24.12371"></scales>
<clustering>
<clus scale="   24.124">  2  9  1 -1</clus>
<clus scale="   91.131">  5  6 -1 -1</clus>
<clus scale="   93.664">  7  8 -1 -1</clus>
<clus scale="  118.825">  1  5  2 -1</clus>
<clus scale="   24.124">  2  5  1 -1</clus>
</clustering>
</event>
<event>
 9    1  0.1445593E-005  0.9690315E+02  0.7546771E-02  0.1287800E+00
         -3   -1    0    0    0  501 -0.00000000000E+00  0.00000000000E+00  0.13295440687E+03  0.13295440687E+03  0.00000000000E+00 0.  1.
         21   -1    0    0  501  502  0.00000000000E+00 -0.00000000000E+00 -0.16678238832E+03  0.16678238832E+03  0.00000000000E+00 0. -1.
         23    2    1    2    0    0 -0.14574095711E+02 -0.15230338036E+02  0.36660274341E+02  0.99535319368E+02  0.90105142054E+02 0.  0.
         23    2    1    2    0    0  0.28175726577E+02  0.65359164455E+02 -0.87672202383E+02  0.14549140709E+03  0.91736811147E+02 0.  0.
        -11    1    4    4    0    0  0.27581776158E+02  0.13914178157E+02 -0.88810790095E+02  0.94030394912E+02  0.00000000000E+00 0. -1.
         11    1    4    4    0    0  0.59395041916E+00  0.51444986298E+02  0.11385877129E+01  0.51461012177E+02  0.00000000000E+00 0.  1.
        -13    1    3    3    0    0 -0.32401823714E+02 -0.43526499750E+02  0.37702560025E+02  0.66075089050E+02  0.00000000000E+00 0.  1.
         13    1    3    3    0    0  0.17827728003E+02  0.28296161714E+02 -0.10422856844E+01  0.33460230318E+02  0.00000000000E+00 0. -1.
         -3    1    1    2    0  502 -0.13601630867E+02 -0.50128826419E+02  0.17183946591E+02  0.54710068733E+02  0.00000000000E+00 0.  1.
<scales pt_clust_5="13000.00000" pt_clust_6="13000.00000" pt_clust_7="13000.00000" pt_clust_8="13000.00000" pt_clust_9="51.94137"></scales>
<clustering>
<clus scale="   51.941">  2  9  1 -1</clus>
<clus scale="   90.105">  7  8 -1 -1</clus>
<clus scale="   91.737">  5  6 -1 -1</clus>
<clus scale="   95.360">  1  7  2 -1</clus>
<clus scale="   51.941">  2  5  1 -1</clus>
</clustering>
</event>
<event>
 9    1  0.1445593E-005  0.9562153E+02  0.7546771E-02  0.1290864E+00
          1   -1    0    0  502    0 -0.00000000000E+00  0.00000000000E+00  0.24503665651E+03  0.24503665651E+03  0.00000000000E+00 0. -1.
         21   -1    0    0  501  502  0.00000000000E+00 -0.00000000000E+00 -0.11751866439E+03  0.11751866439E+03  0.00000000000E+00 0. -1.
         23    2    1    2    0    0 -0.19387934723E+02 -0.16053856747E+02  0.14416176960E+03  0.17383953409E+03  0.93829363589E+02 0.  0.
         23    2    1    2    0    0 -0.31987165724E+01  0.12432263219E+02  0.58831636694E+02  0.10985000906E+03  0.91875296234E+02 0.  0.
        -13    1    4    4    0    0  0.29244257671E+01  0.36998461250E+02  0.72228748788E+02  0.81206099231E+02  0.00000000000E+00 0. -1.
         13    1    4    4    0    0 -0.61231423395E+01 -0.24566198031E+02 -0.13397112094E+02  0.28643909829E+02  0.00000000000E+00 0.  1.
        -13    1    3    3    0    0 -0.51561300775E+02  0.59697904586E+01  0.50642040362E+02  0.72517738435E+02  0.00000000000E+00 0. -1.
         13    1    3    3    0    0  0.32173366052E+02 -0.22023647206E+02  0.93519729233E+02  0.10132179566E+03  0.00000000000E+00 0.  1.
          1    1    1    2  501    0  0.22586651296E+02  0.36215935282E+01 -0.75475414171E+02  0.78865777753E+02  0.00000000000E+00 0. -1.
<scales pt_clust_5="13000.00000" pt_clust_6="13000.00000" pt_clust_7="13000.00000" pt_clust_8="13000.00000" pt_clust_9="22.87516"></scales>
<clustering>
<clus scale="   22.875">  2  9  1 -1</clus>
<clus scale="   91.875">  5  6 -1 -1</clus>
<clus scale="   93.705">  2  5  1 -1</clus>
<clus scale="   93.829">  7  8 -1 -1</clus>
<clus scale="   22.875">  2  5  1 -1</clus>
</clustering>
</event>
<event>
 9    1  0.1445593E-005  0.9464011E+02  0.7546771E-02  0.1294148E+00
         21   -1    0    0  501  502  0.00000000000E+00  0.00000000000E+00  0.71949368260E+02  0.71949368260E+02  0.00000000000E+00 0.  1.
          2   -1    0    0  502    0 -0.00000000000E+00 -0.00000000000E+00 -0.28184436046E+03  0.28184436046E+03  0.00000000000E+00 0. -1.
         23    2    1    2    0    0  0.32555009649E+02 -0.93713315888E+01 -0.20824105073E+03  0.22717982920E+03  0.84253718473E+02 0.  0.
         23    2    1    2    0    0 -0.24566818258E+02  0.36235801430E+02  0.14697504600E+00  0.98529130662E+02  0.88268942005E+02 0.  0.
        -11    1    3    3    0    0 -0.97173152445E+01 -0.35202791381E+02 -0.54090683794E+02  0.65264575459E+02  0.00000000000E+00 0.  1.
         11    1    3    3    0    0  0.42272324893E+02  0.25831459793E+02 -0.15415036694E+03  0.16191525374E+03  0.00000000000E+00 0. -1.
        -13    1    4    4    0    0 -0.51188023161E+02  0.37598654662E+02 -0.18318791366E+02  0.66101820434E+02  0.00000000000E+00 0. -1.
         13    1    4    4    0    0  0.26621204903E+02 -0.13628532321E+01  0.18465766412E+02  0.32427310228E+02  0.00000000000E+00 0.  1.
          2    1    1    2  501    0 -0.79881913904E+01 -0.26864469841E+02 -0.18009165145E+01  0.28084768858E+02  0.00000000000E+00 0. -1.
<scales pt_clust_5="13000.00000" pt_clust_6="13000.00000" pt_clust_7="13000.00000" pt_clust_8="13000.00000" pt_clust_9="28.02697"></scales>
<clustering>
<clus scale="   28.027">  1  9  2 -1</clus>
<clus scale="   84.254">  5  6 -1 -1</clus>
<clus scale="   88.269">  7  8 -1 -1</clus>
<clus scale="   90.907">  2  5  1 -1</clus>
<clus scale="   28.027">  1  5  2 -1</clus>
</clustering>
</event>
<event>
 9    1  0.1445593E-005  0.1001522E+03  0.7546771E-02  0.1280522E+00
          1   -1    0    0  502    0 -0.00000000000E+00  0.00000000000E+00  0.74383036560E+03  0.74383036560E+03  0.00000000000E+00 0. -1.
         21   -1    0    0  501  502  0.00000000000E+00 -0.00000000000E+00 -0.24264435809E+02  0.24264435809E+02  0.00000000000E+00 0. -1.
         23    2    1    2    0    0 -0.37479664088E+02 -0.14983433889E+02  0.36744338753E+03  0.38115501078E+03  0.92926157178E+02 0.  0.
         23    2    1    2    0    0  0.19801466358E+02  0.32939997659E+02  0.34730460971E+03  0.36128497955E+03  0.91810691172E+02 0.  0.
        -11    1    3    3    0    0  0.25468183992E+02  0.60436260191E+01  0.45946004146E+02  0.52879004419E+02  0.00000000000E+00 0. -1.
         11    1    3    3    0    0 -0.62947848080E+02 -0.21027059908E+02  0.32149738339E+03  0.32827600636E+03  0.00000000000E+00 0.  1.
        -13    1    4    4    0    0 -0.26174980807E+01 -0.30099175536E+02  0.74447815783E+02  0.80344812769E+02  0.00000000000E+00 0.  1.
         13    1    4    4    0    0  0.22418964439E+02  0.63039173195E+02  0.27285679392E+03  0.28094016679E+03  0.00000000000E+00 0. -1.
          1    1    1    2  501    0  0.17678197730E+02 -0.17956563770E+02  0.48179325560E+01  0.25654811080E+02  0.00000000000E+00 0. -1.
<scales pt_clust_5="13000.00000" pt_clust_6="13000.00000" pt_clust_7="13000.00000" pt_clust_8="13000.00000" pt_clust_9="25.19835"></scales>
<clustering>
<clus scale="   25.198">  2  9  1 -1</clus>
<clus scale="   91.811">  7  8 -1 -1</clus>
<clus scale="   92.926">  5  6 -1 -1</clus>
<clus scale="   99.118">  2  7  1 -1</clus>
<clus scale="   25.198">  2  5  1 -1</clus>
</clustering>
</event>
<event>
 9    1  0.1445593E-005  0.1078994E+03  0.7546771E-02  0.1264994E+00
         -2   -1    0    0    0  501 -0.00000000000E+00  0.00000000000E+00  0.29788442207E+03  0.29788442207E+03  0.00000000000E+00 0.  1.
         21   -1    0    0  501  502  0.00000000000E+00 -0.00000000000E+00 -0.11240828442E+03  0.11240828442E+03  0.00000000000E+00 0.  1.
         23    2    1    2    0    0  0.34018988374E+02 -0.31269232397E+02  0.18220259264E+03  0.20917734025E+03  0.91773190236E+02 0.  0.
         23    2    1    2    0    0 -0.57140368984E+02  0.78225316308E+02  0.38412081216E+02  0.13807419887E+03  0.90580210484E+02 0.  0.
        -11    1    3    3    0    0  0.15079143619E+02 -0.61143804256E+02  0.14369578416E+03  0.15688984593E+03  0.00000000000E+00 0.  1.
         11    1    3    3    0    0  0.18939844755E+02  0.29874571859E+02  0.38506808478E+02  0.52287494320E+02  0.00000000000E+00 0. -1.
        -13    1    4    4    0    0 -0.39685352643E+02  0.94971681925E+02  0.14297255677E+02  0.10391804031E+03  0.00000000000E+00 0.  1.
         13    1    4    4    0    0 -0.17455016341E+02 -0.16746365617E+02  0.24114825538E+02  0.34156158560E+02  0.00000000000E+00 0. -1.
         -2    1    1    2    0  502  0.23121380610E+02 -0.46956083911E+02 -0.35138536196E+02  0.63041167372E+02  0.00000000000E+00 0.  1.
<scales pt_clust_5="13000.00000" pt_clust_6="13000.00000" pt_clust_7="13000.00000" pt_clust_8="13000.00000" pt_clust_9="52.33997"></scales>
<clustering>
<clus scale="   52.340">  2  9  1 -1</clus>
<clus scale="   90.580">  7  8 -1 -1</clus>
<clus scale="   91.773">  5  6 -1 -1</clus>
<clus scale="  106.887">  2  7  1 -1</clus>
<clus scale="   52.340">  2  5  1 -1</clus>
</clustering>
</event>
<event>
 9    1  0.1445593E-005  0.1081266E+03  0.7546771E-02  0.1264375E+00
         21   -1    0    0  501  502  0.00000000000E+00  0.00000000000E+00  0.11296990351E+03  0.11296990351E+03  0.00000000000E+00 0. -1.
          1   -1    0    0  502    0 -0.00000000000E+00 -0.00000000000E+00 -0.77138815958E+03  0.77138815958E+03  0.00000000000E+00 0. -1.
         23    2    1    2    0    0 -0.48245822717E+01 -0.83000869012E+02 -0.50768029522E+03  0.52251434735E+03  0.91485191036E+02 0.  0.
         23    2    1    2    0    0  0.10156439692E+02  0.25581643736E+02 -0.23859644296E+03  0.25675085673E+03  0.90747815823E+02 0.  0.
        -11    1    4    4    0    0 -0.19518057748E+02 -0.23601097214E+02 -0.13363581487E+03  0.13710031869E+03  0.00000000000E+00 0.  1.
         11    1    4    4    0    0  0.29674497439E+02  0.49182740950E+02 -0.10496062808E+03  0.11965053804E+03  0.00000000000E+00 0. -1.
        -13    1    3    3    0    0  0.15773925754E+02 -0.85250936350E+02 -0.48090560771E+03  0.48865810380E+03  0.00000000000E+00 0. -1.
         13    1    3    3    0    0 -0.20598508026E+02  0.22500673378E+01 -0.26774687509E+02  0.33856243547E+02  0.00000000000E+00 0.  1.
          1    1    1    2  501    0 -0.53318574199E+01  0.57419225276E+02  0.87858482114E+02  0.10509285901E+03  0.00000000000E+00 0. -1.
<scales pt_clust_5="13000.00000" pt_clust_6="13000.00000" pt_clust_7="13000.00000" pt_clust_8="13000.00000" pt_clust_9="57.66625"></scales>
<clustering>
<clus scale="   57.666">  1  9  2 -1</clus>
<clus scale="   90.748">  5  6 -1 -1</clus>
<clus scale="   91.485">  7  8 -1 -1</clus>
<clus scale="  107.503">  1  5  2 -1</clus>
<clus scale="   57.666">  1  5  2 -1</clus>
</clustering>
</event>
<event>
 9    1  0.1445593E-005  0.1110198E+03  0.7546771E-02  0.1260500E+00
          3   -1    0    0  502    0 -0.00000000000E+00  0.00000000000E+00  0.70344344046E+02  0.70344344046E+02  0.00000000000E+00 0. -1.
         21   -1    0    0  501  502  0.00000000000E+00 -0.00000000000E+00 -0.29094876480E+03  0.29094876480E+03  0.00000000000E+00 0. -1.
         23    2    1    2    0    0  0.43534889571E+02 -0.14381314367E+02 -0.44772623921E+02  0.11597171111E+03  0.96657855926E+02 0.  0.
         23    2    1    2    0    0 -0.70759753297E+02 -0.19744427535E+02 -0.87529212730E+02  0.14681705354E+03  0.92179710485E+02 0.  0.
        -11    1    4    4    0    0 -0.41865268830E+02  0.18515787170E+02 -0.87636174241E+02  0.98871806621E+02  0.00000000000E+00 0.  1.
         11    1    4    4    0    0 -0.28894484467E+02 -0.38260214705E+02  0.10696151153E+00  0.47945246924E+02  0.00000000000E+00 0. -1.
        -13    1    3    3    0    0 -0.59045943570E+01 -0.38567819034E+02 -0.46756254278E+02  0.60897358019E+02  0.00000000000E+00 0. -1.
         13    1    3    3    0    0  0.49439483928E+02  0.24186504667E+02  0.19836303565E+01  0.55074353091E+02  0.00000000000E+00 0.  1.
          3    1    1    2  501    0  0.27224863727E+02  0.34125741902E+02 -0.88302584101E+02  0.98504344190E+02  0.00000000000E+00 0. -1.
<scales pt_clust_5="13000.00000" pt_clust_6="13000.00000" pt_clust_7="13000.00000" pt_clust_8="13000.00000" pt_clust_9="43.65501"></scales>
<clustering>
<clus scale="   43.655">  2  9  1 -1</clus>
<clus scale="   92.180">  5  6 -1 -1</clus>
<clus scale="   96.658">  7  8 -1 -1</clus>
<clus scale="  107.144">  2  5  1 -1</clus>
<clus scale="   43.655">  2  5  1 -1</clus>
</clustering>
</event>
<event>
 9    1  0.1445593E-005  0.1275411E+03  0.7546771E-02  0.1232477E+00
         21   -1    0    0  501  502  0.00000000000E+00  0.00000000000E+00  0.21500038091E+03  0.21500038091E+03  0.00000000000E+00 0. -1.
          2   -1    0    0  502    0 -0.00000000000E+00 -0.00000000000E+00 -0.24743933945E+03  0.24743933945E+03  0.00000000000E+00 0. -1.
         23    2    1    2    0    0  0.86985583313E+02 -0.21749428912E+02 -0.14009959649E+03  0.19010998284E+03  0.92056391815E+02 0.  0.
         23    2    1    2    0    0 -0.89825222253E+02 -0.20312008645E+02 -0.28312312209E+02  0.12997148783E+03  0.87234467828E+02 0.  0.
        -11    1    4    4    0    0 -0.35061291201E+02  0.19835087467E+01  0.30544985160E+02  0.46542717647E+02  0.00000000000E+00 0.  1.
         11    1    4    4    0    0 -0.54763931053E+02 -0.22295517391E+02 -0.58857297369E+02  0.83428770179E+02  0.00000000000E+00 0. -1.
        -13    1    3    3    0    0  0.67695780003E+02  0.15720504322E+02 -0.37007300863E+02  0.78736225484E+02  0.00000000000E+00 0.  1.
         13    1    3    3    0    0  0.19289803311E+02 -0.37469933234E+02 -0.10309229563E+03  0.11137375735E+03  0.00000000000E+00 0. -1.
          2    1    1    2  501    0  0.28396389398E+01  0.42061437557E+02  0.13597295016E+03  0.14235824969E+03  0.00000000000E+00 0. -1.
<scales pt_clust_5="13000.00000" pt_clust_6="13000.00000" pt_clust_7="13000.00000" pt_clust_8="13000.00000" pt_clust_9="42.15718"></scales>
<clustering>
<clus scale="   42.157">  1  9  2 -1</clus>
<clus scale="   87.234">  5  6 -1 -1</clus>
<clus scale="   92.056">  7  8 -1 -1</clus>
<clus scale="  124.106">  1  5  2 -1</clus>
<clus scale="   42.157">  1  5  2 -1</clus>
</clustering>
</event>
<event>
 9    1  0.1445593E-005  0.1088735E+03  0.7546771E-02  0.1263318E+00
         21   -1    0    0  501  502  0.00000000000E+00  0.00000000000E+00  0.18327273083E+03  0.18327273083E+03  0.00000000000E+00 0.  1.
         -4   -1    0    0    0  501 -0.00000000000E+00 -0.00000000000E+00 -0.14370693088E+03  0.14370693088E+03  0.00000000000E+00 0.  1.
         23    2    1    2    0    0 -0.30706018087E+02 -0.33462405292E+02 -0.10454003657E+02  0.10403889640E+03  0.93017276124E+02 0.  0.
         23    2    1    2    0    0 -0.22343619435E+02  0.83857270051E+02 -0.12549049964E+02  0.12666632491E+03  0.91408971889E+02 0.  0.
        -11    1    4    4    0    0 -0.53197540348E+02  0.71590018088E+02  0.45726606713E+01  0.89308556222E+02  0.00000000000E+00 0.  1.
         11    1    4    4    0    0  0.30853920913E+02  0.12267251963E+02 -0.17121710635E+02  0.37357768690E+02  0.00000000000E+00 0. -1.
        -13    1    3    3    0    0 -0.54192209019E+02 -0.29433017482E+01 -0.28735411955E+02  0.61409953947E+02  0.00000000000E+00 0.  1.
         13    1    3    3    0    0  0.23486190931E+02 -0.30519103544E+02  0.18281408298E+02  0.42628942456E+02  0.00000000000E+00 0. -1.
         -4    1    1    2    0  502  0.53049637523E+02 -0.50394864759E+02  0.62568853575E+02  0.96274440393E+02  0.00000000000E+00 0.  1.
<scales pt_clust_5="13000.00000" pt_clust_6="13000.00000" pt_clust_7="13000.00000" pt_clust_8="13000.00000" pt_clust_9="73.17039"></scales>
<clustering>
<clus scale="   73.170">  1  9  2 -1</clus>
<clus scale="   91.409">  5  6 -1 -1</clus>
<clus scale="   93.017">  7  8 -1 -1</clus>
<clus scale="  107.503">  1  5  2 -1</clus>
<clus scale="   73.170">  1  5  2 -1</clus>
</clustering>
</event>
<event>
 9    1  0.1445593E-005  0.1004858E+03  0.7546771E-02  0.1279369E+00
          2   -1    0    0  502    0 -0.00000000000E+00  0.00000000000E+00  0.73401772644E+03  0.73401772644E+03  0.00000000000E+00 0. -1.
         21   -1    0    0  501  502  0.00000000000E+00 -0.00000000000E+00 -0.75729830203E+02  0.75729830203E+02  0.00000000000E+00 0. -1.
         23    2    1    2    0    0  0.34551620416E+01 -0.41326334399E+02  0.54198967005E+03  0.55133996016E+03  0.92212500067E+02 0.  0.
         23    2    1    2    0    0 -0.49351906815E+02  0.24202187247E+02  0.16011642485E+03  0.19268254699E+03  0.92021398786E+02 0.  0.
        -11    1    4    4    0    0 -0.70098512080E+02  0.11865091701E+02  0.15096513274E+03  0.16686837058E+03  0.00000000000E+00 0. -1.
         11    1    4    4    0    0  0.20746605265E+02  0.12337095547E+02  0.91512921106E+01  0.25814176412E+02  0.00000000000E+00 0.  1.
        -13    1    3    3    0    0 -0.20632904562E+02 -0.64477676893E+02  0.36235123406E+03  0.36862108512E+03  0.00000000000E+00 0. -1.
         13    1    3    3    0    0  0.24088066604E+02  0.23151342494E+02  0.17963843599E+03  0.18271887505E+03  0.00000000000E+00 0.  1.
          2    1    1    2  501    0  0.45896744773E+02  0.17124147152E+02 -0.43818198663E+02  0.65725049491E+02  0.00000000000E+00 0. -1.
<scales pt_clust_5="13000.00000" pt_clust_6="13000.00000" pt_clust_7="13000.00000" pt_clust_8="13000.00000" pt_clust_9="48.98722"></scales>
<clustering>
<clus scale="   48.987">  2  9  1 -1</clus>
<clus scale="   92.021">  5  6 -1 -1</clus>
<clus scale="   92.213">  7  8 -1 -1</clus>
<clus scale="  100.310">  2  5  1 -1</clus>
<clus scale="   48.987">  2  5  1 -1</clus>
</clustering>
</event>
<event>
 9    1  0.1445593E-005  0.1049591E+03  0.7546771E-02  0.1272698E+00
          1   -1    0    0  502    0 -0.00000000000E+00  0.00000000000E+00  0.30668277301E+03  0.30668277301E+03  0.00000000000E+00 0. -1.
         21   -1    0    0  501  502  0.00000000000E+00 -0.00000000000E+00 -0.10993800275E+03  0.10993800275E+03  0.00000000000E+00 0. -1.
         23    2    1    2    0    0  0.43969781184E+02 -0.55690451024E+01  0.21369928967E+03  0.23885581813E+03  0.97058536615E+02 0.  0.
         23    2    1    2    0    0 -0.25389548911E+02  0.22362354798E+02  0.47461177100E+02  0.10865184573E+03  0.91694907942E+02 0.  0.
        -11    1    3    3    0    0 -0.98479398580E+01 -0.38991046939E+02  0.56318919502E+02  0.69203355083E+02  0.00000000000E+00 0.  1.
         11    1    3    3    0    0  0.53817721042E+02  0.33422001836E+02  0.15738037016E+03  0.16965246305E+03  0.00000000000E+00 0. -1.
        -11    1    4    4    0    0 -0.49206499313E+02  0.32238408369E+02  0.56269403507E+02  0.81405407190E+02  0.00000000000E+00 0.  1.
         11    1    4    4    0    0  0.23816950402E+02 -0.98760535710E+01 -0.88082264066E+01  0.27246438538E+02  0.00000000000E+00 0. -1.
          1    1    1    2  501    0 -0.18580232273E+02 -0.16793309695E+02 -0.64415696504E+02  0.69113111911E+02  0.00000000000E+00 0. -1.
<scales pt_clust_5="13000.00000" pt_clust_6="13000.00000" pt_clust_7="13000.00000" pt_clust_8="13000.00000" pt_clust_9="25.04477"></scales>
<clustering>
<clus scale="   25.045">  2  9  1 -1</clus>
<clus scale="   91.695">  7  8 -1 -1</clus>
<clus scale="   97.059">  5  6 -1 -1</clus>
<clus scale="  100.020">  2  7  1 -1</clus>
<clus scale="   25.045">  2  5  1 -1</clus>
</clustering>
</event>
<event>
 9    1  0.1445593E-005  0.1408502E+03  0.7546771E-02  0.1212520E+00
         -1   -1    0    0    0  501 -0.00000000000E+00  0.00000000000E+00  0.10966952406E+03  0.10966952406E+03  0.00000000000E+00 0.  1.
         21   -1    0    0  501  502  0.00000000000E+00 -0.00000000000E+00 -0.43705167137E+03  0.43705167137E+03  0.00000000000E+00 0. -1.
         23    2    1    2    0    0  0.93212350447E+02  0.49333807077E+02  0.33138856886E+02  0.14223358283E+03  0.89497717581E+02 0.  0.
         23    2    1    2    0    0 -0.95216751738E+02 -0.70289663573E+02 -0.24383425920E+03  0.28591711878E+03  0.91030688424E+02 0.  0.
        -11    1    3    3    0    0  0.86916270707E+02  0.19178038959E+02  0.54845754209E+02  0.10454803703E+03  0.00000000000E+00 0.  1.
         11    1    3    3    0    0  0.62960797401E+01  0.30155768118E+02 -0.21706897323E+02  0.37685545800E+02  0.00000000000E+00 0. -1.
        -13    1    4    4    0    0 -0.49766427322E+02 -0.39189126469E+02 -0.21421625099E+03  0.22338551231E+03  0.00000000000E+00 0. -1.
         13    1    4    4    0    0 -0.45450324416E+02 -0.31100537104E+02 -0.29618008216E+02  0.62531606475E+02  0.00000000000E+00 0.  1.
         -1    1    1    2    0  502  0.20044012911E+01  0.20955856496E+02 -0.11668674499E+03  0.11857049381E+03  0.00000000000E+00 0.  1.
<scales pt_clust_5="13000.00000" pt_clust_6="13000.00000" pt_clust_7="13000.00000" pt_clust_8="13000.00000" pt_clust_9="21.05150"></scales>
<clustering>
<clus scale="   21.051">  2  9  1 -1</clus>
<clus scale="   89.498">  5  6 -1 -1</clus>
<clus scale="   91.031">  7  8 -1 -1</clus>
<clus scale="  139.864">  1  5  2 -1</clus>
<clus scale="   21.051">  2  5  1 -1</clus>
</clustering>
</event>
<event>
 9    1  0.1445593E-005  0.2029328E+03  0.7546771E-02  0.1147414E+00
         21   -1    0    0  501  502  0.00000000000E+00  0.00000000000E+00  0.17495892165E+03  0.17495892165E+03  0.00000000000E+00 0.  1.
          2   -1    0    0  502    0 -0.00000000000E+00 -0.00000000000E+00 -0.59680689069E+03  0.59680689069E+03  0.00000000000E+00 0. -1.
         23    2    1    2    0    0  0.17535649183E+03  0.10236693868E+03 -0.32354188011E+03  0.39253899992E+03  0.90435772316E+02 0.  0.
         23    2    1    2    0    0 -0.50887237380E+02 -0.11910532089E+03  0.67632534807E+02  0.17112011962E+03  0.89063725389E+02 0.  0.
        -11    1    3    3    0    0  0.10158956541E+03  0.10797228453E+03 -0.21962197143E+03  0.26497596940E+03  0.00000000000E+00 0. -1.
         11    1    3    3    0    0  0.73766926427E+02 -0.56053458447E+01 -0.10391990868E+03  0.12756303052E+03  0.00000000000E+00 0.  1.
        -13    1    4    4    0    0  0.47195227160E+01 -0.29613300382E+02  0.58033099910E+02  0.65322753611E+02  0.00000000000E+00 0.  1.
         13    1    4    4    0    0 -0.55606760096E+02 -0.89492020509E+02  0.95994348972E+01  0.10579736600E+03  0.00000000000E+00 0. -1.
          2    1    1    2  501    0 -0.12446925445E+03  0.16738382209E+02 -0.16593862374E+03  0.20810669281E+03  0.00000000000E+00 0. -1.
<scales pt_clust_5="13000.00000" pt_clust_6="13000.00000" pt_clust_7="13000.00000" pt_clust_8="13000.00000" pt_clust_9="125.58975"></scales>
<clustering>
<clus scale="   89.064">  7  8 -1 -1</clus>
<clus scale="   90.436">  5  6 -1 -1</clus>
<clus scale="  125.590">  1  9  2 -1</clus>
<clus scale="  202.325">  1  7  2 -1</clus>
<clus scale="  125.590">  1  5  2 -1</clus>
</clustering>
</event>
<event>
 9    1  0.1445593E-005  0.9232748E+02  0.7546771E-02  0.1298618E+00
         21   -1    0    0  501  502  0.00000000000E+00  0.00000000000E+00  0.19742358999E+03  0.19742358999E+03  0.00000000000E+00 0.  1.
         -3   -1    0    0    0  501 -0.00000000000E+00 -0.00000000000E+00 -0.96530858167E+02  0.96530858167E+02  0.00000000000E+00 0.  1.
         23    2    1    2    0    0  0.16510463543E+02 -0.10044847293E+02 -0.33360512565E+02  0.99682722734E+02  0.91925116532E+02 0.  0.
         23    2    1    2    0    0  0.17590047234E+02 -0.57612980921E+01  0.55742868354E+02  0.10722829826E+03  0.89710859200E+02 0.  0.
        -11    1    4    4    0    0  0.50047105040E+02  0.10235158226E+02  0.48266875912E+02  0.70279175415E+02  0.00000000000E+00 0.  1.
         11    1    4    4    0    0 -0.32457057806E+02 -0.15996456318E+02  0.74759924420E+01  0.36949122846E+02  0.00000000000E+00 0. -1.
        -11    1    3    3    0    0 -0.10545350857E+02  0.35753927692E+02 -0.74063688012E+00  0.37283995402E+02  0.00000000000E+00 0. -1.
         11    1    3    3    0    0  0.27055814400E+02 -0.45798774985E+02 -0.32619875685E+02  0.62398727332E+02  0.00000000000E+00 0.  1.
         -3    1    1    2    0  502 -0.34100510778E+02  0.15806145385E+02  0.78510376034E+02  0.87043427163E+02  0.00000000000E+00 0.  1.
<scales pt_clust_5="13000.00000" pt_clust_6="13000.00000" pt_clust_7="13000.00000" pt_clust_8="13000.00000" pt_clust_9="37.58562"></scales>
<clustering>
<clus scale="   37.586">  1  9  2 -1</clus>
<clus scale="   89.711">  5  6 -1 -1</clus>
<clus scale="   90.123">  1  5  2 -1</clus>
<clus scale="   91.925">  7  8 -1 -1</clus>
<clus scale="   37.586">  1  5  2 -1</clus>
</clustering>
</event>
<event>
 9    1  0.1445593E-005  0.1065626E+03  0.7546771E-02  0.1267158E+00
         21   -1    0    0  501  502  0.00000000000E+00  0.00000000000E+00  0.10386087901E+03  0.10386087901E+03  0.00000000000E+00 0. -1.
          1   -1    0    0  502    0 -0.00000000000E+00 -0.00000000000E+00 -0.29172870786E+03  0.29172870786E+03  0.00000000000E+00 0. -1.
         23    2    1    2    0    0  0.55370275264E+02  0.11213573053E+02 -0.21923940547E+03  0.24395639957E+03  0.90869116725E+02 0.  0.
         23    2    1    2    0    0 -0.55756216773E+02  0.26547210349E+02  0.15967305206E+02  0.11084940017E+03  0.90659387804E+02 0.  0.
        -13    1    4    4    0    0 -0.10541803917E+02  0.50779954036E+02  0.26862161658E+02  0.58406413095E+02  0.00000000000E+00 0. -1.
         13    1    4    4    0    0 -0.45214412857E+02 -0.24232743686E+02 -0.10894856452E+02  0.52442987078E+02  0.00000000000E+00 0.  1.
        -13    1    3    3    0    0  0.77216189178E+02 -0.83364179957E+01 -0.15715395289E+03  0.17529746331E+03  0.00000000000E+00 0.  1.
         13    1    3    3    0    0 -0.21845913914E+02  0.19549991049E+02 -0.62085452586E+02  0.68658936254E+02  0.00000000000E+00 0. -1.
          1    1    1    2  501    0  0.38594150897E+00 -0.37760783402E+02  0.15404271418E+02  0.40783787121E+02  0.00000000000E+00 0. -1.
<scales pt_clust_5="13000.00000" pt_clust_6="13000.00000" pt_clust_7="13000.00000" pt_clust_8="13000.00000" pt_clust_9="37.76276"></scales>
<clustering>
<clus scale="   37.763">  1  9  2 -1</clus>
<clus scale="   90.659">  5  6 -1 -1</clus>
<clus scale="   90.869">  7  8 -1 -1</clus>
<clus scale="  106.384">  1  5  2 -1</clus>
<clus scale="   37.763">  1  5  2 -1</clus>
</clustering>
</event>
<event>
 9    1  0.1445593E-005  0.1074145E+03  0.7546771E-02  0.1265522E+00
         21   -1    0    0  501  502  0.00000000000E+00  0.00000000000E+00  0.29611699239E+03  0.29611699239E+03  0.00000000000E+00 0. -1.
         -4   -1    0    0    0  501 -0.00000000000E+00 -0.00000000000E+00 -0.61146636540E+02  0.61146636540E+02  0.00000000000E+00 0.  1.
         23    2    1    2    0    0  0.57328680234E+02 -0.31622978941E+02  0.28691157127E+02  0.11392516280E+03  0.88708341480E+02 0.  0.
         23    2    1    2    0    0 -0.51060820154E+02  0.55997367749E+01  0.16320192318E+03  0.19262212881E+03  0.88486453029E+02 0.  0.
        -13    1    3    3    0    0 -0.20512147782E+02 -0.16321484908E+02  0.22162250083E+02  0.34326438863E+02  0.00000000000E+00 0. -1.
         13    1    3    3    0    0  0.77840828016E+02 -0.15301494033E+02  0.65289070435E+01  0.79598723941E+02  0.00000000000E+00 0.  1.
        -13    1    4    4    0    0 -0.16912241571E+02  0.46210867977E+02  0.75625277960E+02  0.90225555696E+02  0.00000000000E+00 0.  1.
         13    1    4    4    0    0 -0.34148578582E+02 -0.40611131202E+02  0.87576645219E+02  0.10239657311E+03  0.00000000000E+00 0. -1.
         -4    1    1    2    0  502 -0.62678600801E+01  0.26023242166E+02  0.43077275545E+02  0.50716337321E+02  0.00000000000E+00 0.  1.
<scales pt_clust_5="13000.00000" pt_clust_6="13000.00000" pt_clust_7="13000.00000" pt_clust_8="13000.00000" pt_clust_9="26.76743"></scales>
<clustering>
<clus scale="   26.767">  1  9  2 -1</clus>
<clus scale="   88.486">  7  8 -1 -1</clus>
<clus scale="   88.708">  5  6 -1 -1</clus>
<clus scale="  107.231">  1  7  2 -1</clus>
<clus scale="   26.767">  1  5  2 -1</clus>
</clustering>
</event>
<event>
 9    1  0.1445593E-005  0.2198655E+03  0.7546771E-02  0.1153640E+00
         21   -1    0    0  501  502  0.00000000000E+00  0.00000000000E+00  0.23838395913E+03  0.23838395913E+03  0.00000000000E+00 0. -1.
          2   -1    0    0  502    0 -0.00000000000E+00 -0.00000000000E+00 -0.84063237863E+03  0.84063237863E+03  0.00000000000E+00 0. -1.
         23    2    1    2    0    0  0.76216033714E+02  0.54651289046E+02 -0.48673103153E+03  0.50572155298E+03  0.10025739325E+03 0.  0.
         23    2    1    2    0    0  0.11456964467E+03 -0.12788734888E+03 -0.25732431308E+03  0.32455415773E+03  0.98174445326E+02 0.  0.
        -11    1    3    3    0    0  0.58748585774E+02  0.81879913715E+02 -0.41454214137E+03  0.42661563915E+03  0.00000000000E+00 0. -1.
         11    1    3    3    0    0  0.17467447939E+02 -0.27228624669E+02 -0.72188890164E+02  0.79105913824E+02  0.00000000000E+00 0.  1.
        -13    1    4    4    0    0  0.10575187440E+02 -0.63647763804E+02 -0.42101289797E+02  0.77041489012E+02  0.00000000000E+00 0.  1.
         13    1    4    4    0    0  0.10399445723E+03 -0.64239585075E+02 -0.21522302329E+03  0.24751266872E+03  0.00000000000E+00 0. -1.
          2    1    1    2  501    0 -0.19078567838E+03  0.73236059833E+02  0.14180692511E+03  0.24874062705E+03  0.00000000000E+00 0. -1.
<scales pt_clust_5="13000.00000" pt_clust_6="13000.00000" pt_clust_7="13000.00000" pt_clust_8="13000.00000" pt_clust_9="196.72979"></scales>
<clustering>
<clus scale="   98.174">  7  8 -1 -1</clus>
<clus scale="  100.257">  5  6 -1 -1</clus>
<clus scale="  137.285">  2  5  1 -1</clus>
<clus scale="  196.730">  1  9  2 -1</clus>
<clus scale="  196.730">  1  5  2 -1</clus>
</clustering>
</event>
<event>
 9    1  0.1445593E-005  0.1035551E+03  0.7546771E-02  0.1273234E+00
          1   -1    0    0  502    0 -0.00000000000E+00  0.00000000000E+00  0.66527445130E+03  0.66527445130E+03  0.00000000000E+00 0. -1.
         21   -1    0    0  501  502  0.00000000000E+00 -0.00000000000E+00 -0.70061879708E+02  0.70061879708E+02  0.00000000000E+00 0. -1.
         23    2    1    2    0    0 -0.51128452751E+01  0.31926854497E+02  0.32240461496E+03  0.33682469504E+03  0.91981923319E+02 0.  0.
         23    2    1    2    0    0 -0.23677618192E+02 -0.66313411692E+02  0.31571608101E+03  0.33644366324E+03  0.92518087720E+02 0.  0.
        -13    1    4    4    0    0 -0.37381966029E+02 -0.44020286707E+02  0.30085912559E+03  0.30635177570E+03  0.00000000000E+00 0. -1.
         13    1    4    4    0    0  0.13704347838E+02 -0.22293124985E+02  0.14856955415E+02  0.30091887536E+02  0.00000000000E+00 0.  1.
        -13    1    3    3    0    0  0.32569122335E+02  0.46602255932E+02  0.17751813595E+03  0.18640066142E+03  0.00000000000E+00 0. -1.
         13    1    3    3    0    0 -0.37681967610E+02 -0.14675401435E+02  0.14488647901E+03  0.15042403362E+03  0.00000000000E+00 0.  1.
          1    1    1    2  501    0  0.28790463467E+02  0.34386557196E+02 -0.42908124367E+02  0.62067972732E+02  0.00000000000E+00 0. -1.
<scales pt_clust_5="13000.00000" pt_clust_6="13000.00000" pt_clust_7="13000.00000" pt_clust_8="13000.00000" pt_clust_9="44.84781"></scales>
<clustering>
<clus scale="   44.848">  2  9  1 -1</clus>
<clus scale="   91.982">  7  8 -1 -1</clus>
<clus scale="   92.518">  5  6 -1 -1</clus>
<clus scale="  103.076">  1  7  2 -1</clus>
<clus scale="   44.848">  2  5  1 -1</clus>
</clustering>
</event>
<event>
 9    1  0.1445593E-005  0.1473651E+03  0.7546771E-02  0.1204189E+00
          1   -1    0    0  502    0 -0.00000000000E+00  0.00000000000E+00  0.43160940897E+03  0.43160940897E+03  0.00000000000E+00 0. -1.
         21   -1    0    0  501  502  0.00000000000E+00 -0.00000000000E+00 -0.81826338638E+02  0.81826338638E+02  0.00000000000E+00 0. -1.
         23    2    1    2    0    0  0.98763959540E+02  0.26339208325E+01  0.13120929436E+03  0.18811529643E+03  0.91707298413E+02 0.  0.
         23    2    1    2    0    0 -0.12670775030E+03  0.54207783529E+02  0.20096331602E+03  0.25957881219E+03  0.89451481660E+02 0.  0.
        -11    1    4    4    0    0 -0.50072182983E+02 -0.23064029716E+02  0.59789997688E+02  0.81326605727E+02  0.00000000000E+00 0.  1.
         11    1    4    4    0    0 -0.76635567312E+02  0.77271813246E+02  0.14117331833E+03  0.17825220646E+03  0.00000000000E+00 0. -1.
        -11    1    3    3    0    0  0.26625078057E+02 -0.41140694268E+02  0.35449799955E+02  0.60482558008E+02  0.00000000000E+00 0.  1.
         11    1    3    3    0    0  0.72138881482E+02  0.43774615100E+02  0.95759494410E+02  0.12763273843E+03  0.00000000000E+00 0. -1.
          1    1    1    2  501    0  0.27943790756E+02 -0.56841704362E+02  0.17610459945E+02  0.65741638982E+02  0.00000000000E+00 0. -1.
<scales pt_clust_5="13000.00000" pt_clust_6="13000.00000" pt_clust_7="13000.00000" pt_clust_8="13000.00000" pt_clust_9="63.33905"></scales>
<clustering>
<clus scale="   63.339">  2  9  1 -1</clus>
<clus scale="   89.451">  5  6 -1 -1</clus>
<clus scale="   91.707">  7  8 -1 -1</clus>
<clus scale="  145.972">  2  5  1 -1</clus>
<clus scale="   63.339">  2  5  1 -1</clus>
</clustering>
</event>
<event>
 9    1  0.1445593E-005  0.1204287E+03  0.7546771E-02  0.1252510E+00
          2   -1    0    0  502    0 -0.00000000000E+00  0.00000000000E+00  0.60641600034E+03  0.60641600034E+03  0.00000000000E+00 0. -1.
         21   -1    0    0  501  502  0.00000000000E+00 -0.00000000000E+00 -0.32766800503E+02  0.32766800503E+02  0.00000000000E+00 0.  1.
         23    2    1    2    0    0  0.29901888066E+02  0.21404437048E+02  0.39182829951E+03  0.41101574870E+03  0.11854221421E+03 0.  0.
         23    2    1    2    0    0  0.66416952519E+01 -0.21124925624E+01  0.13379022170E+03  0.16480650690E+03  0.95983261836E+02 0.  0.
        -13    1    4    4    0    0  0.18088067749E+02 -0.28572778970E+02  0.13162016812E+03  0.13589499824E+03  0.00000000000E+00 0.  1.
         13    1    4    4    0    0 -0.11446372497E+02  0.26460286408E+02  0.21700535859E+01  0.28911508655E+02  0.00000000000E+00 0. -1.
        -13    1    3    3    0    0 -0.32271809991E+02 -0.15959195442E+02  0.50223487566E+02  0.61794533274E+02  0.00000000000E+00 0.  1.
         13    1    3    3    0    0  0.62173698057E+02  0.37363632490E+02  0.34160481194E+03  0.34922121543E+03  0.00000000000E+00 0. -1.
          2    1    1    2  501    0 -0.36543583318E+02 -0.19291944485E+02  0.48030678621E+02  0.63360545235E+02  0.00000000000E+00 0. -1.
<scales pt_clust_5="13000.00000" pt_clust_6="13000.00000" pt_clust_7="13000.00000" pt_clust_8="13000.00000" pt_clust_9="41.32327"></scales>
<clustering>
<clus scale="   41.323">  2  9  1 -1</clus>
<clus scale="   95.983">  5  6 -1 -1</clus>
<clus scale="   98.304">  2  5  1 -1</clus>
<clus scale="  118.542">  7  8 -1 -1</clus>
<clus scale="   41.323">  2  5  1 -1</clus>
</clustering>
</event>
<event>
 9    1  0.1445593E-005  0.1134232E+03  0.7546771E-02  0.1258280E+00
         21   -1    0    0  501  502  0.00000000000E+00  0.00000000000E+00  0.64784423064E+03  0.64784423064E+03  0.00000000000E+00 0.  1.
          2   -1    0    0  502    0 -0.00000000000E+00 -0.00000000000E+00 -0.39114388078E+02  0.39114388078E+02  0.00000000000E+00 0.  1.
         23    2    1    2    0    0  0.93382490621E+01  0.27157006405E+02  0.12799663664E+03  0.16623222938E+03  0.10210440344E+03 0.  0.
         23    2    1    2    0    0 -0.60363138610E+02 -0.68539925501E+02  0.26482494313E+03  0.29504417185E+03  0.92614161712E+02 0.  0.
        -11    1    3    3    0    0  0.25273497184E+02 -0.34051177303E+02  0.58647084403E+02  0.72372044635E+02  0.00000000000E+00 0.  1.
         11    1    3    3    0    0 -0.15935248122E+02  0.61208183708E+02  0.69349552239E+02  0.93860184750E+02  0.00000000000E+00 0. -1.
        -13    1    4    4    0    0 -0.84594972606E+02 -0.62127970916E+02  0.21688943836E+03  0.24095066431E+03  0.00000000000E+00 0.  1.
         13    1    4    4    0    0  0.24231833996E+02 -0.64119545849E+01  0.47935504766E+02  0.54093507537E+02  0.00000000000E+00 0. -1.
          2    1    1    2  501    0  0.51024889548E+02  0.41382919095E+02  0.21590826280E+03  0.22568221749E+03  0.00000000000E+00 0.  1.
<scales pt_clust_5="13000.00000" pt_clust_6="13000.00000" pt_clust_7="13000.00000" pt_clust_8="13000.00000" pt_clust_9="65.69692"></scales>
<clustering>
<clus scale="   65.697">  1  9  2 -1</clus>
<clus scale="   92.614">  7  8 -1 -1</clus>
<clus scale="  102.104">  5  6 -1 -1</clus>
<clus scale="  104.961">  1  7  2 -1</clus>
<clus scale="   65.697">  1  5  2 -1</clus>
</clustering>
</event>
<event>
 9    1  0.1445593E-005  0.9287409E+02  0.7546771E-02  0.1296711E+00
          2   -1    0    0  502    0 -0.00000000000E+00  0.00000000000E+00  0.13620812205E+03  0.13620812205E+03  0.00000000000E+00 0. -1.
         21   -1    0    0  501  502  0.00000000000E+00 -0.00000000000E+00 -0.80316907651E+02  0.80316907651E+02  0.00000000000E+00 0.  1.
         23    2    1    2    0    0 -0.20539666130E+02 -0.79117460660E+01  0.33694420070E+02  0.10048119166E+03  0.92068899865E+02 0.  0.
         23    2    1    2    0    0 -0.21541342556E+01  0.63444634775E+01  0.17549100226E+02  0.92826042907E+02  0.90905504848E+02 0.  0.
        -11    1    4    4    0    0  0.28746331789E+02  0.17640313920E+02  0.40505073174E+02  0.52708568747E+02  0.00000000000E+00 0. -1.
         11    1    4    4    0    0 -0.30900466044E+02 -0.11295850442E+02 -0.22955972948E+02  0.40117474160E+02  0.00000000000E+00 0.  1.
        -13    1    3    3    0    0  0.22301745085E+02  0.28844217994E+02  0.22768001989E+02  0.42985330754E+02  0.00000000000E+00 0.  1.
         13    1    3    3    0    0 -0.42841411215E+02 -0.36755964060E+02  0.10926418081E+02  0.57495860903E+02  0.00000000000E+00 0. -1.
          2    1    1    2  501    0  0.22693800386E+02  0.15672825885E+01  0.46476941047E+01  0.23217795140E+02  0.00000000000E+00 0. -1.
<scales pt_clust_5="13000.00000" pt_clust_6="13000.00000" pt_clust_7="13000.00000" pt_clust_8="13000.00000" pt_clust_9="22.74786"></scales>
<clustering>
<clus scale="   22.748">  2  9  1 -1</clus>
<clus scale="   90.906">  5  6 -1 -1</clus>
<clus scale="   91.721">  2  5  1 -1</clus>
<clus scale="   92.069">  7  8 -1 -1</clus>
<clus scale="   22.748">  2  5  1 -1</clus>
</clustering>
</event>
<event>
 9    1  0.1445593E-005  0.1117854E+03  0.7546771E-02  0.1258092E+00
         21   -1    0    0  501  502  0.00000000000E+00  0.00000000000E+00  0.17489493710E+03  0.17489493710E+03  0.00000000000E+00 0. -1.
         -2   -1    0    0    0  501 -0.00000000000E+00 -0.00000000000E+00 -0.15414043503E+03  0.15414043503E+03  0.00000000000E+00 0.  1.
         23    2    1    2    0    0  0.20602407588E+02 -0.47587160858E+02 -0.56236679939E+02  0.11938883872E+03  0.91663152703E+02 0.  0.
         23    2    1    2    0    0 -0.10035930678E+02  0.79293735669E+02 -0.27146943367E+01  0.12321746396E+03  0.93738772333E+02 0.  0.
        -13    1    4    4    0    0  0.60533234247E+01  0.95351861580E+02 -0.16020910126E+02  0.96877705343E+02  0.00000000000E+00 0. -1.
         13    1    4    4    0    0 -0.16089254102E+02 -0.16058125912E+02  0.13306215789E+02  0.26339758617E+02  0.00000000000E+00 0.  1.
        -13    1    3    3    0    0 -0.18493434880E+02 -0.29001802506E+02 -0.66527936534E+02  0.74893778258E+02  0.00000000000E+00 0.  1.
         13    1    3    3    0    0  0.39095842467E+02 -0.18585358351E+02  0.10291256595E+02  0.44495060462E+02  0.00000000000E+00 0. -1.
         -2    1    1    2    0  502 -0.10566476910E+02 -0.31706574811E+02  0.79705876345E+02  0.86429069442E+02  0.00000000000E+00 0.  1.
<scales pt_clust_5="13000.00000" pt_clust_6="13000.00000" pt_clust_7="13000.00000" pt_clust_8="13000.00000" pt_clust_9="33.42091"></scales>
<clustering>
<clus scale="   33.421">  1  9  2 -1</clus>
<clus scale="   91.663">  7  8 -1 -1</clus>
<clus scale="   93.739">  5  6 -1 -1</clus>
<clus scale="  110.051">  2  7  1 -1</clus>
<clus scale="   33.421">  1  5  2 -1</clus>
</clustering>
</event>
<event>
 9    1  0.1445593E-005  0.1070016E+03  0.7546771E-02  0.1266312E+00
         21   -1    0    0  501  502  0.00000000000E+00  0.00000000000E+00  0.20677950968E+03  0.20677950968E+03  0.00000000000E+00 0. -1.
          2   -1    0    0  502    0 -0.00000000000E+00 -0.00000000000E+00 -0.30515251813E+03  0.30515251813E+03  0.00000000000E+00 0. -1.
         23    2    1    2    0    0  0.27721942590E+02  0.48009462760E+02 -0.13578600404E+03  0.17390677948E+03  0.93446853566E+02 0.  0.
         23    2    1    2    0    0 -0.43550479122E+02 -0.28073581420E+02 -0.13029850373E+03  0.16839291375E+03  0.93240029615E+02 0.  0.
        -11    1    3    3    0    0  0.60031205488E+02  0.43063092311E+02 -0.77436249483E+02  0.10702592343E+03  0.00000000000E+00 0. -1.
         11    1    3    3    0    0 -0.32309262899E+02  0.49463704495E+01 -0.58349754555E+02  0.66880856052E+02  0.00000000000E+00 0.  1.
        -13    1    4    4    0    0 -0.25162448597E+02  0.14588154728E+02  0.10159502717E+01  0.29103182519E+02  0.00000000000E+00 0. -1.
         13    1    4    4    0    0 -0.18388030525E+02 -0.42661736149E+02 -0.13131445400E+03  0.13928973123E+03  0.00000000000E+00 0.  1.
          2    1    1    2  501    0  0.15828536532E+02 -0.19935881340E+02  0.16771149931E+03  0.16963233458E+03  0.00000000000E+00 0. -1.
<scales pt_clust_5="13000.00000" pt_clust_6="13000.00000" pt_clust_7="13000.00000" pt_clust_8="13000.00000" pt_clust_9="25.45549"></scales>
<clustering>
<clus scale="   25.455">  1  9  2 -1</clus>
<clus scale="   93.240">  7  8 -1 -1</clus>
<clus scale="   93.447">  5  6 -1 -1</clus>
<clus scale="  106.821">  1  7  2 -1</clus>
<clus scale="   25.455">  1  5  2 -1</clus>
</clustering>
</event>
<event>
 9    1  0.1445593E-005  0.1078179E+03  0.7546771E-02  0.1265539E+00
         21   -1    0    0  501  502  0.00000000000E+00  0.00000000000E+00  0.48994663627E+02  0.48994663627E+02  0.00000000000E+00 0. -1.
          2   -1    0    0  502    0 -0.00000000000E+00 -0.00000000000E+00 -0.49751095371E+03  0.49751095371E+03  0.00000000000E+00 0. -1.
         23    2    1    2    0    0 -0.29944615781E+02 -0.21731701946E+02 -0.16123315148E+03  0.18976620616E+03  0.92984606149E+02 0.  0.
         23    2    1    2    0    0 -0.12166151374E+02  0.89826281984E+02 -0.18338484423E+03  0.22557141159E+03  0.95056217370E+02 0.  0.
        -11    1    4    4    0    0  0.22766913371E+02  0.82152681295E+02 -0.16413731653E+03  0.18495527585E+03  0.00000000000E+00 0. -1.
         11    1    4    4    0    0 -0.34933064745E+02  0.76736006889E+01 -0.19247527703E+02  0.40616135742E+02  0.00000000000E+00 0.  1.
        -13    1    3    3    0    0 -0.97838880392E+01 -0.55634228733E+02 -0.67153540213E+02  0.87752434924E+02  0.00000000000E+00 0. -1.
         13    1    3    3    0    0 -0.20160727741E+02  0.33902526788E+02 -0.94079611271E+02  0.10201377124E+03  0.00000000000E+00 0.  1.
          2    1    1    2  501    0  0.42110767154E+02 -0.68094580038E+02 -0.10389829436E+03  0.13116799958E+03  0.00000000000E+00 0. -1.
<scales pt_clust_5="13000.00000" pt_clust_6="13000.00000" pt_clust_7="13000.00000" pt_clust_8="13000.00000" pt_clust_9="80.06365"></scales>
<clustering>
<clus scale="   80.064">  1  9  2 -1</clus>
<clus scale="   92.985">  7  8 -1 -1</clus>
<clus scale="   95.056">  5  6 -1 -1</clus>
<clus scale="  105.996">  2  7  1 -1</clus>
<clus scale="   80.064">  1  5  2 -1</clus>
</clustering>
</event>
<event>
 9    1  0.1445593E-005  0.9709026E+02  0.7546771E-02  0.1289036E+00
         21   -1    0    0  501  502  0.00000000000E+00  0.00000000000E+00  0.71902172429E+02  0.71902172429E+02  0.00000000000E+00 0. -1.
          1   -1    0    0  502    0 -0.00000000000E+00 -0.00000000000E+00 -0.16835173290E+03  0.16835173290E+03  0.00000000000E+00 0. -1.
         23    2    1    2    0    0  0.28327364000E+02  0.15576611878E+02 -0.59842874503E+02  0.11575556357E+03  0.93664883915E+02 0.  0.
         23    2    1    2    0    0 -0.18976001505E+02  0.41921347752E+01 -0.12562667414E+02  0.91996554844E+02  0.89038659376E+02 0.  0.
        -11    1    4    4    0    0  0.25611595427E+02  0.26628252303E+02 -0.19209639076E+02  0.41641660323E+02  0.00000000000E+00 0. -1.
         11    1    4    4    0    0 -0.44587596932E+02 -0.22436117527E+02  0.66469716626E+01  0.50354894521E+02  0.00000000000E+00 0.  1.
        -11    1    3    3    0    0  0.50954167153E+02  0.27328763094E+02 -0.85151551746E+01  0.58443958714E+02  0.00000000000E+00 0. -1.
         11    1    3    3    0    0 -0.22626803153E+02 -0.11752151216E+02 -0.51327719329E+02  0.57311604851E+02  0.00000000000E+00 0.  1.
          1    1    1    2  501    0 -0.93513624953E+01 -0.19768746653E+02 -0.24044018556E+02  0.32501786922E+02  0.00000000000E+00 0. -1.
<scales pt_clust_5="13000.00000" pt_clust_6="13000.00000" pt_clust_7="13000.00000" pt_clust_8="13000.00000" pt_clust_9="21.86897"></scales>
<clustering>
<clus scale="   21.869">  1  9  2 -1</clus>
<clus scale="   89.039">  5  6 -1 -1</clus>
<clus scale="   92.635">  1  5  2 -1</clus>
<clus scale="   93.665">  7  8 -1 -1</clus>
<clus scale="   21.869">  1  5  2 -1</clus>
</clustering>
</event>
<event>
 9    1  0.1445593E-005  0.1010870E+03  0.7546771E-02  0.1280266E+00
         21   -1    0    0  501  502  0.00000000000E+00  0.00000000000E+00  0.24661180827E+03  0.24661180827E+03  0.00000000000E+00 0.  1.
         -2   -1    0    0    0  501 -0.00000000000E+00 -0.00000000000E+00 -0.11250567673E+03  0.11250567673E+03  0.00000000000E+00 0.  1.
         23    2    1    2    0    0 -0.33869671527E+02  0.21416556511E+02 -0.25257345423E+02  0.10493459394E+03  0.93634993277E+02 0.  0.
         23    2    1    2    0    0  0.81136102560E+01 -0.42607975159E+02  0.82157496305E+01  0.99398891911E+02  0.89058244720E+02 0.  0.
        -11    1    3    3    0    0 -0.47325807020E+02 -0.21009427922E+02  0.35754165665E+01  0.51902906232E+02  0.00000000000E+00 0.  1.
         11    1    3    3    0    0  0.13456135493E+02  0.42425984433E+02 -0.28832761989E+02  0.53031687711E+02  0.00000000000E+00 0. -1.
        -13    1    4    4    0    0  0.76704772112E+01  0.21102809301E+02  0.24909567843E+02  0.33535821910E+02  0.00000000000E+00 0. -1.
         13    1    4    4    0    0  0.44313304479E+00 -0.63710784460E+02 -0.16693818213E+02  0.65863070001E+02  0.00000000000E+00 0.  1.
         -2    1    1    2    0  502  0.25756061271E+02  0.21191418648E+02  0.15114772733E+03  0.15478399915E+03  0.00000000000E+00 0.  1.
<scales pt_clust_5="13000.00000" pt_clust_6="13000.00000" pt_clust_7="13000.00000" pt_clust_8="13000.00000" pt_clust_9="33.35342"></scales>
<clustering>
<clus scale="   33.353">  1  9  2 -1</clus>
<clus scale="   89.058">  7  8 -1 -1</clus>
<clus scale="   93.635">  5  6 -1 -1</clus>
<clus scale="   96.863">  1  7  2 -1</clus>
<clus scale="   33.353">  1  5  2 -1</clus>
</clustering>
</event>
<event>
 9    1  0.1445593E-005  0.1890801E+03  0.7546771E-02  0.1159854E+00
          1   -1    0    0  502    0 -0.00000000000E+00  0.00000000000E+00  0.72415219416E+03  0.72415219416E+03  0.00000000000E+00 0. -1.
         21   -1    0    0  501  502  0.00000000000E+00 -0.00000000000E+00 -0.86702705255E+02  0.86702705255E+02  0.00000000000E+00 0. -1.
         23    2    1    2    0    0  0.98713974175E+02  0.11211574448E+03  0.38881855367E+03  0.42653470257E+03  0.91856387692E+02 0.  0.
         23    2    1    2    0    0 -0.13001362773E+03 -0.16728125717E+03  0.18326318282E+03  0.29323866656E+03  0.86700397915E+02 0.  0.
        -11    1    3    3    0    0  0.22616475912E+02  0.45516300327E+01  0.94397700058E+01  0.24926523552E+02  0.00000000000E+00 0.  1.
         11    1    3    3    0    0  0.76097498263E+02  0.10756411444E+03  0.37937878367E+03  0.40160817902E+03  0.00000000000E+00 0. -1.
        -11    1    4    4    0    0 -0.43860107871E+02 -0.11354704898E+03  0.13178062865E+03  0.17939558379E+03  0.00000000000E+00 0. -1.
         11    1    4    4    0    0 -0.86153519855E+02 -0.53734208189E+02  0.51482554163E+02  0.11384308278E+03  0.00000000000E+00 0.  1.
          1    1    1    2  501    0  0.31299653552E+02  0.55165512688E+02  0.65367752416E+02  0.91081530282E+02  0.00000000000E+00 0. -1.
<scales pt_clust_5="13000.00000" pt_clust_6="13000.00000" pt_clust_7="13000.00000" pt_clust_8="13000.00000" pt_clust_9="63.42635"></scales>
<clustering>
<clus scale="   63.426">  2  9  1 -1</clus>
<clus scale="   86.700">  7  8 -1 -1</clus>
<clus scale="   91.856">  5  6 -1 -1</clus>
<clus scale="  186.630">  2  7  1 -1</clus>
<clus scale="   63.426">  2  5  1 -1</clus>
</clustering>
</event>
<event>
 9    1  0.1445593E-005  0.3304156E+03  0.7546771E-02  0.1071011E+00
         21   -1    0    0  501  502  0.00000000000E+00  0.00000000000E+00  0.53685280299E+03  0.53685280299E+03  0.00000000000E+00 0. -1.
          2   -1    0    0  502    0 -0.00000000000E+00 -0.00000000000E+00 -0.33467284550E+03  0.33467284550E+03  0.00000000000E+00 0. -1.
         23    2    1    2    0    0 -0.32078715086E+03 -0.21790400030E+03 -0.15115876355E+02  0.39848706470E+03  0.90426221395E+02 0.  0.
         23    2    1    2    0    0  0.16540001879E+03  0.17758706797E+03  0.13423765731E+03  0.29229214113E+03  0.92307173086E+02 0.  0.
        -13    1    3    3    0    0 -0.29424648154E+03 -0.20485959881E+03 -0.38757951214E+02  0.36062532621E+03  0.00000000000E+00 0. -1.
         13    1    3    3    0    0 -0.26540669314E+02 -0.13044401496E+02  0.23642074858E+02  0.37861738492E+02  0.00000000000E+00 0.  1.
        -13    1    4    4    0    0  0.23541555161E+02  0.85096007068E+02  0.63546861551E+02  0.10878298972E+03  0.00000000000E+00 0.  1.
         13    1    4    4    0    0  0.14185846363E+03  0.92491060899E+02  0.70690795759E+02  0.18350915142E+03  0.00000000000E+00 0. -1.
          2    1    1    2  501    0  0.15538713207E+03  0.40316932335E+02  0.83058176537E+02  0.18074644266E+03  0.00000000000E+00 0. -1.
<scales pt_clust_5="13000.00000" pt_clust_6="13000.00000" pt_clust_7="13000.00000" pt_clust_8="13000.00000" pt_clust_9="160.53229"></scales>
<clustering>
<clus scale="   90.426">  5  6 -1 -1</clus>
<clus scale="   92.307">  7  8 -1 -1</clus>
<clus scale="  160.532">  1  9  2 -1</clus>
<clus scale="  329.895">  2  5  1 -1</clus>
<clus scale="  160.532">  1  5  2 -1</clus>
</clustering>
</event>
<event>
 9    1  0.1445593E-005  0.1105835E+03  0.7546771E-02  0.1260050E+00
         21   -1    0    0  501  502  0.00000000000E+00  0.00000000000E+00  0.12814821754E+03  0.12814821754E+03  0.00000000000E+00 0. -1.
         -1   -1    0    0    0  501 -0.00000000000E+00 -0.00000000000E+00 -0.12649899963E+03  0.12649899963E+03  0.00000000000E+00 0.  1.
         23    2    1    2    0    0 -0.19922384685E+02  0.45793182265E+02 -0.15833775099E+02  0.10636427628E+03  0.92567455845E+02 0.  0.
         23    2    1    2    0    0  0.37686273588E+02 -0.67011649854E+02  0.18166463394E+02  0.12060178759E+03  0.91126035496E+02 0.  0.
        -11    1    3    3    0    0 -0.66249778678E+00  0.22473747035E+02  0.38267076159E+02  0.44383300090E+02  0.00000000000E+00 0. -1.
         11    1    3    3    0    0 -0.19259886898E+02  0.23319435230E+02 -0.54100851259E+02  0.61980976192E+02  0.00000000000E+00 0.  1.
        -13    1    4    4    0    0 -0.16976989804E+02 -0.47575027223E+02 -0.16351109274E+02  0.53093880746E+02  0.00000000000E+00 0.  1.
         13    1    4    4    0    0  0.54663263393E+02 -0.19436622630E+02  0.34517572668E+02  0.67507906847E+02  0.00000000000E+00 0. -1.
         -1    1    1    2    0  502 -0.17763888903E+02  0.21218467589E+02 -0.68347038179E+00  0.27681153292E+02  0.00000000000E+00 0.  1.
<scales pt_clust_5="13000.00000" pt_clust_6="13000.00000" pt_clust_7="13000.00000" pt_clust_8="13000.00000" pt_clust_9="27.67273"></scales>
<clustering>
<clus scale="   27.673">  1  9  2 -1</clus>
<clus scale="   91.126">  7  8 -1 -1</clus>
<clus scale="   92.567">  5  6 -1 -1</clus>
<clus scale="  109.380">  1  7  2 -1</clus>
<clus scale="   27.673">  1  5  2 -1</clus>
</clustering>
</event>
<event>
 9    1  0.1445593E-005  0.1129374E+03  0.7546771E-02  0.1255641E+00
          1   -1    0    0  502    0 -0.00000000000E+00  0.00000000000E+00  0.40569479962E+03  0.40569479962E+03  0.00000000000E+00 0. -1.
         21   -1    0    0  501  502  0.00000000000E+00 -0.00000000000E+00 -0.89000503538E+02  0.89000503538E+02  0.00000000000E+00 0. -1.
         23    2    1    2    0    0 -0.52625054842E+02  0.34317832163E+02  0.21658328619E+03  0.24305611100E+03  0.90668865855E+02 0.  0.
         23    2    1    2    0    0  0.75738013840E+02 -0.15461280894E+02  0.15151369778E+03  0.19220843646E+03  0.89511923696E+02 0.  0.
        -13    1    4    4    0    0  0.95417773713E+02 -0.19733295763E+02  0.13285047609E+03  0.16475194536E+03  0.00000000000E+00 0. -1.
         13    1    4    4    0    0 -0.19679759873E+02  0.42720148687E+01  0.18663221688E+02  0.27456491099E+02  0.00000000000E+00 0.  1.
        -13    1    3    3    0    0 -0.74490820236E+02  0.41890603230E+02  0.15095630688E+03  0.17346905063E+03  0.00000000000E+00 0. -1.
         13    1    3    3    0    0  0.21865765394E+02 -0.75727710672E+01  0.65626979310E+02  0.69587060372E+02  0.00000000000E+00 0.  1.
          1    1    1    2  501    0 -0.23112958998E+02 -0.18856551269E+02 -0.51402687895E+02  0.59430755693E+02  0.00000000000E+00 0. -1.
<scales pt_clust_5="13000.00000" pt_clust_6="13000.00000" pt_clust_7="13000.00000" pt_clust_8="13000.00000" pt_clust_9="29.82915"></scales>
<clustering>
<clus scale="   29.829">  2  9  1 -1</clus>
<clus scale="   89.512">  5  6 -1 -1</clus>
<clus scale="   90.669">  7  8 -1 -1</clus>
<clus scale="  112.011">  2  5  1 -1</clus>
<clus scale="   29.829">  2  5  1 -1</clus>
</clustering>
</event>
<event>
 9    1  0.1445593E-005  0.9525074E+02  0.7546771E-02  0.1290764E+00
         21   -1    0    0  501  502  0.00000000000E+00  0.00000000000E+00  0.31692784935E+02  0.31692784935E+02  0.00000000000E+00 0. -1.
         -1   -1    0    0    0  501 -0.00000000000E+00 -0.00000000000E+00 -0.50421916879E+03  0.50421916879E+03  0.00000000000E+00 0.  1.
         23    2    1    2    0    0 -0.10755238553E+02  0.23280508342E+02 -0.25432668684E+03  0.27141620348E+03  0.91252587068E+02 0.  0.
         23    2    1    2    0    0 -0.21316209443E+02 -0.32162234956E+02 -0.20701223677E+03  0.22938703180E+03  0.90970072242E+02 0.  0.
        -13    1    3    3    0    0 -0.42177387519E+02 -0.15103188748E+02 -0.13290825879E+03  0.14025563655E+03  0.00000000000E+00 0. -1.
         13    1    3    3    0    0  0.31422148966E+02  0.38383697091E+02 -0.12141842805E+03  0.13116056693E+03  0.00000000000E+00 0.  1.
        -13    1    4    4    0    0  0.30816272859E+02 -0.23463282028E-01 -0.11346789577E+03  0.11757808722E+03  0.00000000000E+00 0.  1.
         13    1    4    4    0    0 -0.52132482302E+02 -0.32138771674E+02 -0.93544341001E+02  0.11180894458E+03  0.00000000000E+00 0. -1.
         -1    1    1    2    0  502  0.32071447996E+02  0.88817266139E+01 -0.11187460247E+02  0.35108718447E+02  0.00000000000E+00 0.  1.
<scales pt_clust_5="13000.00000" pt_clust_6="13000.00000" pt_clust_7="13000.00000" pt_clust_8="13000.00000" pt_clust_9="33.27856"></scales>
<clustering>
<clus scale="   33.279">  1  9  2 -1</clus>
<clus scale="   90.970">  7  8 -1 -1</clus>
<clus scale="   91.253">  5  6 -1 -1</clus>
<clus scale="   94.980">  1  7  2 -1</clus>
<clus scale="   33.279">  1  5  2 -1</clus>
</clustering>
</event>
<event>
 9    1  0.1445593E-005  0.9695430E+02  0.7546771E-02  0.1289882E+00
          1   -1    0    0  502    0 -0.00000000000E+00  0.00000000000E+00  0.20037999025E+03  0.20037999025E+03  0.00000000000E+00 0. -1.
         21   -1    0    0  501  502  0.00000000000E+00 -0.00000000000E+00 -0.10083527704E+03  0.10083527704E+03  0.00000000000E+00 0.  1.
         23    2    1    2    0    0  0.22351220556E+02  0.77495554248E+01  0.11603010201E+03  0.14816260527E+03  0.89047966605E+02 0.  0.
         23    2    1    2    0    0  0.37662632038E+01 -0.33971783013E+02  0.18345323793E+02  0.10223035670E+03  0.94584502681E+02 0.  0.
        -13    1    3    3    0    0 -0.34358173789E+02 -0.44088078903E+00  0.36349251303E+02  0.50019461735E+02  0.00000000000E+00 0. -1.
         13    1    3    3    0    0  0.56709394345E+02  0.81904362138E+01  0.79680850709E+02  0.98143143530E+02  0.00000000000E+00 0.  1.
        -13    1    4    4    0    0  0.32415520904E+02 -0.52687582554E+02 -0.29389145590E+01  0.61930481749E+02  0.00000000000E+00 0.  1.
         13    1    4    4    0    0 -0.28649257700E+02  0.18715799541E+02  0.21284238352E+02  0.40299874956E+02  0.00000000000E+00 0. -1.
          1    1    1    2  501    0 -0.26117483760E+02  0.26222227588E+02 -0.34830712595E+02  0.50822305315E+02  0.00000000000E+00 0. -1.
<scales pt_clust_5="13000.00000" pt_clust_6="13000.00000" pt_clust_7="13000.00000" pt_clust_8="13000.00000" pt_clust_9="37.00984"></scales>
<clustering>
<clus scale="   37.010">  2  9  1 -1</clus>
<clus scale="   89.048">  5  6 -1 -1</clus>
<clus scale="   91.561">  1  5  2 -1</clus>
<clus scale="   94.585">  7  8 -1 -1</clus>
<clus scale="   37.010">  2  5  1 -1</clus>
</clustering>
</event>
<event>
 9    1  0.1445593E-005  0.2215320E+03  0.7546771E-02  0.1166406E+00
         -1   -1    0    0    0  501 -0.00000000000E+00  0.00000000000E+00  0.36718109274E+03  0.36718109274E+03  0.00000000000E+00 0.  1.
         21   -1    0    0  501  502  0.00000000000E+00 -0.00000000000E+00 -0.91542532579E+03  0.91542532579E+03  0.00000000000E+00 0.  1.
         23    2    1    2    0    0  0.34777318613E+02 -0.39981512911E+01  0.19730166547E+03  0.22106472530E+03  0.93360690186E+02 0.  0.
         23    2    1    2    0    0 -0.22380635909E+03  0.69544169163E+02  0.37319254662E+02  0.25351563754E+03  0.89172719348E+02 0.  0.
        -11    1    3    3    0    0  0.53413275622E+02 -0.34764262352E+02  0.12480447735E+03  0.14013454077E+03  0.00000000000E+00 0. -1.
         11    1    3    3    0    0 -0.18635957009E+02  0.30766111061E+02  0.72497188119E+02  0.80930184533E+02  0.00000000000E+00 0.  1.
        -13    1    4    4    0    0 -0.14108804946E+03  0.87560349377E+02  0.22417311959E+02  0.16755652288E+03  0.00000000000E+00 0.  1.
         13    1    4    4    0    0 -0.82718309623E+02 -0.18016180214E+02  0.14901942703E+02  0.85959114657E+02  0.00000000000E+00 0. -1.
         -1    1    1    2    0  502  0.18902904047E+03 -0.65546017871E+02 -0.78286515318E+03  0.80802605569E+03  0.00000000000E+00 0.  1.
<scales pt_clust_5="13000.00000" pt_clust_6="13000.00000" pt_clust_7="13000.00000" pt_clust_8="13000.00000" pt_clust_9="202.79213"></scales>
<clustering>
<clus scale="   89.173">  7  8 -1 -1</clus>
<clus scale="   93.361">  5  6 -1 -1</clus>
<clus scale="   99.708">  1  5  2 -1</clus>
<clus scale="  202.792">  2  9  1 -1</clus>
<clus scale="  202.792">  2  5  1 -1</clus>
</clustering>
</event>
<event>
 9    1  0.1445593E-005  0.9375748E+02  0.7546771E-02  0.1294424E+00
         -1   -1    0    0    0  501 -0.00000000000E+00  0.00000000000E+00  0.25015724139E+03  0.25015724139E+03  0.00000000000E+00 0.  1.
         21   -1    0    0  501  502  0.00000000000E+00 -0.00000000000E+00 -0.96591126069E+02  0.96591126069E+02  0.00000000000E+00 0. -1.
         23    2    1    2    0    0  0.83642790309E+01 -0.19606343520E+02  0.86717868524E+02  0.12803035528E+03  0.91746461954E+02 0.  0.
         23    2    1    2    0    0 -0.22020639767E+01 -0.64781818806E+02  0.72009090521E+02  0.13394791638E+03  0.92494335239E+02 0.  0.
        -11    1    4    4    0    0 -0.39946762989E+02 -0.48944709835E+02  0.68001063975E+02  0.92819573345E+02  0.00000000000E+00 0.  1.
         11    1    4    4    0    0  0.37744699012E+02 -0.15837108970E+02  0.40080265455E+01  0.41128343035E+02  0.00000000000E+00 0. -1.
        -13    1    3    3    0    0 -0.13260218360E+02  0.33926911796E+02  0.32029696033E+02  0.48505362208E+02  0.00000000000E+00 0. -1.
         13    1    3    3    0    0  0.21624497391E+02 -0.53533255316E+02  0.54688172491E+02  0.79524993069E+02  0.00000000000E+00 0.  1.
         -1    1    1    2    0  502 -0.61622150543E+01  0.84388162326E+02 -0.51608437189E+01  0.84770095806E+02  0.00000000000E+00 0.  1.
<scales pt_clust_5="13000.00000" pt_clust_6="13000.00000" pt_clust_7="13000.00000" pt_clust_8="13000.00000" pt_clust_9="84.61285"></scales>
<clustering>
<clus scale="   84.613">  2  9  1 -1</clus>
<clus scale="   91.746">  7  8 -1 -1</clus>
<clus scale="   92.494">  5  6 -1 -1</clus>
<clus scale="   93.020">  1  7  2 -1</clus>
<clus scale="   84.613">  2  5  1 -1</clus>
</clustering>
</event>
<event>
 9    1  0.1445593E-005  0.1637413E+03  0.7546771E-02  0.1184716E+00
         21   -1    0    0  501  502  0.00000000000E+00  0.00000000000E+00  0.21885865583E+03  0.21885865583E+03  0.00000000000E+00 0.  1.
         -1   -1    0    0    0  501 -0.00000000000E+00 -0.00000000000E+00 -0.43152945717E+03  0.43152945717E+03  0.00000000000E+00 0.  1.
         23    2    1    2    0    0  0.15645269154E+03 -0.56411867697E+02 -0.28820978860E+03  0.34446988617E+03  0.89077925027E+02 0.  0.
         23    2    1    2    0    0 -0.92746341812E+02  0.19230403493E+02 -0.65823937146E+02  0.14646780609E+03  0.90268129376E+02 0.  0.
        -11    1    3    3    0    0  0.63802180275E+02 -0.20214079672E+02 -0.42225361735E+02  0.79134748363E+02  0.00000000000E+00 0. -1.
         11    1    3    3    0    0  0.92650511263E+02 -0.36197788025E+02 -0.24598442687E+03  0.26533513781E+03  0.00000000000E+00 0.  1.
        -13    1    4    4    0    0 -0.35550499867E+02  0.52476166073E+02 -0.21914967603E+02  0.67066026061E+02  0.00000000000E+00 0.  1.
         13    1    4    4    0    0 -0.57195841945E+02 -0.33245762580E+02 -0.43908969543E+02  0.79401780028E+02  0.00000000000E+00 0. -1.
         -1    1    1    2    0  502 -0.63706349727E+02  0.37181464204E+02  0.14136292441E+03  0.15945042074E+03  0.00000000000E+00 0.  1.
<scales pt_clust_5="13000.00000" pt_clust_6="13000.00000" pt_clust_7="13000.00000" pt_clust_8="13000.00000" pt_clust_9="73.76287"></scales>
<clustering>
<clus scale="   73.763">  1  9  2 -1</clus>
<clus scale="   89.078">  5  6 -1 -1</clus>
<clus scale="   90.268">  7  8 -1 -1</clus>
<clus scale="  163.088">  2  5  1 -1</clus>
<clus scale="   73.763">  1  5  2 -1</clus>
</clustering>
</event>
<event>
 9    1  0.1445593E-005  0.1151872E+03  0.7546771E-02  0.1251391E+00
         21   -1    0    0  501  502  0.00000000000E+00  0.00000000000E+00  0.36154868563E+03  0.36154868563E+03  0.00000000000E+00 0. -1.
          1   -1    0    0  502    0 -0.00000000000E+00 -0.00000000000E+00 -0.92188799939E+02  0.92188799939E+02  0.00000000000E+00 0. -1.
         23    2    1    2    0    0  0.40400039479E+02 -0.41743214228E+02  0.28153154480E+02  0.11118959842E+03  0.90531030959E+02 0.  0.
         23    2    1    2    0    0 -0.12251374705E+03  0.38688347784E+01  0.14505914398E+03  0.21055740218E+03  0.90926774185E+02 0.  0.
        -11    1    3    3    0    0  0.76020549964E+01  0.23881358919E+02  0.28330917155E+02  0.37825274762E+02  0.00000000000E+00 0.  1.
         11    1    3    3    0    0  0.32797984483E+02 -0.65624573147E+02 -0.17776267440E+00  0.73364323662E+02  0.00000000000E+00 0. -1.
        -13    1    4    4    0    0 -0.73487203613E+02 -0.38482734822E+02  0.10710460736E+03  0.13547208898E+03  0.00000000000E+00 0. -1.
         13    1    4    4    0    0 -0.49026543438E+02  0.42351569601E+02  0.37954536614E+02  0.75085313203E+02  0.00000000000E+00 0.  1.
          1    1    1    2  501    0  0.82113707572E+02  0.37874379450E+02  0.96147587232E+02  0.13199048496E+03  0.00000000000E+00 0. -1.
<scales pt_clust_5="13000.00000" pt_clust_6="13000.00000" pt_clust_7="13000.00000" pt_clust_8="13000.00000" pt_clust_9="90.42748"></scales>
<clustering>
<clus scale="   90.427">  1  9  2 -1</clus>
<clus scale="   90.531">  5  6 -1 -1</clus>
<clus scale="   90.927">  7  8 -1 -1</clus>
<clus scale="  114.875">  2  5  1 -1</clus>
<clus scale="   90.427">  1  5  2 -1</clus>
</clustering>
</event>
<event>
 9    1  0.1445593E-005  0.1064439E+03  0.7546771E-02  0.1273972E+00
          4   -1    0    0  502    0 -0.00000000000E+00  0.00000000000E+00  0.72195369126E+02  0.72195369126E+02  0.00000000000E+00 0. -1.
         21   -1    0    0  501  502  0.00000000000E+00 -0.00000000000E+00 -0.27274129086E+03  0.27274129086E+03  0.00000000000E+00 0.  1.
         23    2    1    2    0    0  0.24206037168E+02  0.11415642489E+02  0.34764578884E+01  0.10774726302E+03  0.10431269242E+03 0.  0.
         23    2    1    2    0    0 -0.91026582582E+01  0.11569016140E+02 -0.14241001981E+03  0.16971725851E+03  0.91140734976E+02 0.  0.
        -11    1    3    3    0    0  0.43387047615E+02  0.21394860019E+02 -0.37638947024E+02  0.61293280782E+02  0.00000000000E+00 0.  1.
         11    1    3    3    0    0 -0.19181010447E+02 -0.99792175306E+01  0.41115404912E+02  0.46453982234E+02  0.00000000000E+00 0. -1.
        -13    1    4    4    0    0 -0.30475271917E+01  0.39828864573E+02 -0.13368860484E+03  0.13952873876E+03  0.00000000000E+00 0.  1.
         13    1    4    4    0    0 -0.60551310665E+01 -0.28259848433E+02 -0.87214149678E+01  0.30188519750E+02  0.00000000000E+00 0. -1.
          4    1    1    2  501    0 -0.15103378910E+02 -0.22984658629E+02 -0.61612359810E+02  0.67472138459E+02  0.00000000000E+00 0. -1.
<scales pt_clust_5="13000.00000" pt_clust_6="13000.00000" pt_clust_7="13000.00000" pt_clust_8="13000.00000" pt_clust_9="27.50285"></scales>
<clustering>
<clus scale="   27.503">  2  9  1 -1</clus>
<clus scale="   91.141">  7  8 -1 -1</clus>
<clus scale="   93.572">  2  7  1 -1</clus>
<clus scale="  104.313">  5  6 -1 -1</clus>
<clus scale="   27.503">  2  5  1 -1</clus>
</clustering>
</event>
<event>
 9    1  0.1445593E-005  0.1766108E+03  0.7546771E-02  0.1171623E+00
         21   -1    0    0  501  502  0.00000000000E+00  0.00000000000E+00  0.97962856573E+02  0.97962856573E+02  0.00000000000E+00 0.  1.
          1   -1    0    0  502    0 -0.00000000000E+00 -0.00000000000E+00 -0.40774585778E+03  0.40774585778E+03  0.00000000000E+00 0. -1.
         23    2    1    2    0    0 -0.45606743473E+02 -0.14604937548E+03 -0.24160204205E+03  0.29991114428E+03  0.90359020665E+02 0.  0.
         23    2    1    2    0    0  0.60268304456E+02  0.12919899521E+03 -0.53372379159E+02  0.17899848936E+03  0.94165808280E+02 0.  0.
        -11    1    3    3    0    0  0.67667560063E+01 -0.10200788480E+03 -0.18387665472E+03  0.21038541228E+03  0.00000000000E+00 0. -1.
         11    1    3    3    0    0 -0.52373499480E+02 -0.44041490676E+02 -0.57725387327E+02  0.89525732004E+02  0.00000000000E+00 0.  1.
        -13    1    4    4    0    0  0.23739098148E+02  0.41156516569E+02  0.26708248479E+02  0.54504441780E+02  0.00000000000E+00 0.  1.
         13    1    4    4    0    0  0.36529206309E+02  0.88042478644E+02 -0.80080627638E+02  0.12449404758E+03  0.00000000000E+00 0. -1.
          1    1    1    2  501    0 -0.14661560983E+02  0.16850380265E+02 -0.14808580003E+02  0.26799080717E+02  0.00000000000E+00 0. -1.
<scales pt_clust_5="13000.00000" pt_clust_6="13000.00000" pt_clust_7="13000.00000" pt_clust_8="13000.00000" pt_clust_9="22.33600"></scales>
<clustering>
<clus scale="   22.336">  1  9  2 -1</clus>
<clus scale="   90.359">  5  6 -1 -1</clus>
<clus scale="   94.166">  7  8 -1 -1</clus>
<clus scale="  174.611">  2  5  1 -1</clus>
<clus scale="   22.336">  1  5  2 -1</clus>
</clustering>
</event>
<event>
 9    1  0.1445593E-005  0.2149486E+03  0.7546771E-02  0.1137741E+00
          2   -1    0    0  502    0 -0.00000000000E+00  0.00000000000E+00  0.21109518183E+03  0.21109518183E+03  0.00000000000E+00 0. -1.
         21   -1    0    0  501  502  0.00000000000E+00 -0.00000000000E+00 -0.40745870857E+03  0.40745870857E+03  0.00000000000E+00 0. -1.
         23    2    1    2    0    0  0.33829439330E+02  0.19290812947E+03  0.10094399989E+03  0.23991788614E+03  0.94936418684E+02 0.  0.
         23    2    1    2    0    0 -0.12970363617E+02 -0.17933298634E+03 -0.28719041689E+03  0.35177075795E+03  0.94529256148E+02 0.  0.
        -11    1    4    4    0    0  0.16245911020E+02 -0.16505518914E+03 -0.20706502795E+03  0.26529807932E+03  0.00000000000E+00 0. -1.
         11    1    4    4    0    0 -0.29216274637E+02 -0.14277797199E+02 -0.80125388938E+02  0.86472678628E+02  0.00000000000E+00 0.  1.
        -13    1    3    3    0    0  0.16240429005E+01  0.17989354583E+03  0.68851245855E+02  0.19262611298E+03  0.00000000000E+00 0. -1.
         13    1    3    3    0    0  0.32205396430E+02  0.13014583642E+02  0.32092754036E+02  0.47291773156E+02  0.00000000000E+00 0.  1.
          2    1    1    2  501    0 -0.20859075713E+02 -0.13575143127E+02 -0.10117109736E+02  0.26865246322E+02  0.00000000000E+00 0. -1.
<scales pt_clust_5="13000.00000" pt_clust_6="13000.00000" pt_clust_7="13000.00000" pt_clust_8="13000.00000" pt_clust_9="24.88746"></scales>
<clustering>
<clus scale="   24.887">  2  9  1 -1</clus>
<clus scale="   94.529">  5  6 -1 -1</clus>
<clus scale="   94.936">  7  8 -1 -1</clus>
<clus scale="  214.769">  2  5  1 -1</clus>
<clus scale="   24.887">  2  5  1 -1</clus>
</clustering>
</event>
<event>
 9    1  0.1445593E-005  0.1437460E+03  0.7546771E-02  0.1208755E+00
         21   -1    0    0  501  502  0.00000000000E+00  0.00000000000E+00  0.48529262776E+03  0.48529262776E+03  0.00000000000E+00 0.  1.
         -4   -1    0    0    0  501 -0.00000000000E+00 -0.00000000000E+00 -0.56799249174E+02  0.56799249174E+02  0.00000000000E+00 0.  1.
         23    2    1    2    0    0  0.75811795722E+02 -0.54180079917E+02  0.17874631042E+03  0.22066703220E+03  0.89781881131E+02 0.  0.
         23    2    1    2    0    0 -0.11678284855E+03  0.61113488097E+02  0.20481747870E+03  0.26022543845E+03  0.91618704940E+02 0.  0.
        -11    1    4    4    0    0 -0.10265117588E+03  0.25426886101E+02  0.89021727782E+02  0.13823407128E+03  0.00000000000E+00 0.  1.
         11    1    4    4    0    0 -0.14131672677E+02  0.35686601996E+02  0.11579575091E+03  0.12199136717E+03  0.00000000000E+00 0. -1.
        -13    1    3    3    0    0  0.48308895746E+02  0.37210382885E+01  0.25936834641E+02  0.54957391908E+02  0.00000000000E+00 0.  1.
         13    1    3    3    0    0  0.27502899976E+02 -0.57901118205E+02  0.15280947578E+03  0.16570964029E+03  0.00000000000E+00 0. -1.
         -4    1    1    2    0  502  0.40971052833E+02 -0.69334081805E+01  0.44929589462E+02  0.61199406276E+02  0.00000000000E+00 0.  1.
<scales pt_clust_5="13000.00000" pt_clust_6="13000.00000" pt_clust_7="13000.00000" pt_clust_8="13000.00000" pt_clust_9="41.55359"></scales>
<clustering>
<clus scale="   41.554">  1  9  2 -1</clus>
<clus scale="   89.782">  7  8 -1 -1</clus>
<clus scale="   91.619">  5  6 -1 -1</clus>
<clus scale="  142.582">  2  7  1 -1</clus>
<clus scale="   41.554">  1  5  2 -1</clus>
</clustering>
</event>
<event>
 9    1  0.1445593E-005  0.1572279E+03  0.7546771E-02  0.1195173E+00
         21   -1    0    0  501  502  0.00000000000E+00  0.00000000000E+00  0.14809836307E+03  0.14809836307E+03  0.00000000000E+00 0.  1.
         -1   -1    0    0    0  501 -0.00000000000E+00 -0.00000000000E+00 -0.53640854163E+03  0.53640854163E+03  0.00000000000E+00 0.  1.
         23    2    1    2    0    0 -0.54013951130E+02  0.10808675827E+03 -0.40614251649E+03  0.43367975624E+03  0.92337062141E+02 0.  0.
         23    2    1    2    0    0  0.44768189091E+02 -0.16693973300E+03 -0.42921207125E+01  0.18727678716E+03  0.71979910395E+02 0.  0.
        -11    1    4    4    0    0  0.61976366775E+02 -0.15238209349E+03 -0.10635278541E+01  0.16450684954E+03  0.00000000000E+00 0.  1.
         11    1    4    4    0    0 -0.17208177684E+02 -0.14557639512E+02 -0.32285928585E+01  0.22769937620E+02  0.00000000000E+00 0. -1.
        -13    1    3    3    0    0 -0.67787440570E+02  0.33003572314E+02 -0.18726640521E+03  0.20187391958E+03  0.00000000000E+00 0. -1.
         13    1    3    3    0    0  0.13773489440E+02  0.75083185951E+02 -0.21887611127E+03  0.23180583666E+03  0.00000000000E+00 0.  1.
         -1    1    1    2    0  502  0.92457620392E+01  0.58852974738E+02  0.22124458636E+02  0.63550361298E+02  0.00000000000E+00 0.  1.
<scales pt_clust_5="13000.00000" pt_clust_6="13000.00000" pt_clust_7="13000.00000" pt_clust_8="13000.00000" pt_clust_9="59.57480"></scales>
<clustering>
<clus scale="   59.575">  1  9  2 -1</clus>
<clus scale="   71.980">  5  6 -1 -1</clus>
<clus scale="   92.337">  7  8 -1 -1</clus>
<clus scale="  146.204">  1  5  2 -1</clus>
<clus scale="   59.575">  1  5  2 -1</clus>
</clustering>
</event>
<event>
 9    1  0.1445593E-005  0.8628205E+02  0.7546771E-02  0.1314325E+00
         21   -1    0    0  501  502  0.00000000000E+00  0.00000000000E+00  0.15191703248E+03  0.15191703248E+03  0.00000000000E+00 0. -1.
         -3   -1    0    0    0  501 -0.00000000000E+00 -0.00000000000E+00 -0.69727216669E+02  0.69727216669E+02  0.00000000000E+00 0.  1.
         23    2    1    2    0    0  0.13794243257E+01  0.20392838426E+02  0.14916176468E+02  0.88270336063E+02  0.84565886963E+02 0.  0.
         23    2    1    2    0    0  0.17525903330E+02 -0.88634904979E+01  0.72577819944E+02  0.11060394143E+03  0.81117033724E+02 0.  0.
        -11    1    3    3    0    0 -0.26580354085E+02 -0.22642581319E+02  0.11793231379E+02  0.36854877810E+02  0.00000000000E+00 0.  1.
         11    1    3    3    0    0  0.27959778410E+02  0.43035419745E+02  0.31229450890E+01  0.51415458253E+02  0.00000000000E+00 0. -1.
        -11    1    4    4    0    0  0.52870696095E+01 -0.26269780432E+02  0.82777921144E+02  0.87007118662E+02  0.00000000000E+00 0. -1.
         11    1    4    4    0    0  0.12238833720E+02  0.17406289934E+02 -0.10200101200E+02  0.23596822765E+02  0.00000000000E+00 0.  1.
         -3    1    1    2    0  502 -0.18905327656E+02 -0.11529347928E+02 -0.53041806018E+01  0.22769971657E+02  0.00000000000E+00 0.  1.
<scales pt_clust_5="13000.00000" pt_clust_6="13000.00000" pt_clust_7="13000.00000" pt_clust_8="13000.00000" pt_clust_9="22.14357"></scales>
<clustering>
<clus scale="   22.144">  1  9  2 -1</clus>
<clus scale="   81.117">  7  8 -1 -1</clus>
<clus scale="   82.905">  1  7  2 -1</clus>
<clus scale="   84.566">  5  6 -1 -1</clus>
<clus scale="   22.144">  1  5  2 -1</clus>
</clustering>
</event>
<event>
 9    1  0.1445593E-005  0.2432988E+03  0.7546771E-02  0.1152310E+00
         -2   -1    0    0    0  501 -0.00000000000E+00  0.00000000000E+00  0.60082389746E+03  0.60082389746E+03  0.00000000000E+00 0.  1.
         21   -1    0    0  501  502  0.00000000000E+00 -0.00000000000E+00 -0.13527324397E+03  0.13527324397E+03  0.00000000000E+00 0.  1.
         23    2    1    2    0    0  0.47109459308E+02 -0.36299895655E+01  0.92420395465E+02  0.13953791178E+03  0.93256749593E+02 0.  0.
         23    2    1    2    0    0  0.38842061329E+02 -0.20853130591E+03  0.19487914291E+03  0.30643246556E+03  0.10454168709E+03 0.  0.
        -11    1    3    3    0    0 -0.27960497636E+02  0.38803572850E+01  0.17498964763E+02  0.33212352649E+02  0.00000000000E+00 0. -1.
         11    1    3    3    0    0  0.75069956944E+02 -0.75103468505E+01  0.74921430703E+02  0.10632555913E+03  0.00000000000E+00 0.  1.
        -11    1    4    4    0    0 -0.16175336553E+02 -0.76389998913E+02  0.20307063391E+02  0.80681164284E+02  0.00000000000E+00 0.  1.
         11    1    4    4    0    0  0.55017397882E+02 -0.13214130700E+03  0.17457207951E+03  0.22575130128E+03  0.00000000000E+00 0. -1.
         -2    1    1    2    0  502 -0.85951520637E+02  0.21216129547E+03  0.17825111512E+03  0.29012676409E+03  0.00000000000E+00 0.  1.
<scales pt_clust_5="13000.00000" pt_clust_6="13000.00000" pt_clust_7="13000.00000" pt_clust_8="13000.00000" pt_clust_9="219.69384"></scales>
<clustering>
<clus scale="   93.257">  5  6 -1 -1</clus>
<clus scale="  104.542">  7  8 -1 -1</clus>
<clus scale="  104.543">  1  5  2 -1</clus>
<clus scale="  219.694">  2  9  1 -1</clus>
<clus scale="  219.694">  2  5  1 -1</clus>
</clustering>
</event>
<event>
 9    1  0.1445593E-005  0.1337676E+03  0.7546771E-02  0.1222373E+00
         21   -1    0    0  501  502  0.00000000000E+00  0.00000000000E+00  0.39161040671E+03  0.39161040671E+03  0.00000000000E+00 0. -1.
          1   -1    0    0  502    0 -0.00000000000E+00 -0.00000000000E+00 -0.62119716475E+02  0.62119716475E+02  0.00000000000E+00 0. -1.
         23    2    1    2    0    0 -0.88379380177E+02  0.25127090381E+02  0.84530759712E+02  0.15289868772E+03  0.88262528050E+02 0.  0.
         23    2    1    2    0    0  0.10367670226E+03 -0.48264555997E+02  0.21843410024E+03  0.26245214352E+03  0.89940789029E+02 0.  0.
        -11    1    3    3    0    0 -0.44473444455E+02 -0.25519522599E+02  0.65574118071E+02  0.83241205278E+02  0.00000000000E+00 0. -1.
         11    1    3    3    0    0 -0.43905935721E+02  0.50646612980E+02  0.18956641641E+02  0.69657482442E+02  0.00000000000E+00 0.  1.
        -11    1    4    4    0    0  0.17053256209E+02 -0.42354318818E+02  0.29057630323E+02  0.54120677655E+02  0.00000000000E+00 0.  1.
         11    1    4    4    0    0  0.86623446055E+02 -0.59102371785E+01  0.18937646992E+03  0.20833146586E+03  0.00000000000E+00 0. -1.
          1    1    1    2  501    0 -0.15297322087E+02  0.23137465616E+02  0.26525830284E+02  0.38379291948E+02  0.00000000000E+00 0. -1.
<scales pt_clust_5="13000.00000" pt_clust_6="13000.00000" pt_clust_7="13000.00000" pt_clust_8="13000.00000" pt_clust_9="27.73718"></scales>
<clustering>
<clus scale="   27.737">  1  9  2 -1</clus>
<clus scale="   88.263">  5  6 -1 -1</clus>
<clus scale="   89.941">  7  8 -1 -1</clus>
<clus scale="  132.645">  2  5  1 -1</clus>
<clus scale="   27.737">  1  5  2 -1</clus>
</clustering>
</event>
<event>
 9    1  0.1445593E-005  0.1198611E+03  0.7546771E-02  0.1245426E+00
         -3   -1    0    0    0  501 -0.00000000000E+00  0.00000000000E+00  0.31105462796E+03  0.31105462796E+03  0.00000000000E+00 0.  1.
         21   -1    0    0  501  502  0.00000000000E+00 -0.00000000000E+00 -0.15785924171E+03  0.15785924171E+03  0.00000000000E+00 0.  1.
         23    2    1    2    0    0 -0.60037353966E+02 -0.60043342602E+01  0.17391900558E+03  0.20516755057E+03  0.90583483072E+02 0.  0.
         23    2    1    2    0    0  0.94025787419E+02  0.68273941058E+02  0.54110804124E+02  0.16063032386E+03  0.96808791408E+02 0.  0.
        -11    1    3    3    0    0  0.16739406132E+02 -0.16628817744E+02  0.79941058804E+02  0.83350453987E+02  0.00000000000E+00 0. -1.
         11    1    3    3    0    0 -0.76776760098E+02  0.10624483484E+02  0.93977946773E+02  0.12181709658E+03  0.00000000000E+00 0.  1.
        -11    1    4    4    0    0  0.13546703437E+02  0.41749808570E+02 -0.19834064885E+02  0.48165857405E+02  0.00000000000E+00 0. -1.
         11    1    4    4    0    0  0.80479083982E+02  0.26524132488E+02  0.73944869009E+02  0.11246446646E+03  0.00000000000E+00 0.  1.
         -3    1    1    2    0  502 -0.33988433453E+02 -0.62269606797E+02 -0.74834423451E+02  0.10311599523E+03  0.00000000000E+00 0.  1.
<scales pt_clust_5="13000.00000" pt_clust_6="13000.00000" pt_clust_7="13000.00000" pt_clust_8="13000.00000" pt_clust_9="70.94165"></scales>
<clustering>
<clus scale="   70.942">  2  9  1 -1</clus>
<clus scale="   90.583">  5  6 -1 -1</clus>
<clus scale="   96.809">  7  8 -1 -1</clus>
<clus scale="  114.892">  1  5  2 -1</clus>
<clus scale="   70.942">  2  5  1 -1</clus>
</clustering>
</event>
<event>
 9    1  0.1445593E-005  0.1324285E+03  0.7546771E-02  0.1224275E+00
          1   -1    0    0  502    0 -0.00000000000E+00  0.00000000000E+00  0.63886024861E+03  0.63886024861E+03  0.00000000000E+00 0. -1.
         21   -1    0    0  501  502  0.00000000000E+00 -0.00000000000E+00 -0.10399501351E+03  0.10399501351E+03  0.00000000000E+00 0.  1.
         23    2    1    2    0    0 -0.37176154359E+02 -0.88120105283E+02  0.55514793077E+03  0.57081956319E+03  0.92187468111E+02 0.  0.
         23    2    1    2    0    0  0.11477058921E+01  0.76764949812E+02 -0.42332113522E+02  0.12829595177E+03  0.93667863516E+02 0.  0.
        -11    1    3    3    0    0 -0.63948771130E+02 -0.84073285234E+02  0.43136702454E+03  0.44411177926E+03  0.00000000000E+00 0. -1.
         11    1    3    3    0    0  0.26772616771E+02 -0.40468200493E+01  0.12378090623E+03  0.12670778393E+03  0.00000000000E+00 0.  1.
        -13    1    4    4    0    0 -0.31195585117E+01 -0.21606064604E+02 -0.13624350480E+02  0.25732792289E+02  0.00000000000E+00 0. -1.
         13    1    4    4    0    0  0.42672644038E+01  0.98371014416E+02 -0.28707763043E+02  0.10256315948E+03  0.00000000000E+00 0.  1.
          1    1    1    2  501    0  0.36028448466E+02  0.11355155471E+02  0.22049417850E+02  0.43739747167E+02  0.00000000000E+00 0. -1.
<scales pt_clust_5="13000.00000" pt_clust_6="13000.00000" pt_clust_7="13000.00000" pt_clust_8="13000.00000" pt_clust_9="37.77550"></scales>
<clustering>
<clus scale="   37.776">  2  9  1 -1</clus>
<clus scale="   92.187">  5  6 -1 -1</clus>
<clus scale="   93.668">  7  8 -1 -1</clus>
<clus scale="  131.386">  1  5  2 -1</clus>
<clus scale="   37.776">  2  5  1 -1</clus>
</clustering>
</event>
<event>
 9    1  0.1445593E-005  0.1434007E+03  0.7546771E-02  0.1209150E+00
         -1   -1    0    0    0  501 -0.00000000000E+00  0.00000000000E+00  0.13197953841E+03  0.13197953841E+03  0.00000000000E+00 0.  1.
         21   -1    0    0  501  502  0.00000000000E+00 -0.00000000000E+00 -0.26204613042E+03  0.26204613042E+03  0.00000000000E+00 0.  1.
         23    2    1    2    0    0 -0.12604968902E+03 -0.29806665436E+02  0.65035186386E+01  0.15834759231E+03  0.90855395158E+02 0.  0.
         23    2    1    2    0    0  0.89150082085E+02  0.93008302670E+01 -0.44013788194E+02  0.13394930432E+03  0.89280232964E+02 0.  0.
        -11    1    4    4    0    0  0.88162136403E+02 -0.16577959426E+02 -0.86591291662E+01  0.90124200700E+02  0.00000000000E+00 0.  1.
         11    1    4    4    0    0  0.98794568202E+00  0.25878789693E+02 -0.35354659027E+02  0.43825103623E+02  0.00000000000E+00 0. -1.
        -13    1    3    3    0    0 -0.27787314467E+02  0.31668444701E+02 -0.15547987366E+01  0.42159727634E+02  0.00000000000E+00 0. -1.
         13    1    3    3    0    0 -0.98262374550E+02 -0.61475110137E+02  0.80583173753E+01  0.11618786467E+03  0.00000000000E+00 0.  1.
         -1    1    1    2    0  502  0.36899606932E+02  0.20505835169E+02 -0.92556322449E+02  0.10172877220E+03  0.00000000000E+00 0.  1.
<scales pt_clust_5="13000.00000" pt_clust_6="13000.00000" pt_clust_7="13000.00000" pt_clust_8="13000.00000" pt_clust_9="42.21457"></scales>
<clustering>
<clus scale="   42.215">  2  9  1 -1</clus>
<clus scale="   89.280">  5  6 -1 -1</clus>
<clus scale="   90.855">  7  8 -1 -1</clus>
<clus scale="  142.408">  2  5  1 -1</clus>
<clus scale="   42.215">  2  5  1 -1</clus>
</clustering>
</event>
<event>
 9    1  0.1445593E-005  0.1282973E+03  0.7546771E-02  0.1246426E+00
          2   -1    0    0  502    0 -0.00000000000E+00  0.00000000000E+00  0.25197984571E+03  0.25197984571E+03  0.00000000000E+00 0. -1.
         21   -1    0    0  501  502  0.00000000000E+00 -0.00000000000E+00 -0.18055743020E+03  0.18055743020E+03  0.00000000000E+00 0. -1.
         23    2    1    2    0    0  0.72085325285E+01  0.88509177510E-01  0.54314286600E+02  0.10668226873E+03  0.91537391035E+02 0.  0.
         23    2    1    2    0    0  0.32569127100E+02  0.83725523103E+02 -0.10982421078E+03  0.16863263894E+03  0.91131215201E+02 0.  0.
        -13    1    3    3    0    0  0.28378183865E+02  0.33543983332E+02  0.50453947134E+02  0.66903818416E+02  0.00000000000E+00 0.  1.
         13    1    3    3    0    0 -0.21169651336E+02 -0.33455474155E+02  0.38603394665E+01  0.39778450314E+02  0.00000000000E+00 0. -1.
        -13    1    4    4    0    0  0.57373446916E+02  0.47808911497E+02 -0.36085059563E+02  0.82942968076E+02  0.00000000000E+00 0. -1.
         13    1    4    4    0    0 -0.24804319816E+02  0.35916611606E+02 -0.73739151219E+02  0.85689670866E+02  0.00000000000E+00 0.  1.
          2    1    1    2  501    0 -0.39777659629E+02 -0.83814032280E+02  0.12693233970E+03  0.15722236824E+03  0.00000000000E+00 0. -1.
<scales pt_clust_5="13000.00000" pt_clust_6="13000.00000" pt_clust_7="13000.00000" pt_clust_8="13000.00000" pt_clust_9="90.30672"></scales>
<clustering>
<clus scale="   91.131">  7  8 -1 -1</clus>
<clus scale="   91.537">  5  6 -1 -1</clus>
<clus scale="   91.821">  1  5  2 -1</clus>
<clus scale="   90.307">  2  9  1 -1</clus>
<clus scale="   90.307">  2  5  1 -1</clus>
</clustering>
</event>
<event>
 9    1  0.1445593E-005  0.3349415E+03  0.7546771E-02  0.1069313E+00
          1   -1    0    0  502    0 -0.00000000000E+00  0.00000000000E+00  0.72168286593E+03  0.72168286593E+03  0.00000000000E+00 0. -1.
         21   -1    0    0  501  502  0.00000000000E+00 -0.00000000000E+00 -0.82053620576E+03  0.82053620576E+03  0.00000000000E+00 0. -1.
         23    2    1    2    0    0 -0.35078321188E+03 -0.40169346035E+02  0.61912665634E+03  0.71897905863E+03  0.94607780106E+02 0.  0.
         23    2    1    2    0    0  0.16720795336E+03  0.17711679643E+02 -0.20417629655E+03  0.27716450173E+03  0.82825103000E+02 0.  0.
        -11    1    4    4    0    0  0.96451631288E+02 -0.29830188775E+02 -0.94784814354E+02  0.13848075091E+03  0.00000000000E+00 0.  1.
         11    1    4    4    0    0  0.70756322067E+02  0.47541868419E+02 -0.10939148220E+03  0.13868375082E+03  0.00000000000E+00 0. -1.
        -13    1    3    3    0    0 -0.24540697183E+03  0.94932447085E+00  0.48475960467E+03  0.54333908139E+03  0.00000000000E+00 0. -1.
         13    1    3    3    0    0 -0.10537624005E+03 -0.41118670506E+02  0.13436705167E+03  0.17563997724E+03  0.00000000000E+00 0.  1.
          1    1    1    2  501    0  0.18357525852E+03  0.22457666392E+02 -0.51380369962E+03  0.54607551132E+03  0.00000000000E+00 0. -1.
<scales pt_clust_5="13000.00000" pt_clust_6="13000.00000" pt_clust_7="13000.00000" pt_clust_8="13000.00000" pt_clust_9="184.94384"></scales>
<clustering>
<clus scale="   82.825">  5  6 -1 -1</clus>
<clus scale="   94.608">  7  8 -1 -1</clus>
<clus scale="  184.944">  2  9  1 -1</clus>
<clus scale="  331.806">  2  5  1 -1</clus>
<clus scale="  184.944">  2  5  1 -1</clus>
</clustering>
</event>
<event>
 9    1  0.1445593E-005  0.1452537E+03  0.7546771E-02  0.1206989E+00
          1   -1    0    0  502    0 -0.00000000000E+00  0.00000000000E+00  0.44214956319E+03  0.44214956319E+03  0.00000000000E+00 0. -1.
         21   -1    0    0  501  502  0.00000000000E+00 -0.00000000000E+00 -0.11650571842E+03  0.11650571842E+03  0.00000000000E+00 0.  1.
         23    2    1    2    0    0  0.92656819235E+02  0.85080020207E+02  0.30145735583E+03  0.33919600193E+03  0.91397452642E+02 0.  0.
         23    2    1    2    0    0 -0.23219248906E+02 -0.58367564533E+02 -0.45271914234E+02  0.11767715339E+03  0.88614107804E+02 0.  0.
        -13    1    4    4    0    0  0.13979262063E+02 -0.65867743328E+02 -0.14636628105E+02  0.68907258407E+02  0.00000000000E+00 0. -1.
         13    1    4    4    0    0 -0.37198510969E+02  0.75001787942E+01 -0.30635286129E+02  0.48769894981E+02  0.00000000000E+00 0.  1.
        -13    1    3    3    0    0  0.13800460001E+02  0.63332798858E+02  0.79076587871E+02  0.10224775233E+03  0.00000000000E+00 0.  1.
         13    1    3    3    0    0  0.78856359234E+02  0.21747221349E+02  0.22238076796E+03  0.23694824960E+03  0.00000000000E+00 0. -1.
          1    1    1    2  501    0 -0.69437570328E+02 -0.26712455674E+02  0.69458403166E+02  0.10178212629E+03  0.00000000000E+00 0. -1.
<scales pt_clust_5="13000.00000" pt_clust_6="13000.00000" pt_clust_7="13000.00000" pt_clust_8="13000.00000" pt_clust_9="74.39850"></scales>
<clustering>
<clus scale="   74.399">  2  9  1 -1</clus>
<clus scale="   88.614">  5  6 -1 -1</clus>
<clus scale="   91.397">  7  8 -1 -1</clus>
<clus scale="  143.519">  2  5  1 -1</clus>
<clus scale="   74.399">  2  5  1 -1</clus>
</clustering>
</event>
<event>
 9    1  0.1445593E-005  0.9330022E+02  0.7546771E-02  0.1296131E+00
         -1   -1    0    0    0  501 -0.00000000000E+00  0.00000000000E+00  0.35361719347E+03  0.35361719347E+03  0.00000000000E+00 0.  1.
         21   -1    0    0  501  502  0.00000000000E+00 -0.00000000000E+00 -0.47522736965E+02  0.47522736965E+02  0.00000000000E+00 0.  1.
         23    2    1    2    0    0 -0.36354918485E+01  0.19732072911E+02  0.25444622833E+03  0.27139859938E+03  0.92259119506E+02 0.  0.
         23    2    1    2    0    0 -0.67223504888E+01  0.53403252196E+01  0.46938666840E+02  0.10220789659E+03  0.90385322983E+02 0.  0.
        -11    1    3    3    0    0 -0.21478312369E+01  0.41891621069E+02  0.24265367068E+03  0.24625256342E+03  0.00000000000E+00 0. -1.
         11    1    3    3    0    0 -0.14876606116E+01 -0.22159548158E+02  0.11792557645E+02  0.25146035959E+02  0.00000000000E+00 0.  1.
        -13    1    4    4    0    0  0.24658180145E+02  0.37954392800E+02  0.19519163072E+02  0.49290562057E+02  0.00000000000E+00 0.  1.
         13    1    4    4    0    0 -0.31380530634E+02 -0.32614067580E+02  0.27419503768E+02  0.52917334531E+02  0.00000000000E+00 0. -1.
         -1    1    1    2    0  502  0.10357842337E+02 -0.25072398131E+02  0.47095613445E+01  0.27533434475E+02  0.00000000000E+00 0.  1.
<scales pt_clust_5="13000.00000" pt_clust_6="13000.00000" pt_clust_7="13000.00000" pt_clust_8="13000.00000" pt_clust_9="27.12766"></scales>
<clustering>
<clus scale="   27.128">  2  9  1 -1</clus>
<clus scale="   90.385">  7  8 -1 -1</clus>
<clus scale="   91.448">  2  7  1 -1</clus>
<clus scale="   92.259">  5  6 -1 -1</clus>
<clus scale="   27.128">  2  5  1 -1</clus>
</clustering>
</event>
<event>
 9    1  0.1445593E-005  0.8967455E+02  0.7546771E-02  0.1305722E+00
         -3   -1    0    0    0  501 -0.00000000000E+00  0.00000000000E+00  0.36092614955E+03  0.36092614955E+03  0.00000000000E+00 0.  1.
         21   -1    0    0  501  502  0.00000000000E+00 -0.00000000000E+00 -0.49947248052E+02  0.49947248052E+02  0.00000000000E+00 0.  1.
         23    2    1    2    0    0 -0.42198359188E+01  0.88568577041E-01  0.15901298521E+03  0.18071463013E+03  0.85760324261E+02 0.  0.
         23    2    1    2    0    0 -0.92057695927E+01 -0.19427296268E+02  0.17478407973E+03  0.19737307159E+03  0.89131862022E+02 0.  0.
        -11    1    3    3    0    0  0.33743175171E+02 -0.13670752536E+02  0.35825482737E+02  0.51077945914E+02  0.00000000000E+00 0.  1.
         11    1    3    3    0    0 -0.37963011089E+02  0.13759321113E+02  0.12318750247E+03  0.12963668421E+03  0.00000000000E+00 0. -1.
        -13    1    4    4    0    0 -0.27705070514E+02  0.21517628337E+02  0.31281470723E+02  0.47001166709E+02  0.00000000000E+00 0. -1.
         13    1    4    4    0    0  0.18499300921E+02 -0.40944924605E+02  0.14350260901E+03  0.15037190488E+03  0.00000000000E+00 0.  1.
         -3    1    1    2    0  502  0.13425605512E+02  0.19338727691E+02 -0.22818163439E+02  0.32785695887E+02  0.00000000000E+00 0.  1.
<scales pt_clust_5="13000.00000" pt_clust_6="13000.00000" pt_clust_7="13000.00000" pt_clust_8="13000.00000" pt_clust_9="23.54216"></scales>
<clustering>
<clus scale="   23.542">  2  9  1 -1</clus>
<clus scale="   85.760">  5  6 -1 -1</clus>
<clus scale="   86.324">  1  5  2 -1</clus>
<clus scale="   89.132">  7  8 -1 -1</clus>
<clus scale="   23.542">  2  5  1 -1</clus>
</clustering>
</event>
<event>
 9    1  0.1445593E-005  0.1212250E+03  0.7546771E-02  0.1244126E+00
         -2   -1    0    0    0  501 -0.00000000000E+00  0.00000000000E+00  0.61614669379E+03  0.61614669379E+03  0.00000000000E+00 0.  1.
         21   -1    0    0  501  502  0.00000000000E+00 -0.00000000000E+00 -0.53437628627E+02  0.53437628627E+02  0.00000000000E+00 0. -1.
         23    2    1    2    0    0  0.59431075802E+02 -0.36539172593E+02  0.46050320995E+03  0.47464536084E+03  0.91421268256E+02 0.  0.
         23    2    1    2    0    0 -0.70968924900E+02 -0.38359141122E+01  0.85606980167E+02  0.14978597451E+03  0.10027951220E+03 0.  0.
        -11    1    3    3    0    0 -0.10108321967E+02 -0.34509874463E+02  0.78305331705E+02  0.86167479839E+02  0.00000000000E+00 0. -1.
         11    1    3    3    0    0  0.69539397769E+02 -0.20292981295E+01  0.38219787825E+03  0.38847788100E+03  0.00000000000E+00 0.  1.
        -13    1    4    4    0    0  0.20079934391E+02  0.69289181539E+01 -0.39672269038E+01  0.21609085155E+02  0.00000000000E+00 0.  1.
         13    1    4    4    0    0 -0.91048859291E+02 -0.10764832266E+02  0.89574207071E+02  0.12817688935E+03  0.00000000000E+00 0. -1.
         -2    1    1    2    0  502  0.11537849098E+02  0.40375086705E+02  0.16598875045E+02  0.45152987066E+02  0.00000000000E+00 0.  1.
<scales pt_clust_5="13000.00000" pt_clust_6="13000.00000" pt_clust_7="13000.00000" pt_clust_8="13000.00000" pt_clust_9="41.99130"></scales>
<clustering>
<clus scale="   41.991">  2  9  1 -1</clus>
<clus scale="   91.421">  5  6 -1 -1</clus>
<clus scale="  100.280">  7  8 -1 -1</clus>
<clus scale="  114.006">  1  5  2 -1</clus>
<clus scale="   41.991">  2  5  1 -1</clus>
</clustering>
</event>
<event>
 9    1  0.1445593E-005  0.1004620E+03  0.7546771E-02  0.1281482E+00
          1   -1    0    0  502    0 -0.00000000000E+00  0.00000000000E+00  0.38345912244E+02  0.38345912244E+02  0.00000000000E+00 0. -1.
         21   -1    0    0  501  502  0.00000000000E+00 -0.00000000000E+00 -0.37996239897E+03  0.37996239897E+03  0.00000000000E+00 0.  1.
         23    2    1    2    0    0 -0.43189658946E+02  0.47257487648E+01 -0.90494612726E+02  0.13413627316E+03  0.88969576279E+02 0.  0.
         23    2    1    2    0    0  0.27859734492E+02  0.16767116695E+02 -0.14976980413E+03  0.17943812800E+03  0.93326022852E+02 0.  0.
        -13    1    4    4    0    0  0.23470280848E+02  0.49414866019E+02 -0.49074221792E+02  0.73491239690E+02  0.00000000000E+00 0. -1.
         13    1    4    4    0    0  0.43894536441E+01 -0.32647749324E+02 -0.10069558234E+03  0.10594688831E+03  0.00000000000E+00 0.  1.
        -13    1    3    3    0    0 -0.39306905891E+02 -0.28261973700E+02 -0.88481305104E+02  0.10085986992E+03  0.00000000000E+00 0.  1.
         13    1    3    3    0    0 -0.38827530549E+01  0.32987722464E+02 -0.20133076219E+01  0.33276403235E+02  0.00000000000E+00 0. -1.
          1    1    1    2  501    0  0.15329924455E+02 -0.21492865459E+02 -0.10135206987E+03  0.10473391006E+03  0.00000000000E+00 0. -1.
<scales pt_clust_5="13000.00000" pt_clust_6="13000.00000" pt_clust_7="13000.00000" pt_clust_8="13000.00000" pt_clust_9="26.39981"></scales>
<clustering>
<clus scale="   26.400">  2  9  1 -1</clus>
<clus scale="   88.970">  7  8 -1 -1</clus>
<clus scale="   93.326">  5  6 -1 -1</clus>
<clus scale="   96.428">  1  7  2 -1</clus>
<clus scale="   26.400">  2  5  1 -1</clus>
</clustering>
</event>
<event>
 9    1  0.1445593E-005  0.1308031E+03  0.7546771E-02  0.1230865E+00
          1   -1    0    0  502    0 -0.00000000000E+00  0.00000000000E+00  0.37092814955E+03  0.37092814955E+03  0.00000000000E+00 0. -1.
         21   -1    0    0  501  502  0.00000000000E+00 -0.00000000000E+00 -0.10054715728E+03  0.10054715728E+03  0.00000000000E+00 0.  1.
         23    2    1    2    0    0  0.49247515880E+02  0.54645431224E+02  0.19537901325E+03  0.22819748328E+03  0.92139522388E+02 0.  0.
         23    2    1    2    0    0 -0.35544608129E+02 -0.71505420148E+02  0.12863475466E+03  0.18541156801E+03  0.10702385326E+03 0.  0.
        -11    1    3    3    0    0  0.41444710041E+02 -0.69946241937E+01  0.30302320004E+02  0.51815242503E+02  0.00000000000E+00 0.  1.
         11    1    3    3    0    0  0.78028058384E+01  0.61640055418E+02  0.16507669324E+03  0.17638224078E+03  0.00000000000E+00 0. -1.
        -11    1    4    4    0    0  0.15370980962E+02 -0.71979862026E+02  0.10749747115E+03  0.13028075029E+03  0.00000000000E+00 0.  1.
         11    1    4    4    0    0 -0.50915589091E+02  0.47444187826E+00  0.21137283505E+02  0.55130817712E+02  0.00000000000E+00 0. -1.
          1    1    1    2  501    0 -0.13702907750E+02  0.16859988924E+02 -0.53632775639E+02  0.57866255539E+02  0.00000000000E+00 0. -1.
<scales pt_clust_5="13000.00000" pt_clust_6="13000.00000" pt_clust_7="13000.00000" pt_clust_8="13000.00000" pt_clust_9="21.72623"></scales>
<clustering>
<clus scale="   21.726">  2  9  1 -1</clus>
<clus scale="   92.140">  5  6 -1 -1</clus>
<clus scale="  107.024">  7  8 -1 -1</clus>
<clus scale="  118.933">  1  5  2 -1</clus>
<clus scale="   21.726">  2  5  1 -1</clus>
</clustering>
</event>
<event>
 9    1  0.1445593E-005  0.1978445E+03  0.7546771E-02  0.1151789E+00
         21   -1    0    0  501  502  0.00000000000E+00  0.00000000000E+00  0.48289734564E+03  0.48289734564E+03  0.00000000000E+00 0. -1.
          4   -1    0    0  502    0 -0.00000000000E+00 -0.00000000000E+00 -0.11570997115E+04  0.11570997115E+04  0.00000000000E+00 0. -1.
         23    2    1    2    0    0 -0.14520573171E+02  0.15125417559E+03 -0.49355377939E+03  0.52399227760E+03  0.88791334937E+02 0.  0.
         23    2    1    2    0    0 -0.37551066561E+02 -0.20825594027E+03 -0.62442519424E+03  0.66556240323E+03  0.91026755020E+02 0.  0.
        -13    1    4    4    0    0 -0.21725973923E+00 -0.18381408728E+03 -0.53348721278E+03  0.56426613587E+03  0.00000000000E+00 0. -1.
         13    1    4    4    0    0 -0.37333806822E+02 -0.24441852993E+02 -0.90937981460E+02  0.10129626736E+03  0.00000000000E+00 0.  1.
        -13    1    3    3    0    0  0.34186196451E+02  0.46603318576E+02 -0.12354379182E+03  0.13639513858E+03  0.00000000000E+00 0.  1.
         13    1    3    3    0    0 -0.48706769622E+02  0.10465085701E+03 -0.37000998757E+03  0.38759713903E+03  0.00000000000E+00 0. -1.
          4    1    1    2  501    0  0.52071639732E+02  0.57001764679E+02  0.44377660773E+03  0.45044237635E+03  0.00000000000E+00 0. -1.
<scales pt_clust_5="13000.00000" pt_clust_6="13000.00000" pt_clust_7="13000.00000" pt_clust_8="13000.00000" pt_clust_9="77.20529"></scales>
<clustering>
<clus scale="   77.205">  1  9  2 -1</clus>
<clus scale="   88.791">  7  8 -1 -1</clus>
<clus scale="   91.027">  5  6 -1 -1</clus>
<clus scale="  196.826">  2  7  1 -1</clus>
<clus scale="   77.205">  1  5  2 -1</clus>
</clustering>
</event>
<event>
 9    1  0.1445593E-005  0.2301758E+03  0.7546771E-02  0.1126538E+00
         -3   -1    0    0    0  501 -0.00000000000E+00  0.00000000000E+00  0.44547987499E+03  0.44547987499E+03  0.00000000000E+00 0.  1.
         21   -1    0    0  501  502  0.00000000000E+00 -0.00000000000E+00 -0.16640555959E+03  0.16640555959E+03  0.00000000000E+00 0. -1.
         23    2    1    2    0    0 -0.67324087041E+02 -0.20785829769E+03  0.26616914911E+03  0.35644457012E+03  0.92027773062E+02 0.  0.
         23    2    1    2    0    0  0.75627785738E+02  0.18096813972E+03  0.35420642198E+02  0.21939951790E+03  0.91719665236E+02 0.  0.
        -11    1    4    4    0    0  0.21232931232E+02  0.15256630321E+03  0.15174284228E+02  0.15478234120E+03  0.00000000000E+00 0.  1.
         11    1    4    4    0    0  0.54394854507E+02  0.28401836508E+02  0.20246357971E+02  0.64617176702E+02  0.00000000000E+00 0. -1.
        -13    1    3    3    0    0 -0.65159406679E+02 -0.59919443661E+02  0.87507333431E+02  0.12447337632E+03  0.00000000000E+00 0.  1.
         13    1    3    3    0    0 -0.21646803620E+01 -0.14793885403E+03  0.17866181568E+03  0.23197119380E+03  0.00000000000E+00 0. -1.
         -3    1    1    2    0  502 -0.83036986972E+01  0.26890157965E+02 -0.22515475900E+02  0.36041346568E+02  0.00000000000E+00 0.  1.
<scales pt_clust_5="13000.00000" pt_clust_6="13000.00000" pt_clust_7="13000.00000" pt_clust_8="13000.00000" pt_clust_9="28.14306"></scales>
<clustering>
<clus scale="   28.143">  2  9  1 -1</clus>
<clus scale="   91.720">  5  6 -1 -1</clus>
<clus scale="   92.028">  7  8 -1 -1</clus>
<clus scale="  230.053">  2  5  1 -1</clus>
<clus scale="   28.143">  2  5  1 -1</clus>
</clustering>
</event>
<event>
 9    1  0.1445593E-005  0.9679125E+02  0.7546771E-02  0.1287846E+00
         21   -1    0    0  501  502  0.00000000000E+00  0.00000000000E+00  0.95701151170E+02  0.95701151170E+02  0.00000000000E+00 0. -1.
          2   -1    0    0  502    0 -0.00000000000E+00 -0.00000000000E+00 -0.41120992723E+03  0.41120992723E+03  0.00000000000E+00 0. -1.
         23    2    1    2    0    0  0.69117087618E+01 -0.15327701382E+02 -0.27838804806E+03  0.29424273099E+03  0.93787895236E+02 0.  0.
         23    2    1    2    0    0  0.69800928461E+02  0.42184233150E+02 -0.50853188896E+01  0.12530491430E+03  0.94993588933E+02 0.  0.
        -13    1    3    3    0    0 -0.35844747624E+02  0.18861373856E+02 -0.11451596735E+03  0.12146811982E+03  0.00000000000E+00 0.  1.
         13    1    3    3    0    0  0.42756456386E+02 -0.34189075237E+02 -0.16387208071E+03  0.17277461117E+03  0.00000000000E+00 0. -1.
        -13    1    4    4    0    0 -0.14223955546E+02  0.23244796232E+02 -0.24908996187E+02  0.36920178145E+02  0.00000000000E+00 0.  1.
         13    1    4    4    0    0  0.84024884006E+02  0.18939436918E+02  0.19823677297E+02  0.88384736152E+02  0.00000000000E+00 0. -1.
          2    1    1    2  501    0 -0.76712637223E+02 -0.26856531768E+02 -0.32035409115E+02  0.87363433114E+02  0.00000000000E+00 0. -1.
<scales pt_clust_5="13000.00000" pt_clust_6="13000.00000" pt_clust_7="13000.00000" pt_clust_8="13000.00000" pt_clust_9="81.27793"></scales>
<clustering>
<clus scale="   81.278">  1  9  2 -1</clus>
<clus scale="   93.788">  5  6 -1 -1</clus>
<clus scale="   94.994">  7  8 -1 -1</clus>
<clus scale="   95.608">  2  5  1 -1</clus>
<clus scale="   81.278">  1  5  2 -1</clus>
</clustering>
</event>
<event>
 9    1  0.1445593E-005  0.1091457E+03  0.7546771E-02  0.1262466E+00
         21   -1    0    0  501  502  0.00000000000E+00  0.00000000000E+00  0.14938948470E+03  0.14938948470E+03  0.00000000000E+00 0. -1.
          4   -1    0    0  502    0 -0.00000000000E+00 -0.00000000000E+00 -0.16621956921E+03  0.16621956921E+03  0.00000000000E+00 0. -1.
         23    2    1    2    0    0 -0.23138955301E+02  0.43535634238E+02 -0.61449787076E+02  0.12023165392E+03  0.90822968310E+02 0.  0.
         23    2    1    2    0    0  0.56959302804E+02 -0.54881510426E+02 -0.18933108939E+02  0.12249732959E+03  0.91601259705E+02 0.  0.
        -11    1    3    3    0    0  0.33037368892E+02  0.20476821403E+02 -0.40144331973E+02  0.55877860979E+02  0.00000000000E+00 0. -1.
         11    1    3    3    0    0 -0.56176324193E+02  0.23058812835E+02 -0.21305455104E+02  0.64353792945E+02  0.00000000000E+00 0.  1.
        -11    1    4    4    0    0  0.36681322756E+02  0.18432837205E+02 -0.21591125165E+02  0.46383893891E+02  0.00000000000E+00 0.  1.
         11    1    4    4    0    0  0.20277980047E+02 -0.73314347631E+02  0.26580162260E+01  0.76113435697E+02  0.00000000000E+00 0. -1.
          4    1    1    2  501    0 -0.33820347503E+02  0.11345876188E+02  0.63552811499E+02  0.72880070397E+02  0.00000000000E+00 0. -1.
<scales pt_clust_5="13000.00000" pt_clust_6="13000.00000" pt_clust_7="13000.00000" pt_clust_8="13000.00000" pt_clust_9="35.67275"></scales>
<clustering>
<clus scale="   35.673">  1  9  2 -1</clus>
<clus scale="   90.823">  5  6 -1 -1</clus>
<clus scale="   91.601">  7  8 -1 -1</clus>
<clus scale="  108.493">  2  5  1 -1</clus>
<clus scale="   35.673">  1  5  2 -1</clus>
</clustering>
</event>
<event>
 9    1  0.1445593E-005  0.1315840E+03  0.7546771E-02  0.1240219E+00
         21   -1    0    0  501  502  0.00000000000E+00  0.00000000000E+00  0.19466962282E+03  0.19466962282E+03  0.00000000000E+00 0.  1.
         -2   -1    0    0    0  501 -0.00000000000E+00 -0.00000000000E+00 -0.15327219780E+03  0.15327219780E+03  0.00000000000E+00 0.  1.
         23    2    1    2    0    0  0.14791024279E+02  0.29971447853E+02 -0.33172954756E+01  0.96535178637E+02  0.90504000903E+02 0.  0.
         23    2    1    2    0    0 -0.95395758811E+02  0.23560906756E+02 -0.20427665857E+02  0.13476031019E+03  0.89930998799E+02 0.  0.
        -13    1    4    4    0    0  0.10369097386E+02  0.21747904641E+02 -0.15931725293E+02  0.28884414615E+02  0.00000000000E+00 0. -1.
         13    1    4    4    0    0 -0.10576485620E+03  0.18130021151E+01 -0.44959405640E+01  0.10587589558E+03  0.00000000000E+00 0.  1.
        -13    1    3    3    0    0  0.31013967980E+02 -0.24570817115E+02 -0.19247969285E+01  0.39614342185E+02  0.00000000000E+00 0. -1.
         13    1    3    3    0    0 -0.16222943700E+02  0.54542264968E+02 -0.13924985472E+01  0.56920836452E+02  0.00000000000E+00 0.  1.
         -2    1    1    2    0  502  0.80604734532E+02 -0.53532354609E+02  0.65142386353E+02  0.11664633178E+03  0.00000000000E+00 0.  1.
<scales pt_clust_5="13000.00000" pt_clust_6="13000.00000" pt_clust_7="13000.00000" pt_clust_8="13000.00000" pt_clust_9="96.05604"></scales>
<clustering>
<clus scale="   89.931">  5  6 -1 -1</clus>
<clus scale="   90.504">  7  8 -1 -1</clus>
<clus scale="   96.478">  2  7  1 -1</clus>
<clus scale="   96.056">  1  9  2 -1</clus>
<clus scale="   96.056">  1  5  2 -1</clus>
</clustering>
</event>
<event>
 9    1  0.1445593E-005  0.1307034E+03  0.7546771E-02  0.1229227E+00
         21   -1    0    0  501  502  0.00000000000E+00  0.00000000000E+00  0.40885107726E+03  0.40885107726E+03  0.00000000000E+00 0.  1.
          2   -1    0    0  502    0 -0.00000000000E+00 -0.00000000000E+00 -0.16377907353E+03  0.16377907353E+03  0.00000000000E+00 0. -1.
         23    2    1    2    0    0 -0.59004144720E+02  0.65025451274E+02 -0.95103384156E+02  0.15840669733E+03  0.91313907334E+02 0.  0.
         23    2    1    2    0    0  0.12629948247E+03 -0.63638391855E+02  0.19314746689E+03  0.25252065210E+03  0.80369966903E+02 0.  0.
        -13    1    4    4    0    0  0.68859149724E+02  0.72408930566E+01  0.10418347154E+03  0.12509280065E+03  0.00000000000E+00 0. -1.
         13    1    4    4    0    0  0.57440332749E+02 -0.70879284912E+02  0.88963995355E+02  0.12742785145E+03  0.00000000000E+00 0.  1.
        -13    1    3    3    0    0 -0.23134200327E+02  0.57749259361E+02 -0.65096650376E+01  0.62550331098E+02  0.00000000000E+00 0.  1.
         13    1    3    3    0    0 -0.35869944392E+02  0.72761919132E+01 -0.88593719118E+02  0.95856366229E+02  0.00000000000E+00 0. -1.
          2    1    1    2  501    0 -0.67295337754E+02 -0.13870594186E+01  0.14702792099E+03  0.16170280136E+03  0.00000000000E+00 0. -1.
<scales pt_clust_5="13000.00000" pt_clust_6="13000.00000" pt_clust_7="13000.00000" pt_clust_8="13000.00000" pt_clust_9="67.30963"></scales>
<clustering>
<clus scale="   67.310">  1  9  2 -1</clus>
<clus scale="   80.370">  5  6 -1 -1</clus>
<clus scale="   91.314">  7  8 -1 -1</clus>
<clus scale="  123.306">  1  5  2 -1</clus>
<clus scale="   67.310">  1  5  2 -1</clus>
</clustering>
</event>
<event>
 9    1  0.1445593E-005  0.9322216E+02  0.7546771E-02  0.1295713E+00
         21   -1    0    0  501  502  0.00000000000E+00  0.00000000000E+00  0.43717918192E+03  0.43717918192E+03  0.00000000000E+00 0.  1.
         -1   -1    0    0    0  501 -0.00000000000E+00 -0.00000000000E+00 -0.33147837340E+02  0.33147837340E+02  0.00000000000E+00 0.  1.
         23    2    1    2    0    0  0.26375874720E+02 -0.52759492781E+01  0.10180134651E+03  0.13878058964E+03  0.90404731641E+02 0.  0.
         23    2    1    2    0    0 -0.35549072636E+01 -0.26869066380E+02  0.18841138100E+03  0.21109404824E+03  0.91253847140E+02 0.  0.
        -11    1    4    4    0    0  0.34379493765E+02 -0.38389872087E+02  0.13556590957E+03  0.14503050613E+03  0.00000000000E+00 0.  1.
         11    1    4    4    0    0 -0.37934401028E+02  0.11520805708E+02  0.52845471434E+02  0.66063542113E+02  0.00000000000E+00 0. -1.
        -13    1    3    3    0    0  0.44381568045E+01 -0.39732811281E+02  0.14735773275E+02  0.42609113370E+02  0.00000000000E+00 0.  1.
         13    1    3    3    0    0  0.21937717916E+02  0.34456862003E+02  0.87065573232E+02  0.96171476274E+02  0.00000000000E+00 0. -1.
         -1    1    1    2    0  502 -0.22820967457E+02  0.32145015658E+02  0.11381861707E+03  0.12045238138E+03  0.00000000000E+00 0.  1.
<scales pt_clust_5="13000.00000" pt_clust_6="13000.00000" pt_clust_7="13000.00000" pt_clust_8="13000.00000" pt_clust_9="39.42206"></scales>
<clustering>
<clus scale="   39.422">  1  9  2 -1</clus>
<clus scale="   90.405">  7  8 -1 -1</clus>
<clus scale="   91.254">  5  6 -1 -1</clus>
<clus scale="   92.391">  2  7  1 -1</clus>
<clus scale="   39.422">  1  5  2 -1</clus>
</clustering>
</event>
<event>
 9    1  0.1445593E-005  0.1029370E+03  0.7546771E-02  0.1283996E+00
         21   -1    0    0  501  502  0.00000000000E+00  0.00000000000E+00  0.25945596077E+03  0.25945596077E+03  0.00000000000E+00 0. -1.
         -3   -1    0    0    0  501 -0.00000000000E+00 -0.00000000000E+00 -0.67979603497E+02  0.67979603497E+02  0.00000000000E+00 0.  1.
         23    2    1    2    0    0 -0.47633012792E+02 -0.25488596535E+02  0.27457457981E+02  0.92734992081E+02  0.70194688521E+02 0.  0.
         23    2    1    2    0    0  0.44101493265E+02  0.44074779337E+01  0.39506917834E+02  0.10836720875E+03  0.90654772653E+02 0.  0.
        -11    1    3    3    0    0 -0.30988945237E+02 -0.49679198936E+02  0.12878823534E+02  0.59951660774E+02  0.00000000000E+00 0.  1.
         11    1    3    3    0    0 -0.16644067555E+02  0.24190602401E+02  0.14578634447E+02  0.32783331308E+02  0.00000000000E+00 0. -1.
        -11    1    4    4    0    0 -0.13243719195E+02  0.25695184692E+02  0.37257710628E+02  0.47156925426E+02  0.00000000000E+00 0. -1.
         11    1    4    4    0    0  0.57345212459E+02 -0.21287706758E+02  0.22492072066E+01  0.61210283320E+02  0.00000000000E+00 0.  1.
         -3    1    1    2    0  502  0.35315195270E+01  0.21081118601E+02  0.12451198145E+03  0.12633336344E+03  0.00000000000E+00 0.  1.
<scales pt_clust_5="13000.00000" pt_clust_6="13000.00000" pt_clust_7="13000.00000" pt_clust_8="13000.00000" pt_clust_9="21.37487"></scales>
<clustering>
<clus scale="   21.375">  1  9  2 -1</clus>
<clus scale="   70.195">  5  6 -1 -1</clus>
<clus scale="   85.469">  2  5  1 -1</clus>
<clus scale="   90.655">  7  8 -1 -1</clus>
<clus scale="   21.375">  1  5  2 -1</clus>
</clustering>
</event>
<event>
 9    1  0.1445593E-005  0.1024365E+03  0.7546771E-02  0.1275798E+00
         -3   -1    0    0    0  501 -0.00000000000E+00  0.00000000000E+00  0.60436554119E+03  0.60436554119E+03  0.00000000000E+00 0.  1.
         21   -1    0    0  501  502  0.00000000000E+00 -0.00000000000E+00 -0.52412824864E+02  0.52412824864E+02  0.00000000000E+00 0.  1.
         23    2    1    2    0    0 -0.84379709380E+00 -0.59616458488E+02  0.44081058137E+03  0.45411194722E+03  0.91372084624E+02 0.  0.
         23    2    1    2    0    0 -0.54923558154E+01  0.50621923176E+01  0.11476979486E+03  0.14762575470E+03  0.92549802137E+02 0.  0.
        -13    1    4    4    0    0 -0.30941061812E+02 -0.33778913932E+02  0.65426890892E+02  0.79868907494E+02  0.00000000000E+00 0. -1.
         13    1    4    4    0    0  0.25448705997E+02  0.38841106249E+02  0.49342903968E+02  0.67756847208E+02  0.00000000000E+00 0.  1.
        -13    1    3    3    0    0  0.34258433783E+02 -0.61968349490E+02  0.34124060695E+03  0.34850949550E+03  0.00000000000E+00 0.  1.
         13    1    3    3    0    0 -0.35102230877E+02  0.23518910020E+01  0.99569974422E+02  0.10560245172E+03  0.00000000000E+00 0. -1.
         -3    1    1    2    0  502  0.63361529092E+01  0.54554266170E+02 -0.36276599051E+01  0.55040664126E+02  0.00000000000E+00 0.  1.
<scales pt_clust_5="13000.00000" pt_clust_6="13000.00000" pt_clust_7="13000.00000" pt_clust_8="13000.00000" pt_clust_9="54.92099"></scales>
<clustering>
<clus scale="   54.921">  2  9  1 -1</clus>
<clus scale="   91.372">  7  8 -1 -1</clus>
<clus scale="   92.550">  5  6 -1 -1</clus>
<clus scale="  101.374">  1  7  2 -1</clus>
<clus scale="   54.921">  2  5  1 -1</clus>
</clustering>
</event>
<event>
 9    1  0.1445593E-005  0.1097823E+03  0.7546771E-02  0.1261232E+00
         -1   -1    0    0    0  501 -0.00000000000E+00  0.00000000000E+00  0.20781373266E+03  0.20781373266E+03  0.00000000000E+00 0.  1.
         21   -1    0    0  501  502  0.00000000000E+00 -0.00000000000E+00 -0.29935356169E+03  0.29935356169E+03  0.00000000000E+00 0. -1.
         23    2    1    2    0    0 -0.55395810063E+02  0.15211323229E+02  0.15484688748E+03  0.18845230556E+03  0.90755896686E+02 0.  0.
         23    2    1    2    0    0  0.97438519726E+02 -0.53494595065E+02 -0.15378675912E+03  0.21005059513E+03  0.90083008425E+02 0.  0.
        -11    1    4    4    0    0  0.55542671301E+02  0.12516892501E+02 -0.31956213242E+02  0.65290585064E+02  0.00000000000E+00 0.  1.
         11    1    4    4    0    0  0.41895848425E+02 -0.66011487566E+02 -0.12183054588E+03  0.14476001007E+03  0.00000000000E+00 0. -1.
        -11    1    3    3    0    0 -0.45780782413E+02 -0.31997164623E+02  0.59400638046E+02  0.81536092514E+02  0.00000000000E+00 0.  1.
         11    1    3    3    0    0 -0.96150276498E+01  0.47208487852E+02  0.95446249433E+02  0.10691621305E+03  0.00000000000E+00 0. -1.
         -1    1    1    2    0  502 -0.42042709663E+02  0.38283271836E+02 -0.92599957391E+02  0.10866439365E+03  0.00000000000E+00 0.  1.
<scales pt_clust_5="13000.00000" pt_clust_6="13000.00000" pt_clust_7="13000.00000" pt_clust_8="13000.00000" pt_clust_9="56.86122"></scales>
<clustering>
<clus scale="   56.861">  2  9  1 -1</clus>
<clus scale="   90.083">  5  6 -1 -1</clus>
<clus scale="   90.756">  7  8 -1 -1</clus>
<clus scale="  109.227">  2  5  1 -1</clus>
<clus scale="   56.861">  2  5  1 -1</clus>
</clustering>
</event>
<event>
 9    1  0.1445593E-005  0.9390740E+02  0.7546771E-02  0.1302838E+00
         21   -1    0    0  501  502  0.00000000000E+00  0.00000000000E+00  0.19003742733E+03  0.19003742733E+03  0.00000000000E+00 0.  1.
         -4   -1    0    0    0  501 -0.00000000000E+00 -0.00000000000E+00 -0.14717613343E+03  0.14717613343E+03  0.00000000000E+00 0.  1.
         23    2    1    2    0    0 -0.13412649412E+02  0.10752844958E+02 -0.76279279634E+02  0.11028465329E+03  0.77773089246E+02 0.  0.
         23    2    1    2    0    0  0.19772262353E+02  0.23250138750E+02 -0.53603831448E+01  0.97711510072E+02  0.92667654457E+02 0.  0.
        -13    1    3    3    0    0  0.72588611202E+01  0.38065822137E+02 -0.18099416667E+02  0.42770162069E+02  0.00000000000E+00 0.  1.
         13    1    3    3    0    0 -0.20671510533E+02 -0.27312977178E+02 -0.58179862967E+02  0.67514491221E+02  0.00000000000E+00 0. -1.
        -13    1    4    4    0    0  0.34351232829E+02  0.50827982800E+02 -0.18182042508E+02  0.63984980285E+02  0.00000000000E+00 0.  1.
         13    1    4    4    0    0 -0.14578970476E+02 -0.27577844050E+02  0.12821659363E+02  0.33726529786E+02  0.00000000000E+00 0. -1.
         -4    1    1    2    0  502 -0.63596129402E+01 -0.34002983708E+02  0.12450095667E+03  0.12921739740E+03  0.00000000000E+00 0.  1.
<scales pt_clust_5="13000.00000" pt_clust_6="13000.00000" pt_clust_7="13000.00000" pt_clust_8="13000.00000" pt_clust_9="34.59259"></scales>
<clustering>
<clus scale="   34.593">  1  9  2 -1</clus>
<clus scale="   77.773">  5  6 -1 -1</clus>
<clus scale="   79.246">  2  5  1 -1</clus>
<clus scale="   92.668">  7  8 -1 -1</clus>
<clus scale="   34.593">  1  5  2 -1</clus>
</clustering>
</event>
<event>
 9    1  0.1445593E-005  0.1392247E+03  0.7546771E-02  0.1214709E+00
         -1   -1    0    0    0  501 -0.00000000000E+00  0.00000000000E+00  0.72463511810E+02  0.72463511810E+02  0.00000000000E+00 0.  1.
         21   -1    0    0  501  502  0.00000000000E+00 -0.00000000000E+00 -0.66271154063E+03  0.66271154063E+03  0.00000000000E+00 0. -1.
         23    2    1    2    0    0 -0.22812405139E+02  0.10311400015E+03 -0.18607232122E+02  0.14228040057E+03  0.93512461431E+02 0.  0.
         23    2    1    2    0    0  0.65127518922E+01 -0.87127654558E+02 -0.53397612060E+03  0.54885069920E+03  0.92048620380E+02 0.  0.
        -13    1    4    4    0    0  0.48169878034E+02 -0.36552216221E+02 -0.28940946160E+03  0.29565898958E+03  0.00000000000E+00 0.  1.
         13    1    4    4    0    0 -0.41657126142E+02 -0.50575438336E+02 -0.24456665901E+03  0.25319170962E+03  0.00000000000E+00 0. -1.
        -13    1    3    3    0    0 -0.34789330511E+02  0.46134954537E+01 -0.24625821094E+02  0.42872052928E+02  0.00000000000E+00 0. -1.
         13    1    3    3    0    0  0.11976925372E+02  0.98500504699E+02  0.60185889721E+01  0.99408347641E+02  0.00000000000E+00 0.  1.
         -1    1    1    2    0  502  0.16299653247E+02 -0.15986345595E+02 -0.37664676095E+02  0.44043952670E+02  0.00000000000E+00 0.  1.
<scales pt_clust_5="13000.00000" pt_clust_6="13000.00000" pt_clust_7="13000.00000" pt_clust_8="13000.00000" pt_clust_9="22.83072"></scales>
<clustering>
<clus scale="   22.831">  2  9  1 -1</clus>
<clus scale="   92.049">  5  6 -1 -1</clus>
<clus scale="   93.512">  7  8 -1 -1</clus>
<clus scale="  138.246">  2  5  1 -1</clus>
<clus scale="   22.831">  2  5  1 -1</clus>
</clustering>
</event>
<event>
 9    1  0.1445593E-005  0.1077421E+03  0.7546771E-02  0.1266223E+00
         21   -1    0    0  501  502  0.00000000000E+00  0.00000000000E+00  0.41064341886E+02  0.41064341886E+02  0.00000000000E+00 0. -1.
          2   -1    0    0  502    0 -0.00000000000E+00 -0.00000000000E+00 -0.40332015104E+03  0.40332015104E+03  0.00000000000E+00 0. -1.
         23    2    1    2    0    0  0.55506613214E+02 -0.14481342416E+02 -0.20835526796E+03  0.23384358386E+03  0.89332024708E+02 0.  0.
         23    2    1    2    0    0 -0.43100929115E+02  0.32282501716E+02 -0.15537307588E+03  0.18879348097E+03  0.92748777582E+02 0.  0.
        -11    1    4    4    0    0 -0.68899811812E+02  0.29486243855E+02 -0.82599437533E+02  0.11153156381E+03  0.00000000000E+00 0.  1.
         11    1    4    4    0    0  0.25798882697E+02  0.27962578602E+01 -0.72773638343E+02  0.77261917166E+02  0.00000000000E+00 0. -1.
        -11    1    3    3    0    0  0.31902050779E+02 -0.29342114348E+02 -0.20012022686E+03  0.20476036169E+03  0.00000000000E+00 0. -1.
         11    1    3    3    0    0  0.23604562435E+02  0.14860771932E+02 -0.82350410938E+01  0.29083222174E+02  0.00000000000E+00 0.  1.
          2    1    1    2  501    0 -0.12405684099E+02 -0.17801159300E+02  0.14725346761E+01  0.21747428095E+02  0.00000000000E+00 0. -1.
<scales pt_clust_5="13000.00000" pt_clust_6="13000.00000" pt_clust_7="13000.00000" pt_clust_8="13000.00000" pt_clust_9="21.69752"></scales>
<clustering>
<clus scale="   21.698">  1  9  2 -1</clus>
<clus scale="   89.332">  7  8 -1 -1</clus>
<clus scale="   92.749">  5  6 -1 -1</clus>
<clus scale="  104.815">  2  7  1 -1</clus>
<clus scale="   21.698">  1  5  2 -1</clus>
</clustering>
</event>
<event>
 9    1  0.1445593E-005  0.1302074E+03  0.7546771E-02  0.1237806E+00
         21   -1    0    0  501  502  0.00000000000E+00  0.00000000000E+00  0.23650483753E+03  0.23650483753E+03  0.00000000000E+00 0. -1.
         -4   -1    0    0    0  501 -0.00000000000E+00 -0.00000000000E+00 -0.14269080625E+03  0.14269080625E+03  0.00000000000E+00 0.  1.
         23    2    1    2    0    0 -0.32920806409E+02  0.47230745994E+02 -0.78520003885E+02  0.13339976853E+03  0.91189826028E+02 0.  0.
         23    2    1    2    0    0  0.33959615678E+02 -0.33406026887E+00  0.10028242912E+03  0.15982022642E+03  0.11971872072E+03 0.  0.
        -11    1    4    4    0    0  0.82885437501E+00  0.41233258034E+02  0.98330512537E+02  0.10662906857E+03  0.00000000000E+00 0.  1.
         11    1    4    4    0    0  0.33130761303E+02 -0.41567318303E+02  0.19519165795E+01  0.53191157853E+02  0.00000000000E+00 0. -1.
        -11    1    3    3    0    0 -0.58729818507E+02  0.58180704888E+01 -0.44519790085E+02  0.73925998372E+02  0.00000000000E+00 0.  1.
         11    1    3    3    0    0  0.25809012098E+02  0.41412675505E+02 -0.34000213800E+02  0.59473770155E+02  0.00000000000E+00 0. -1.
         -4    1    1    2    0  502 -0.10388092684E+01 -0.46896685725E+02  0.72051606057E+02  0.85975648832E+02  0.00000000000E+00 0.  1.
<scales pt_clust_5="13000.00000" pt_clust_6="13000.00000" pt_clust_7="13000.00000" pt_clust_8="13000.00000" pt_clust_9="46.90819"></scales>
<clustering>
<clus scale="   46.908">  1  9  2 -1</clus>
<clus scale="   91.190">  7  8 -1 -1</clus>
<clus scale="  104.580">  2  7  1 -1</clus>
<clus scale="  119.719">  5  6 -1 -1</clus>
<clus scale="   46.908">  1  5  2 -1</clus>
</clustering>
</event>
<event>
 9    1  0.1445593E-005  0.1037712E+03  0.7546771E-02  0.1272882E+00
         -1   -1    0    0    0  501 -0.00000000000E+00  0.00000000000E+00  0.31117165154E+03  0.31117165154E+03  0.00000000000E+00 0.  1.
         21   -1    0    0  501  502  0.00000000000E+00 -0.00000000000E+00 -0.90376216381E+02  0.90376216381E+02  0.00000000000E+00 0.  1.
         23    2    1    2    0    0  0.27928381977E+02  0.16793234856E+02  0.14536290699E+03  0.17520204051E+03  0.92213735501E+02 0.  0.
         23    2    1    2    0    0 -0.52088118795E+02 -0.50193769623E+02  0.11882014134E+03  0.16649790697E+03  0.91491750485E+02 0.  0.
        -11    1    4    4    0    0  0.22127958047E+02 -0.10108442487E+02  0.50104939705E+01  0.24838119629E+02  0.00000000000E+00 0. -1.
         11    1    4    4    0    0 -0.74216076842E+02 -0.40085327136E+02  0.11380964737E+03  0.14165978734E+03  0.00000000000E+00 0.  1.
        -11    1    3    3    0    0 -0.12200385754E+02 -0.31081900132E+02  0.34911038980E+02  0.48308535178E+02  0.00000000000E+00 0.  1.
         11    1    3    3    0    0  0.40128767732E+02  0.47875134987E+02  0.11045186801E+03  0.12689350533E+03  0.00000000000E+00 0. -1.
         -1    1    1    2    0  502  0.24159736817E+02  0.33400534767E+02 -0.43387613165E+02  0.59847920449E+02  0.00000000000E+00 0.  1.
<scales pt_clust_5="13000.00000" pt_clust_6="13000.00000" pt_clust_7="13000.00000" pt_clust_8="13000.00000" pt_clust_9="41.22243"></scales>
<clustering>
<clus scale="   41.222">  2  9  1 -1</clus>
<clus scale="   91.492">  5  6 -1 -1</clus>
<clus scale="   92.214">  7  8 -1 -1</clus>
<clus scale="  103.130">  2  5  1 -1</clus>
<clus scale="   41.222">  2  5  1 -1</clus>
</clustering>
</event>
<event>
 9    1  0.1445593E-005  0.2302864E+03  0.7546771E-02  0.1128957E+00
         21   -1    0    0  501  502  0.00000000000E+00  0.00000000000E+00  0.19767163498E+03  0.19767163498E+03  0.00000000000E+00 0. -1.
          1   -1    0    0  502    0 -0.00000000000E+00 -0.00000000000E+00 -0.71568369623E+03  0.71568369623E+03  0.00000000000E+00 0. -1.
         23    2    1    2    0    0 -0.20161471445E+03  0.72576591511E+02 -0.54057666238E+03  0.59384313151E+03  0.12046029310E+03 0.  0.
         23    2    1    2    0    0  0.13588393357E+03 -0.80311005075E+02 -0.78687957040E+02  0.19854758816E+03  0.91186891846E+02 0.  0.
        -11    1    3    3    0    0 -0.10790921771E+02  0.31977918409E+02 -0.18692900304E+03  0.18995126595E+03  0.00000000000E+00 0. -1.
         11    1    3    3    0    0 -0.19082379268E+03  0.40598673102E+02 -0.35364765934E+03  0.40389186556E+03  0.00000000000E+00 0.  1.
        -13    1    4    4    0    0  0.10032823598E+03 -0.99022557031E+02 -0.70217863975E+02  0.15748577764E+03  0.00000000000E+00 0.  1.
         13    1    4    4    0    0  0.35555697583E+02  0.18711551955E+02 -0.84700930644E+01  0.41061810527E+02  0.00000000000E+00 0. -1.
          1    1    1    2  501    0  0.65730780881E+02  0.77344135644E+01  0.10125255817E+03  0.12096461154E+03  0.00000000000E+00 0. -1.
<scales pt_clust_5="13000.00000" pt_clust_6="13000.00000" pt_clust_7="13000.00000" pt_clust_8="13000.00000" pt_clust_9="66.18426"></scales>
<clustering>
<clus scale="   66.184">  1  9  2 -1</clus>
<clus scale="   91.187">  7  8 -1 -1</clus>
<clus scale="  120.460">  5  6 -1 -1</clus>
<clus scale="  216.417">  1  7  2 -1</clus>
<clus scale="   66.184">  1  5  2 -1</clus>
</clustering>
</event>
<event>
 9    1  0.1445593E-005  0.9327631E+02  0.7546771E-02  0.1295381E+00
         -1   -1    0    0    0  501 -0.00000000000E+00  0.00000000000E+00  0.50576140230E+03  0.50576140230E+03  0.00000000000E+00 0.  1.
         21   -1    0    0  501  502  0.00000000000E+00 -0.00000000000E+00 -0.54909171215E+02  0.54909171215E+02  0.00000000000E+00 0.  1.
         23    2    1    2    0    0  0.69087298071E+01 -0.21620198894E+02  0.36796651721E+03  0.37979306827E+03  0.91259264586E+02 0.  0.
         23    2    1    2    0    0 -0.32409970882E+02 -0.95477773727E+01  0.98071795445E+02  0.13783830085E+03  0.90773089922E+02 0.  0.
        -11    1    3    3    0    0 -0.27077905375E+02  0.22179802566E+02  0.19630873771E+03  0.19940480712E+03  0.00000000000E+00 0. -1.
         11    1    3    3    0    0  0.33986635182E+02 -0.43800001460E+02  0.17165777950E+03  0.18038826116E+03  0.00000000000E+00 0.  1.
        -13    1    4    4    0    0 -0.19995201662E+02 -0.48370784774E+02  0.35799285030E+02  0.63412378270E+02  0.00000000000E+00 0.  1.
         13    1    4    4    0    0 -0.12414769219E+02  0.38823007401E+02  0.62272510415E+02  0.74425922580E+02  0.00000000000E+00 0. -1.
         -1    1    1    2    0  502  0.25501241075E+02  0.31167976267E+02 -0.15186081573E+02  0.43039204389E+02  0.00000000000E+00 0.  1.
<scales pt_clust_5="13000.00000" pt_clust_6="13000.00000" pt_clust_7="13000.00000" pt_clust_8="13000.00000" pt_clust_9="40.27103"></scales>
<clustering>
<clus scale="   40.271">  2  9  1 -1</clus>
<clus scale="   90.773">  7  8 -1 -1</clus>
<clus scale="   91.259">  5  6 -1 -1</clus>
<clus scale="   92.801">  2  7  1 -1</clus>
<clus scale="   40.271">  2  5  1 -1</clus>
</clustering>
</event>
<event>
 9    1  0.1445593E-005  0.1484973E+03  0.7546771E-02  0.1202335E+00
          2   -1    0    0  502    0 -0.00000000000E+00  0.00000000000E+00  0.56008100428E+03  0.56008100428E+03  0.00000000000E+00 0. -1.
         21   -1    0    0  501  502  0.00000000000E+00 -0.00000000000E+00 -0.52410672869E+02  0.52410672869E+02  0.00000000000E+00 0.  1.
         23    2    1    2    0    0 -0.49711422880E+02  0.10317831917E+03  0.31912589315E+03  0.35107292858E+03  0.91070710950E+02 0.  0.
         23    2    1    2    0    0  0.71457793326E+02 -0.10031515855E+03  0.18326866306E+03  0.23885913597E+03  0.91087522282E+02 0.  0.
        -13    1    3    3    0    0 -0.24836256601E+01  0.24466912476E+02  0.67684234086E+01  0.25507053102E+02  0.00000000000E+00 0.  1.
         13    1    3    3    0    0 -0.47227797220E+02  0.78711406699E+02  0.31235746974E+03  0.32556587548E+03  0.00000000000E+00 0. -1.
        -13    1    4    4    0    0  0.85603297252E+02 -0.56141291946E+02  0.97606332106E+02  0.14144527291E+03  0.00000000000E+00 0.  1.
         13    1    4    4    0    0 -0.14145503925E+02 -0.44173866606E+02  0.85662330949E+02  0.97413863058E+02  0.00000000000E+00 0. -1.
          2    1    1    2  501    0 -0.21746370447E+02 -0.28631606228E+01  0.52757752025E+01  0.22559612593E+02  0.00000000000E+00 0. -1.
<scales pt_clust_5="13000.00000" pt_clust_6="13000.00000" pt_clust_7="13000.00000" pt_clust_8="13000.00000" pt_clust_9="21.93404"></scales>
<clustering>
<clus scale="   21.934">  2  9  1 -1</clus>
<clus scale="   91.071">  5  6 -1 -1</clus>
<clus scale="   91.088">  7  8 -1 -1</clus>
<clus scale="  148.487">  1  5  2 -1</clus>
<clus scale="   21.934">  2  5  1 -1</clus>
</clustering>
</event>
<event>
 9    1  0.1445593E-005  0.1232970E+03  0.7546771E-02  0.1238505E+00
          3   -1    0    0  502    0 -0.00000000000E+00  0.00000000000E+00  0.81062196719E+02  0.81062196719E+02  0.00000000000E+00 0. -1.
         21   -1    0    0  501  502  0.00000000000E+00 -0.00000000000E+00 -0.26955586600E+03  0.26955586600E+03  0.00000000000E+00 0.  1.
         23    2    1    2    0    0 -0.44183056833E+02  0.64555321778E+02 -0.32178113054E+02  0.12641566871E+03  0.93946571271E+02 0.  0.
         23    2    1    2    0    0  0.28841522547E+02 -0.78669236735E+02 -0.86222926248E+02  0.15107550397E+03  0.91480777536E+02 0.  0.
        -11    1    4    4    0    0 -0.12230348247E+00 -0.89921500686E+02 -0.77736085205E+02  0.11886458761E+03  0.00000000000E+00 0.  1.
         11    1    4    4    0    0  0.28963826030E+02  0.11252263951E+02 -0.84868410434E+01  0.32210916367E+02  0.00000000000E+00 0. -1.
        -13    1    3    3    0    0 -0.32309714333E+02  0.31427206355E+02 -0.64463295466E+02  0.78658142629E+02  0.00000000000E+00 0.  1.
         13    1    3    3    0    0 -0.11873342500E+02  0.33128115423E+02  0.32285182412E+02  0.47757526077E+02  0.00000000000E+00 0. -1.
          3    1    1    2  501    0  0.15341534286E+02  0.14113914957E+02 -0.70092629982E+02  0.73126890044E+02  0.00000000000E+00 0. -1.
<scales pt_clust_5="13000.00000" pt_clust_6="13000.00000" pt_clust_7="13000.00000" pt_clust_8="13000.00000" pt_clust_9="20.84623"></scales>
<clustering>
<clus scale="   20.846">  2  9  1 -1</clus>
<clus scale="   91.481">  5  6 -1 -1</clus>
<clus scale="   93.947">  7  8 -1 -1</clus>
<clus scale="  121.429">  2  5  1 -1</clus>
<clus scale="   20.846">  2  5  1 -1</clus>
</clustering>
</event>
<event>
 9    1  0.1445593E-005  0.1042441E+03  0.7546771E-02  0.1271638E+00
          2   -1    0    0  502    0 -0.00000000000E+00  0.00000000000E+00  0.16022487987E+03  0.16022487987E+03  0.00000000000E+00 0. -1.
         21   -1    0    0  501  502  0.00000000000E+00 -0.00000000000E+00 -0.97770318758E+02  0.97770318758E+02  0.00000000000E+00 0.  1.
         23    2    1    2    0    0 -0.39217558072E+02 -0.21473157939E+02  0.79603787686E+02  0.13305418117E+03  0.96786046209E+02 0.  0.
         23    2    1    2    0    0  0.27531002807E+02  0.15939462191E+01 -0.13190374518E+02  0.10154377099E+03  0.96833127937E+02 0.  0.
        -13    1    4    4    0    0  0.17098128024E+02  0.39211474088E+02 -0.36365296986E+02  0.56145529714E+02  0.00000000000E+00 0.  1.
         13    1    4    4    0    0  0.10432874783E+02 -0.37617527869E+02  0.23174922468E+02  0.45398241272E+02  0.00000000000E+00 0. -1.
        -13    1    3    3    0    0 -0.51739004655E+02 -0.42681424793E+02  0.84561040292E+02  0.10793145121E+03  0.00000000000E+00 0. -1.
         13    1    3    3    0    0  0.12521446583E+02  0.21208266853E+02 -0.49572526063E+01  0.25122729964E+02  0.00000000000E+00 0.  1.
          2    1    1    2  501    0  0.11686555265E+02  0.19879211720E+02 -0.39588520578E+01  0.23397246466E+02  0.00000000000E+00 0. -1.
<scales pt_clust_5="13000.00000" pt_clust_6="13000.00000" pt_clust_7="13000.00000" pt_clust_8="13000.00000" pt_clust_9="23.05989"></scales>
<clustering>
<clus scale="   23.060">  2  9  1 -1</clus>
<clus scale="   96.786">  7  8 -1 -1</clus>
<clus scale="   96.833">  5  6 -1 -1</clus>
<clus scale="  104.200">  1  7  2 -1</clus>
<clus scale="   23.060">  2  5  1 -1</clus>
</clustering>
</event>
<event>
 9    1  0.1445593E-005  0.1037728E+03  0.7546771E-02  0.1272888E+00
         21   -1    0    0  501  502  0.00000000000E+00  0.00000000000E+00  0.34651243944E+03  0.34651243944E+03  0.00000000000E+00 0. -1.
          1   -1    0    0  502    0 -0.00000000000E+00 -0.00000000000E+00 -0.13521496370E+03  0.13521496370E+03  0.00000000000E+00 0. -1.
         23    2    1    2    0    0  0.18079567624E+02  0.18820084273E+02 -0.16113939020E+02  0.96971460931E+02  0.91993145760E+02 0.  0.
         23    2    1    2    0    0 -0.23805583070E+02 -0.71068227656E+02 -0.30161948861E+02  0.12187442254E+03  0.91248194189E+02 0.  0.
        -13    1    4    4    0    0 -0.42665008429E+02 -0.52394018231E+02 -0.53771161024E+02  0.86352613443E+02  0.00000000000E+00 0. -1.
         13    1    4    4    0    0  0.18859425359E+02 -0.18674209425E+02  0.23609212163E+02  0.35521809096E+02  0.00000000000E+00 0.  1.
        -13    1    3    3    0    0  0.52965755593E+02  0.25550778274E+02 -0.23018156311E+01  0.58851609078E+02  0.00000000000E+00 0.  1.
         13    1    3    3    0    0 -0.34886187969E+02 -0.67306940011E+01 -0.13812123389E+02  0.38119851852E+02  0.00000000000E+00 0. -1.
          1    1    1    2  501    0  0.57260154458E+01  0.52248143384E+02  0.25757336362E+03  0.26288151968E+03  0.00000000000E+00 0. -1.
<scales pt_clust_5="13000.00000" pt_clust_6="13000.00000" pt_clust_7="13000.00000" pt_clust_8="13000.00000" pt_clust_9="52.56097"></scales>
<clustering>
<clus scale="   52.561">  1  9  2 -1</clus>
<clus scale="   91.248">  5  6 -1 -1</clus>
<clus scale="   91.993">  7  8 -1 -1</clus>
<clus scale="  103.113">  1  5  2 -1</clus>
<clus scale="   52.561">  1  5  2 -1</clus>
</clustering>
</event>
<event>
 9    1  0.1445593E-005  0.1123047E+03  0.7546771E-02  0.1260482E+00
         21   -1    0    0  501  502  0.00000000000E+00  0.00000000000E+00  0.46717701165E+02  0.46717701165E+02  0.00000000000E+00 0.  1.
         -1   -1    0    0    0  501 -0.00000000000E+00 -0.00000000000E+00 -0.55045096065E+03  0.55045096065E+03  0.00000000000E+00 0.  1.
         23    2    1    2    0    0 -0.32481231794E+02  0.52120274953E+02 -0.25406361650E+03  0.27432895621E+03  0.83285662080E+02 0.  0.
         23    2    1    2    0    0  0.72624805137E+01 -0.64589515642E+02 -0.26657030924E+03  0.29002050543E+03  0.93955386477E+02 0.  0.
        -11    1    3    3    0    0  0.16223373579E+02  0.46510129845E+02 -0.84389164638E+02  0.97713464460E+02  0.00000000000E+00 0. -1.
         11    1    3    3    0    0 -0.48704605373E+02  0.56101451077E+01 -0.16967445186E+03  0.17661549175E+03  0.00000000000E+00 0.  1.
        -13    1    4    4    0    0 -0.22969164414E+02  0.93261042830E+01 -0.23465158842E+02  0.34134621932E+02  0.00000000000E+00 0. -1.
         13    1    4    4    0    0  0.30231644928E+02 -0.73915619925E+02 -0.24310515040E+03  0.25588588350E+03  0.00000000000E+00 0.  1.
         -1    1    1    2    0  502  0.25218751281E+02  0.12469240689E+02  0.16900666259E+02  0.32819200166E+02  0.00000000000E+00 0.  1.
<scales pt_clust_5="13000.00000" pt_clust_6="13000.00000" pt_clust_7="13000.00000" pt_clust_8="13000.00000" pt_clust_9="28.13303"></scales>
<clustering>
<clus scale="   28.133">  1  9  2 -1</clus>
<clus scale="   83.286">  5  6 -1 -1</clus>
<clus scale="   93.955">  7  8 -1 -1</clus>
<clus scale="  103.543">  2  5  1 -1</clus>
<clus scale="   28.133">  1  5  2 -1</clus>
</clustering>
</event>
<event>
 9    1  0.1445593E-005  0.9483527E+02  0.7546771E-02  0.1293527E+00
          1   -1    0    0  502    0 -0.00000000000E+00  0.00000000000E+00  0.69230377952E+02  0.69230377952E+02  0.00000000000E+00 0. -1.
         21   -1    0    0  501  502  0.00000000000E+00 -0.00000000000E+00 -0.28785555856E+03  0.28785555856E+03  0.00000000000E+00 0.  1.
         23    2    1    2    0    0  0.69728194209E+01 -0.14672611785E+02 -0.36060108658E+02  0.10269983491E+03  0.94778789331E+02 0.  0.
         23    2    1    2    0    0  0.20476070384E+02 -0.28151241328E+02 -0.17830825775E+03  0.20334254751E+03  0.91337807061E+02 0.  0.
        -11    1    3    3    0    0 -0.37853119994E+02 -0.20746570525E+02 -0.37877049261E+02  0.57427778492E+02  0.00000000000E+00 0. -1.
         11    1    3    3    0    0  0.44825939415E+02  0.60739587407E+01  0.18169406027E+01  0.45272056419E+02  0.00000000000E+00 0.  1.
        -11    1    4    4    0    0 -0.99996036198E+01 -0.43033095638E+02 -0.15744047997E+03  0.16352169313E+03  0.00000000000E+00 0.  1.
         11    1    4    4    0    0  0.30475674004E+02  0.14881854310E+02 -0.20867777785E+02  0.39820854378E+02  0.00000000000E+00 0. -1.
          1    1    1    2  501    0 -0.27448889805E+02  0.42823853113E+02 -0.42568141960E+01  0.51043554089E+02  0.00000000000E+00 0. -1.
<scales pt_clust_5="13000.00000" pt_clust_6="13000.00000" pt_clust_7="13000.00000" pt_clust_8="13000.00000" pt_clust_9="50.86577"></scales>
<clustering>
<clus scale="   50.866">  2  9  1 -1</clus>
<clus scale="   91.338">  7  8 -1 -1</clus>
<clus scale="   91.396">  2  7  1 -1</clus>
<clus scale="   94.779">  5  6 -1 -1</clus>
<clus scale="   50.866">  2  5  1 -1</clus>
</clustering>
</event>
<event>
 9    1  0.1445593E-005  0.2408357E+03  0.7546771E-02  0.1119311E+00
          2   -1    0    0  502    0 -0.00000000000E+00  0.00000000000E+00  0.16607781874E+04  0.16607781874E+04  0.00000000000E+00 0. -1.
         21   -1    0    0  501  502  0.00000000000E+00 -0.00000000000E+00 -0.50176228017E+02  0.50176228017E+02  0.00000000000E+00 0.  1.
         23    2    1    2    0    0  0.20028514319E+03 -0.81030012371E+02  0.94731922087E+03  0.97589895326E+03  0.91022300813E+02 0.  0.
         23    2    1    2    0    0 -0.22335973412E+03  0.71334278547E+02  0.66412875117E+03  0.71001230462E+03  0.89846115371E+02 0.  0.
        -11    1    3    3    0    0  0.17188801194E+03 -0.75533945902E+02  0.90729285666E+03  0.92651561960E+03  0.00000000000E+00 0. -1.
         11    1    3    3    0    0  0.28397131258E+02 -0.54960664695E+01  0.40026364215E+02  0.49383333652E+02  0.00000000000E+00 0.  1.
        -13    1    4    4    0    0 -0.13468776217E+03  0.19020038478E+02  0.48170234971E+03  0.50053941788E+03  0.00000000000E+00 0.  1.
         13    1    4    4    0    0 -0.88671971952E+02  0.52314240069E+02  0.18242640147E+03  0.20947288673E+03  0.00000000000E+00 0. -1.
          2    1    1    2  501    0  0.23074590931E+02  0.96957338243E+01 -0.84601268822E+00  0.25043157519E+02  0.00000000000E+00 0. -1.
<scales pt_clust_5="13000.00000" pt_clust_6="13000.00000" pt_clust_7="13000.00000" pt_clust_8="13000.00000" pt_clust_9="25.02886"></scales>
<clustering>
<clus scale="   25.029">  2  9  1 -1</clus>
<clus scale="   89.846">  7  8 -1 -1</clus>
<clus scale="   91.022">  5  6 -1 -1</clus>
<clus scale="  240.394">  2  7  1 -1</clus>
<clus scale="   25.029">  2  5  1 -1</clus>
</clustering>
</event>
<event>
 9    1  0.1445593E-005  0.1315655E+03  0.7546771E-02  0.1242243E+00
          2   -1    0    0  502    0 -0.00000000000E+00  0.00000000000E+00  0.76021081233E+03  0.76021081233E+03  0.00000000000E+00 0. -1.
         21   -1    0    0  501  502  0.00000000000E+00 -0.00000000000E+00 -0.41187169224E+02  0.41187169224E+02  0.00000000000E+00 0.  1.
         23    2    1    2    0    0 -0.17110244357E+02  0.10159413374E+02  0.10017639231E+03  0.13644599876E+03  0.90477769971E+02 0.  0.
         23    2    1    2    0    0 -0.72981163166E+02  0.38248987317E+02  0.46249745429E+03  0.47812293303E+03  0.88929234000E+02 0.  0.
        -11    1    4    4    0    0 -0.92574437634E+02  0.21046628840E+02  0.37430938276E+03  0.38616123719E+03  0.00000000000E+00 0.  1.
         11    1    4    4    0    0  0.19593274468E+02  0.17202358477E+02  0.88188071531E+02  0.91961695841E+02  0.00000000000E+00 0. -1.
        -13    1    3    3    0    0  0.30329494979E+02 -0.36823808834E+01  0.75654168564E+01  0.31474969847E+02  0.00000000000E+00 0.  1.
         13    1    3    3    0    0 -0.47439739336E+02  0.13841794258E+02  0.92610975449E+02  0.10497102891E+03  0.00000000000E+00 0. -1.
          2    1    1    2  501    0  0.90091407523E+02 -0.48408400692E+02  0.15634979651E+03  0.18682904976E+03  0.00000000000E+00 0. -1.
<scales pt_clust_5="13000.00000" pt_clust_6="13000.00000" pt_clust_7="13000.00000" pt_clust_8="13000.00000" pt_clust_9="96.95913"></scales>
<clustering>
<clus scale="   88.929">  5  6 -1 -1</clus>
<clus scale="   90.478">  7  8 -1 -1</clus>
<clus scale="   92.640">  1  7  2 -1</clus>
<clus scale="   96.959">  2  9  1 -1</clus>
<clus scale="   96.959">  2  5  1 -1</clus>
</clustering>
</event>
<event>
 9    1  0.1445593E-005  0.3250507E+03  0.7546771E-02  0.1073451E+00
         21   -1    0    0  501  502  0.00000000000E+00  0.00000000000E+00  0.12286073856E+03  0.12286073856E+03  0.00000000000E+00 0. -1.
         -1   -1    0    0    0  501 -0.00000000000E+00 -0.00000000000E+00 -0.11195672943E+04  0.11195672943E+04  0.00000000000E+00 0.  1.
         23    2    1    2    0    0 -0.30210892059E+03  0.42106817311E+02 -0.67282883422E+03  0.74461107867E+03  0.93296486325E+02 0.  0.
         23    2    1    2    0    0  0.32511830672E+03 -0.13991175324E+02 -0.31162694097E+03  0.45947633869E+03  0.90052701971E+02 0.  0.
        -11    1    4    4    0    0  0.87206223746E+02  0.36187904619E+02 -0.82525760360E+02  0.12539932625E+03  0.00000000000E+00 0.  1.
         11    1    4    4    0    0  0.23791208297E+03 -0.50179079942E+02 -0.22910118061E+03  0.33407701244E+03  0.00000000000E+00 0. -1.
        -13    1    3    3    0    0 -0.14090900137E+03  0.65681383927E+02 -0.30578464935E+03  0.34303592033E+03  0.00000000000E+00 0. -1.
         13    1    3    3    0    0 -0.16119991922E+03 -0.23574566615E+02 -0.36704418487E+03  0.40157515834E+03  0.00000000000E+00 0.  1.
         -1    1    1    2    0  502 -0.23009386130E+02 -0.28115641988E+02 -0.12250780604E+02  0.38340615538E+02  0.00000000000E+00 0.  1.
<scales pt_clust_5="13000.00000" pt_clust_6="13000.00000" pt_clust_7="13000.00000" pt_clust_8="13000.00000" pt_clust_9="36.33072"></scales>
<clustering>
<clus scale="   36.331">  1  9  2 -1</clus>
<clus scale="   90.053">  5  6 -1 -1</clus>
<clus scale="   93.296">  7  8 -1 -1</clus>
<clus scale="  324.135">  1  5  2 -1</clus>
<clus scale="   36.331">  1  5  2 -1</clus>
</clustering>
</event>
<event>
 9    1  0.1445593E-005  0.1490509E+03  0.7546771E-02  0.1203703E+00
         21   -1    0    0  501  502  0.00000000000E+00  0.00000000000E+00  0.16881685959E+03  0.16881685959E+03  0.00000000000E+00 0. -1.
         -1   -1    0    0    0  501 -0.00000000000E+00 -0.00000000000E+00 -0.24881009387E+03  0.24881009387E+03  0.00000000000E+00 0.  1.
         23    2    1    2    0    0  0.91444672418E+02  0.23041178699E+02 -0.78761225658E+02  0.15668300278E+03  0.97227612665E+02 0.  0.
         23    2    1    2    0    0 -0.16306125803E+03 -0.88998285801E+01  0.16733314215E+02  0.18576638793E+03  0.86953816826E+02 0.  0.
        -11    1    3    3    0    0  0.91034721921E+02 -0.89393260743E+01 -0.84099262320E+02  0.12425746685E+03  0.00000000000E+00 0. -1.
         11    1    3    3    0    0  0.40995049703E+00  0.31980504773E+02  0.53380366620E+01  0.32425535930E+02  0.00000000000E+00 0.  1.
        -13    1    4    4    0    0 -0.14821479982E+03 -0.26840280085E+02 -0.92075179349E+01  0.15090661320E+03  0.00000000000E+00 0.  1.
         13    1    4    4    0    0 -0.14846458209E+02  0.17940451505E+02  0.25940832150E+02  0.34859774729E+02  0.00000000000E+00 0. -1.
         -1    1    1    2    0  502  0.71616585609E+02 -0.14141350119E+02 -0.17965322834E+02  0.75177562756E+02  0.00000000000E+00 0.  1.
<scales pt_clust_5="13000.00000" pt_clust_6="13000.00000" pt_clust_7="13000.00000" pt_clust_8="13000.00000" pt_clust_9="72.99944"></scales>
<clustering>
<clus scale="   72.999">  1  9  2 -1</clus>
<clus scale="   86.954">  7  8 -1 -1</clus>
<clus scale="   97.228">  5  6 -1 -1</clus>
<clus scale="  142.562">  1  7  2 -1</clus>
<clus scale="   72.999">  1  5  2 -1</clus>
</clustering>
</event>
<event>
 9    1  0.1445593E-005  0.9379864E+02  0.7546771E-02  0.1296904E+00
         -2   -1    0    0    0  501 -0.00000000000E+00  0.00000000000E+00  0.46141086250E+03  0.46141086250E+03  0.00000000000E+00 0.  1.
         21   -1    0    0  501  502  0.00000000000E+00 -0.00000000000E+00 -0.11396982066E+03  0.11396982066E+03  0.00000000000E+00 0.  1.
         23    2    1    2    0    0  0.94906192836E+01 -0.13555818472E+02  0.39995317166E+03  0.41081188499E+03  0.92358179147E+02 0.  0.
         23    2    1    2    0    0  0.23497844967E+02  0.29349642354E+02  0.64630559392E+01  0.95173148573E+02  0.87192929145E+02 0.  0.
        -11    1    4    4    0    0  0.55365305040E+02  0.14221033794E+02  0.14542856658E+02  0.58983467888E+02  0.00000000000E+00 0.  1.
         11    1    4    4    0    0 -0.31867460073E+02  0.15128608560E+02 -0.80798007185E+01  0.36189680685E+02  0.00000000000E+00 0. -1.
        -13    1    3    3    0    0 -0.31256400372E+02  0.21525141142E+02  0.20971781597E+03  0.21312404041E+03  0.00000000000E+00 0. -1.
         13    1    3    3    0    0  0.40747019656E+02 -0.35080959614E+02  0.19023535569E+03  0.19768784458E+03  0.00000000000E+00 0.  1.
         -2    1    1    2    0  502 -0.32988464251E+02 -0.15793823882E+02 -0.58975185770E+02  0.69395649598E+02  0.00000000000E+00 0.  1.
<scales pt_clust_5="13000.00000" pt_clust_6="13000.00000" pt_clust_7="13000.00000" pt_clust_8="13000.00000" pt_clust_9="36.57436"></scales>
<clustering>
<clus scale="   36.574">  2  9  1 -1</clus>
<clus scale="   87.193">  5  6 -1 -1</clus>
<clus scale="   88.717">  2  5  1 -1</clus>
<clus scale="   92.358">  7  8 -1 -1</clus>
<clus scale="   36.574">  2  5  1 -1</clus>
</clustering>
</event>
<event>
 9    1  0.1445593E-005  0.1509935E+03  0.7546771E-02  0.1205750E+00
          1   -1    0    0  502    0 -0.00000000000E+00  0.00000000000E+00  0.64035199433E+03  0.64035199433E+03  0.00000000000E+00 0. -1.
         21   -1    0    0  501  502  0.00000000000E+00 -0.00000000000E+00 -0.17727879518E+03  0.17727879518E+03  0.00000000000E+00 0. -1.
         23    2    1    2    0    0  0.76015023756E+02  0.27771401433E+02  0.29551385028E+03  0.31914843993E+03  0.89318287183E+02 0.  0.
         23    2    1    2    0    0 -0.87793090356E+02 -0.11191617062E+03  0.29364562617E+03  0.34644020294E+03  0.11644829102E+03 0.  0.
        -11    1    4    4    0    0 -0.56556432385E+02 -0.28398494208E+01  0.42332252848E+02  0.70701587111E+02  0.00000000000E+00 0.  1.
         11    1    4    4    0    0 -0.31236657972E+02 -0.10907632120E+03  0.25131337332E+03  0.27573861583E+03  0.00000000000E+00 0. -1.
        -13    1    3    3    0    0  0.60599078544E+02 -0.24927022906E+02  0.16712785489E+03  0.17951413502E+03  0.00000000000E+00 0. -1.
         13    1    3    3    0    0  0.15415945213E+02  0.52698424338E+02  0.12838599539E+03  0.13963430491E+03  0.00000000000E+00 0.  1.
          1    1    1    2  501    0  0.11778066600E+02  0.84144769191E+02 -0.12608627730E+03  0.15204214665E+03  0.00000000000E+00 0. -1.
<scales pt_clust_5="13000.00000" pt_clust_6="13000.00000" pt_clust_7="13000.00000" pt_clust_8="13000.00000" pt_clust_9="84.96508"></scales>
<clustering>
<clus scale="   84.965">  2  9  1 -1</clus>
<clus scale="   89.318">  7  8 -1 -1</clus>
<clus scale="  116.448">  5  6 -1 -1</clus>
<clus scale="  131.212">  1  7  2 -1</clus>
<clus scale="   84.965">  2  5  1 -1</clus>
</clustering>
</event>
<event>
 9    1  0.1445593E-005  0.2745939E+03  0.7546771E-02  0.1127002E+00
          2   -1    0    0  502    0 -0.00000000000E+00  0.00000000000E+00  0.37280097507E+03  0.37280097507E+03  0.00000000000E+00 0. -1.
         21   -1    0    0  501  502  0.00000000000E+00 -0.00000000000E+00 -0.12889693213E+04  0.12889693213E+04  0.00000000000E+00 0. -1.
         23    2    1    2    0    0 -0.81596056675E+02  0.53784951750E+02 -0.17559085886E+02  0.13509794343E+03  0.91610017592E+02 0.  0.
         23    2    1    2    0    0  0.21671410401E+03 -0.26969161308E+03  0.19239291183E+03  0.40633387157E+03  0.91616666729E+02 0.  0.
        -13    1    4    4    0    0  0.10634711613E+03 -0.19394542773E+03  0.94661304699E+02  0.24059364217E+03  0.00000000000E+00 0. -1.
         13    1    4    4    0    0  0.11036698788E+03 -0.75746185345E+02  0.97731607136E+02  0.16574022940E+03  0.00000000000E+00 0.  1.
        -13    1    3    3    0    0 -0.89767952282E+02  0.23052717974E+02 -0.34710505790E+02  0.98967329332E+02  0.00000000000E+00 0.  1.
         13    1    3    3    0    0  0.81718956072E+01  0.30732233776E+02  0.17151419903E+02  0.36130614102E+02  0.00000000000E+00 0. -1.
          2    1    1    2  501    0 -0.13511804734E+03  0.21590666133E+03 -0.10910021721E+04  0.11203384813E+04  0.00000000000E+00 0. -1.
<scales pt_clust_5="13000.00000" pt_clust_6="13000.00000" pt_clust_7="13000.00000" pt_clust_8="13000.00000" pt_clust_9="258.85938"></scales>
<clustering>
<clus scale="   91.610">  7  8 -1 -1</clus>
<clus scale="   91.617">  5  6 -1 -1</clus>
<clus scale="  133.952">  1  7  2 -1</clus>
<clus scale="  258.859">  2  9  1 -1</clus>
<clus scale="  258.859">  2  5  1 -1</clus>
</clustering>
</event>
<event>
 9    1  0.1445593E-005  0.1084608E+03  0.7546771E-02  0.1263568E+00
          2   -1    0    0  502    0 -0.00000000000E+00  0.00000000000E+00  0.20335267383E+03  0.20335267383E+03  0.00000000000E+00 0. -1.
         21   -1    0    0  501  502  0.00000000000E+00 -0.00000000000E+00 -0.11814444114E+03  0.11814444114E+03  0.00000000000E+00 0. -1.
         23    2    1    2    0    0  0.20704277301E+02  0.90935357009E+02  0.83112694670E+02  0.15332835827E+03  0.88904213514E+02 0.  0.
         23    2    1    2    0    0  0.51297758200E+01 -0.19264526131E+02 -0.56630818477E+01  0.91590022829E+02  0.89214489960E+02 0.  0.
        -11    1    4    4    0    0  0.43289874094E+02 -0.12042002415E+01  0.13308142531E+02  0.45305297206E+02  0.00000000000E+00 0. -1.
         11    1    4    4    0    0 -0.38160098274E+02 -0.18060325890E+02 -0.18971224379E+02  0.46284725623E+02  0.00000000000E+00 0.  1.
        -13    1    3    3    0    0  0.34484161003E+02 -0.78294214168E+00  0.33770232536E+02  0.48272134447E+02  0.00000000000E+00 0.  1.
         13    1    3    3    0    0 -0.13779883702E+02  0.91718299151E+02  0.49342462134E+02  0.10505622382E+03  0.00000000000E+00 0. -1.
          2    1    1    2  501    0 -0.25834053121E+02 -0.71670830878E+02  0.77586198717E+01  0.76578733874E+02  0.00000000000E+00 0. -1.
<scales pt_clust_5="13000.00000" pt_clust_6="13000.00000" pt_clust_7="13000.00000" pt_clust_8="13000.00000" pt_clust_9="76.18469"></scales>
<clustering>
<clus scale="   76.185">  2  9  1 -1</clus>
<clus scale="   88.904">  7  8 -1 -1</clus>
<clus scale="   89.214">  5  6 -1 -1</clus>
<clus scale="  108.206">  1  7  2 -1</clus>
<clus scale="   76.185">  2  5  1 -1</clus>
</clustering>
</event>
<event>
 9    1  0.1445593E-005  0.9479809E+02  0.7546771E-02  0.1292236E+00
          3   -1    0    0  502    0 -0.00000000000E+00  0.00000000000E+00  0.15095821078E+03  0.15095821078E+03  0.00000000000E+00 0. -1.
         21   -1    0    0  501  502  0.00000000000E+00 -0.00000000000E+00 -0.10493711178E+03  0.10493711178E+03  0.00000000000E+00 0.  1.
         23    2    1    2    0    0 -0.13257978753E+02 -0.18448379097E+02  0.79755957340E+02  0.12473945001E+03  0.93181548413E+02 0.  0.
         23    2    1    2    0    0 -0.17361254777E+02  0.12644787325E+02 -0.18089731506E+02  0.96284836825E+02  0.92099009780E+02 0.  0.
        -11    1    4    4    0    0  0.51395432798E+01  0.38084891402E+02  0.21570314690E+02  0.44069857432E+02  0.00000000000E+00 0. -1.
         11    1    4    4    0    0 -0.22500798057E+02 -0.25440104077E+02 -0.39660046197E+02  0.52214979393E+02  0.00000000000E+00 0.  1.
        -13    1    3    3    0    0 -0.30882737433E+02 -0.28251228594E+02 -0.63213138228E+00  0.41860183689E+02  0.00000000000E+00 0.  1.
         13    1    3    3    0    0  0.17624758680E+02  0.98028494967E+01  0.80388088723E+02  0.82879266317E+02  0.00000000000E+00 0. -1.
          3    1    1    2  501    0  0.30619233530E+02  0.58035917724E+01 -0.15645126828E+02  0.34871035731E+02  0.00000000000E+00 0. -1.
<scales pt_clust_5="13000.00000" pt_clust_6="13000.00000" pt_clust_7="13000.00000" pt_clust_8="13000.00000" pt_clust_9="31.16439"></scales>
<clustering>
<clus scale="   31.164">  2  9  1 -1</clus>
<clus scale="   92.099">  5  6 -1 -1</clus>
<clus scale="   93.182">  7  8 -1 -1</clus>
<clus scale="   93.734">  2  5  1 -1</clus>
<clus scale="   31.164">  2  5  1 -1</clus>
</clustering>
</event>
<event>
 9    1  0.1445593E-005  0.1275810E+03  0.7546771E-02  0.1232098E+00
         -2   -1    0    0    0  501 -0.00000000000E+00  0.00000000000E+00  0.75376195029E+02  0.75376195029E+02  0.00000000000E+00 0.  1.
         21   -1    0    0  501  502  0.00000000000E+00 -0.00000000000E+00 -0.31635978542E+03  0.31635978542E+03  0.00000000000E+00 0.  1.
         23    2    1    2    0    0  0.95501769521E+02 -0.45883056928E+02 -0.67130971960E+02  0.15374063145E+03  0.88903157796E+02 0.  0.
         23    2    1    2    0    0 -0.56116290293E+02  0.39281841560E+02 -0.93716541953E+02  0.14845997738E+03  0.92549843521E+02 0.  0.
        -11    1    4    4    0    0 -0.78720215722E+02  0.31625170483E+02 -0.49517556758E+02  0.98229385617E+02  0.00000000000E+00 0. -1.
         11    1    4    4    0    0  0.22603925428E+02  0.76566710769E+01 -0.44198985195E+02  0.50230591764E+02  0.00000000000E+00 0.  1.
        -13    1    3    3    0    0  0.44508405023E+01  0.21235730765E+02 -0.24829644027E+02  0.32973890653E+02  0.00000000000E+00 0. -1.
         13    1    3    3    0    0  0.91050929019E+02 -0.67118787694E+02 -0.42301327933E+02  0.12076674079E+03  0.00000000000E+00 0.  1.
         -2    1    1    2    0  502 -0.39385479228E+02  0.66012153688E+01 -0.80136076475E+02  0.89535371621E+02  0.00000000000E+00 0.  1.
<scales pt_clust_5="13000.00000" pt_clust_6="13000.00000" pt_clust_7="13000.00000" pt_clust_8="13000.00000" pt_clust_9="39.93485"></scales>
<clustering>
<clus scale="   39.935">  2  9  1 -1</clus>
<clus scale="   88.903">  7  8 -1 -1</clus>
<clus scale="   92.550">  5  6 -1 -1</clus>
<clus scale="  124.961">  1  7  2 -1</clus>
<clus scale="   39.935">  2  5  1 -1</clus>
</clustering>
</event>
<event>
 9    1  0.1445593E-005  0.1472752E+03  0.7546771E-02  0.1204723E+00
         -3   -1    0    0    0  501 -0.00000000000E+00  0.00000000000E+00  0.19670389417E+03  0.19670389417E+03  0.00000000000E+00 0.  1.
         21   -1    0    0  501  502  0.00000000000E+00 -0.00000000000E+00 -0.37879011040E+03  0.37879011040E+03  0.00000000000E+00 0. -1.
         23    2    1    2    0    0  0.10228017857E+03 -0.37401897485E+02  0.74023046197E+02  0.16238883007E+03  0.95029384407E+02 0.  0.
         23    2    1    2    0    0 -0.15415722009E+03 -0.79208193291E+02 -0.16954273315E+03  0.25888810443E+03  0.90774037368E+02 0.  0.
        -11    1    4    4    0    0 -0.12108929019E+02  0.16935495433E+02 -0.35677793247E+02  0.41307893901E+02  0.00000000000E+00 0.  1.
         11    1    4    4    0    0 -0.14204829107E+03 -0.96143688724E+02 -0.13386493990E+03  0.21758021053E+03  0.00000000000E+00 0. -1.
        -11    1    3    3    0    0  0.76487112781E+02  0.88140523596E+01  0.77634672752E+02  0.10933941812E+03  0.00000000000E+00 0.  1.
         11    1    3    3    0    0  0.25793065791E+02 -0.46215949844E+02 -0.36116265547E+01  0.53049411960E+02  0.00000000000E+00 0. -1.
         -3    1    1    2    0  502  0.51877041518E+02  0.11661009078E+03 -0.86566529277E+02  0.15421707006E+03  0.00000000000E+00 0.  1.
<scales pt_clust_5="13000.00000" pt_clust_6="13000.00000" pt_clust_7="13000.00000" pt_clust_8="13000.00000" pt_clust_9="127.62892"></scales>
<clustering>
<clus scale="   90.774">  5  6 -1 -1</clus>
<clus scale="   95.029">  7  8 -1 -1</clus>
<clus scale="  127.629">  2  9  1 -1</clus>
<clus scale="  144.566">  2  5  1 -1</clus>
<clus scale="  127.629">  2  5  1 -1</clus>
</clustering>
</event>
<event>
 9    1  0.2880889E-005  0.9656854E+02  0.7546771E-02  0.1288246E+00
          2   -1    0    0  502    0 -0.00000000000E+00  0.00000000000E+00  0.46486432950E+03  0.46486432950E+03  0.00000000000E+00 0. -1.
         21   -1    0    0  501  502  0.00000000000E+00 -0.00000000000E+00 -0.78662144674E+02  0.78662144674E+02  0.00000000000E+00 0.  1.
         23    2    1    2    0    0 -0.12966227894E+02 -0.27651186196E+02  0.33650183245E+03  0.35003776734E+03  0.91434370777E+02 0.  0.
         23    2    1    2    0    0  0.42618078883E+02  0.18789801269E+02 -0.31634580060E+02  0.10646498797E+03  0.90358672682E+02 0.  0.
        -11    1    3    3    0    0  0.69654941717E+01  0.28795003588E+02  0.57465626555E+02  0.64652676480E+02  0.00000000000E+00 0.  1.
         11    1    3    3    0    0 -0.19931722066E+02 -0.56446189784E+02  0.27903620590E+03  0.28538509086E+03  0.00000000000E+00 0. -1.
        -13    1    4    4    0    0  0.64814945692E+02 -0.59503523631E+01 -0.33445020035E+02  0.73177546034E+02  0.00000000000E+00 0.  1.
         13    1    4    4    0    0 -0.22196866809E+02  0.24740153632E+02  0.18104399750E+01  0.33287441938E+02  0.00000000000E+00 0. -1.
          2    1    1    2  501    0 -0.29651850989E+02  0.88613849272E+01  0.81334932438E+02  0.87023718862E+02  0.00000000000E+00 0. -1.
<scales pt_clust_5="13000.00000" pt_clust_6="13000.00000" pt_clust_7="13000.00000" pt_clust_8="13000.00000" pt_clust_9="30.94766"></scales>
<clustering>
<clus scale="   30.948">  2  9  1 -1</clus>
<clus scale="   90.359">  7  8 -1 -1</clus>
<clus scale="   91.434">  5  6 -1 -1</clus>
<clus scale="   95.551">  2  7  1 -1</clus>
<clus scale="   30.948">  2  5  1 -1</clus>
</clustering>
</event>
<event>
 9    1  0.1561243E-005  0.1625190E+03  0.7546771E-02  0.1186102E+00
          1   -1    0    0  502    0 -0.00000000000E+00  0.00000000000E+00  0.93094665269E+03  0.93094665269E+03  0.00000000000E+00 0. -1.
         21   -1    0    0  501  502  0.00000000000E+00 -0.00000000000E+00 -0.96435187779E+02  0.96435187779E+02  0.00000000000E+00 0. -1.
         23    2    1    2    0    0 -0.13780778326E+03  0.35111459417E+01  0.83716361204E+03  0.85344423587E+03  0.92308380638E+02 0.  0.
         23    2    1    2    0    0  0.10035508586E+03  0.38139263057E+01  0.21527691438E+01  0.13547400561E+03  0.90900398738E+02 0.  0.
        -11    1    3    3    0    0 -0.17193352240E+02 -0.35241435111E+02  0.19502927862E+03  0.19893212317E+03  0.00000000000E+00 0.  1.
         11    1    3    3    0    0 -0.12061443102E+03  0.38752581053E+02  0.64213433343E+03  0.65451211270E+03  0.00000000000E+00 0. -1.
        -13    1    4    4    0    0  0.84301548362E+02 -0.34859847416E+02 -0.10259160928E+02  0.91799838785E+02  0.00000000000E+00 0.  1.
         13    1    4    4    0    0  0.16053537494E+02  0.38673773722E+02  0.12411930072E+02  0.43674166827E+02  0.00000000000E+00 0. -1.
          1    1    1    2  501    0  0.37452697408E+02 -0.73250722474E+01 -0.48049162755E+01  0.38463598986E+02  0.00000000000E+00 0. -1.
<scales pt_clust_5="13000.00000" pt_clust_6="13000.00000" pt_clust_7="13000.00000" pt_clust_8="13000.00000" pt_clust_9="38.16230"></scales>
<clustering>
<clus scale="   38.162">  2  9  1 -1</clus>
<clus scale="   90.900">  7  8 -1 -1</clus>
<clus scale="   92.308">  5  6 -1 -1</clus>
<clus scale="  161.723">  2  7  1 -1</clus>
<clus scale="   38.162">  2  5  1 -1</clus>
</clustering>
</event>
<event>
 9    1  0.1445593E-005  0.1301310E+03  0.7546771E-02  0.1227854E+00
         21   -1    0    0  501  502  0.00000000000E+00  0.00000000000E+00  0.81217773429E+02  0.81217773429E+02  0.00000000000E+00 0. -1.
          3   -1    0    0  502    0 -0.00000000000E+00 -0.00000000000E+00 -0.28823068363E+03  0.28823068363E+03  0.00000000000E+00 0. -1.
         23    2    1    2    0    0 -0.85280927843E+02 -0.23066016531E+02 -0.14876779387E+03  0.19484752662E+03  0.89603707316E+02 0.  0.
         23    2    1    2    0    0  0.10756941518E+03  0.14666575805E+02 -0.41044039445E+02  0.14522059146E+03  0.87281839371E+02 0.  0.
        -11    1    3    3    0    0 -0.51680368115E+02 -0.12202039330E+02 -0.15039764372E+03  0.15949671297E+03  0.00000000000E+00 0. -1.
         11    1    3    3    0    0 -0.33600559729E+02 -0.10863977200E+02  0.16298498565E+01  0.35350813643E+02  0.00000000000E+00 0.  1.
        -13    1    4    4    0    0  0.19208309365E+02  0.31139052261E+02 -0.41514666120E+02  0.55335948780E+02  0.00000000000E+00 0.  1.
         13    1    4    4    0    0  0.88361105813E+02 -0.16472476456E+02  0.47062667495E+00  0.89884642684E+02  0.00000000000E+00 0. -1.
          3    1    1    2  501    0 -0.22288487334E+02  0.83994407261E+01 -0.17201076889E+02  0.29380338975E+02  0.00000000000E+00 0. -1.
<scales pt_clust_5="13000.00000" pt_clust_6="13000.00000" pt_clust_7="13000.00000" pt_clust_8="13000.00000" pt_clust_9="23.81864"></scales>
<clustering>
<clus scale="   23.819">  1  9  2 -1</clus>
<clus scale="   87.282">  7  8 -1 -1</clus>
<clus scale="   89.604">  5  6 -1 -1</clus>
<clus scale="  128.543">  1  7  2 -1</clus>
<clus scale="   23.819">  1  5  2 -1</clus>
</clustering>
</event>
<event>
 9    1  0.1445593E-005  0.3056071E+03  0.7546771E-02  0.1114206E+00
         21   -1    0    0  501  502  0.00000000000E+00  0.00000000000E+00  0.23851248438E+03  0.23851248438E+03  0.00000000000E+00 0. -1.
          1   -1    0    0  502    0 -0.00000000000E+00 -0.00000000000E+00 -0.76028744808E+03  0.76028744808E+03  0.00000000000E+00 0. -1.
         23    2    1    2    0    0  0.16628169756E+02  0.95135312683E+02 -0.21773727469E+03  0.25554721539E+03  0.92561518777E+02 0.  0.
         23    2    1    2    0    0  0.19837664671E+03 -0.23650757075E+03  0.28356120911E+02  0.32289711602E+03  0.90384473004E+02 0.  0.
        -11    1    3    3    0    0 -0.20501733781E+02 -0.87331542638E+01 -0.25104443470E+02  0.33568171730E+02  0.00000000000E+00 0.  1.
         11    1    3    3    0    0  0.37129903537E+02  0.10386846695E+03 -0.19263283122E+03  0.22197904366E+03  0.00000000000E+00 0. -1.
        -13    1    4    4    0    0  0.16720704015E+03 -0.20700555771E+03  0.55890095983E+02  0.27190659798E+03  0.00000000000E+00 0. -1.
         13    1    4    4    0    0  0.31169606561E+02 -0.29502013043E+02 -0.27533975072E+02  0.50990518040E+02  0.00000000000E+00 0.  1.
          1    1    1    2  501    0 -0.21500481647E+03  0.14137225807E+03 -0.33239380992E+03  0.42035560104E+03  0.00000000000E+00 0. -1.
<scales pt_clust_5="13000.00000" pt_clust_6="13000.00000" pt_clust_7="13000.00000" pt_clust_8="13000.00000" pt_clust_9="291.93564"></scales>
<clustering>
<clus scale="   90.384">  7  8 -1 -1</clus>
<clus scale="   92.562">  5  6 -1 -1</clus>
<clus scale="  133.772">  2  5  1 -1</clus>
<clus scale="  291.936">  1  9  2 -1</clus>
<clus scale="  291.936">  1  5  2 -1</clus>
</clustering>
</event>
<event>
 9    1  0.1445593E-005  0.9822264E+02  0.7546771E-02  0.1284492E+00
         21   -1    0    0  501  502  0.00000000000E+00  0.00000000000E+00  0.15005741459E+03  0.15005741459E+03  0.00000000000E+00 0.  1.
         -1   -1    0    0    0  501 -0.00000000000E+00 -0.00000000000E+00 -0.18099910469E+03  0.18099910469E+03  0.00000000000E+00 0.  1.
         23    2    1    2    0    0 -0.28069188688E+02  0.24566825800E+02 -0.76641773370E+02  0.12431842305E+03  0.90496964590E+02 0.  0.
         23    2    1    2    0    0 -0.12672565476E+02 -0.48800897936E+02 -0.37608492498E+02  0.11088665085E+03  0.91319927041E+02 0.  0.
        -11    1    3    3    0    0 -0.47325109222E+02 -0.17124284090E+02 -0.28724807991E+02  0.57948439691E+02  0.00000000000E+00 0.  1.
         11    1    3    3    0    0  0.19255920534E+02  0.41691109890E+02 -0.47916965379E+02  0.66369983355E+02  0.00000000000E+00 0. -1.
        -13    1    4    4    0    0 -0.34774408808E+02 -0.64081192102E+02 -0.41253982093E+02  0.83770816682E+02  0.00000000000E+00 0.  1.
         13    1    4    4    0    0  0.22101843332E+02  0.15280294166E+02  0.36454895954E+01  0.27115834172E+02  0.00000000000E+00 0. -1.
         -1    1    1    2    0  502  0.40741754165E+02  0.24234072135E+02  0.83308575770E+02  0.95851445380E+02  0.00000000000E+00 0.  1.
<scales pt_clust_5="13000.00000" pt_clust_6="13000.00000" pt_clust_7="13000.00000" pt_clust_8="13000.00000" pt_clust_9="47.40444"></scales>
<clustering>
<clus scale="   47.404">  1  9  2 -1</clus>
<clus scale="   90.497">  5  6 -1 -1</clus>
<clus scale="   91.320">  7  8 -1 -1</clus>
<clus scale="   97.458">  2  5  1 -1</clus>
<clus scale="   47.404">  1  5  2 -1</clus>
</clustering>
</event>
<event>
 9    1  0.1445593E-005  0.1062460E+03  0.7546771E-02  0.1270659E+00
         -3   -1    0    0    0  501 -0.00000000000E+00  0.00000000000E+00  0.41070289637E+03  0.41070289637E+03  0.00000000000E+00 0.  1.
         21   -1    0    0  501  502  0.00000000000E+00 -0.00000000000E+00 -0.37916772823E+02  0.37916772823E+02  0.00000000000E+00 0. -1.
         23    2    1    2    0    0 -0.54999978827E+02 -0.12587177352E+02  0.21399526135E+03  0.23921412715E+03  0.90807444859E+02 0.  0.
         23    2    1    2    0    0  0.20423584180E+02  0.14923446241E+02  0.12994143371E+03  0.16431369419E+03  0.97336436469E+02 0.  0.
        -11    1    3    3    0    0 -0.30380620519E+02 -0.51154908182E+02  0.14133645176E+03  0.15334862024E+03  0.00000000000E+00 0. -1.
         11    1    3    3    0    0 -0.24619358308E+02  0.38567730830E+02  0.72658809590E+02  0.85865506904E+02  0.00000000000E+00 0.  1.
        -13    1    4    4    0    0  0.18859304579E+02  0.56060646425E+02  0.70808748797E+02  0.92262388615E+02  0.00000000000E+00 0.  1.
         13    1    4    4    0    0  0.15642796009E+01 -0.41137200184E+02  0.59132684911E+02  0.72051305571E+02  0.00000000000E+00 0. -1.
         -3    1    1    2    0  502  0.34576394646E+02 -0.23362688887E+01  0.28849428484E+02  0.45091847855E+02  0.00000000000E+00 0.  1.
<scales pt_clust_5="13000.00000" pt_clust_6="13000.00000" pt_clust_7="13000.00000" pt_clust_8="13000.00000" pt_clust_9="34.65523"></scales>
<clustering>
<clus scale="   34.655">  2  9  1 -1</clus>
<clus scale="   90.807">  5  6 -1 -1</clus>
<clus scale="   97.336">  7  8 -1 -1</clus>
<clus scale="  100.299">  1  5  2 -1</clus>
<clus scale="   34.655">  2  5  1 -1</clus>
</clustering>
</event>
<event>
 9    1  0.1445593E-005  0.2729184E+03  0.7546771E-02  0.1142047E+00
          1   -1    0    0  502    0 -0.00000000000E+00  0.00000000000E+00  0.14229847156E+03  0.14229847156E+03  0.00000000000E+00 0. -1.
         21   -1    0    0  501  502  0.00000000000E+00 -0.00000000000E+00 -0.12775795743E+04  0.12775795743E+04  0.00000000000E+00 0. -1.
         23    2    1    2    0    0 -0.22031177591E+02  0.22765896803E+02  0.15367944713E+02  0.95811730302E+02  0.89106986793E+02 0.  0.
         23    2    1    2    0    0 -0.14867493491E+03  0.17807618005E+03 -0.15343132825E+03  0.29260070964E+03  0.90877063252E+02 0.  0.
        -11    1    4    4    0    0 -0.34725960951E+02  0.10084855907E+03 -0.38903072796E+02  0.11353313747E+03  0.00000000000E+00 0.  1.
         11    1    4    4    0    0 -0.11394897396E+03  0.77227620979E+02 -0.11452825546E+03  0.17906757218E+03  0.00000000000E+00 0. -1.
        -13    1    3    3    0    0 -0.36111642431E+02  0.50967103975E+02  0.15217335292E+02  0.64290463524E+02  0.00000000000E+00 0. -1.
         13    1    3    3    0    0  0.14080464840E+02 -0.28201207172E+02  0.15060942053E+00  0.31521266778E+02  0.00000000000E+00 0.  1.
          1    1    1    2  501    0  0.17070611250E+03 -0.20084207685E+03 -0.99721771921E+03  0.10314656059E+04  0.00000000000E+00 0. -1.
<scales pt_clust_5="13000.00000" pt_clust_6="13000.00000" pt_clust_7="13000.00000" pt_clust_8="13000.00000" pt_clust_9="257.34381"></scales>
<clustering>
<clus scale="   89.107">  7  8 -1 -1</clus>
<clus scale="   90.877">  5  6 -1 -1</clus>
<clus scale="   94.571">  1  7  2 -1</clus>
<clus scale="  257.344">  2  9  1 -1</clus>
<clus scale="  257.344">  2  5  1 -1</clus>
</clustering>
</event>
<event>
 9    1  0.1445593E-005  0.9829778E+02  0.7546771E-02  0.1286228E+00
         21   -1    0    0  501  502  0.00000000000E+00  0.00000000000E+00  0.39880588644E+03  0.39880588644E+03  0.00000000000E+00 0. -1.
          2   -1    0    0  502    0 -0.00000000000E+00 -0.00000000000E+00 -0.86158523371E+02  0.86158523371E+02  0.00000000000E+00 0. -1.
         23    2    1    2    0    0 -0.21804910197E+02  0.30516186699E+02 -0.33525173270E+02  0.10300309289E+03  0.89883302917E+02 0.  0.
         23    2    1    2    0    0 -0.13323723250E+02  0.11918350626E+02  0.14885323327E+03  0.17709643899E+03  0.94267146794E+02 0.  0.
        -13    1    3    3    0    0  0.13834128134E+02  0.50349994073E+02 -0.33827312121E+02  0.62215689739E+02  0.00000000000E+00 0. -1.
         13    1    3    3    0    0 -0.35639038331E+02 -0.19833807373E+02  0.30213885167E+00  0.40787403153E+02  0.00000000000E+00 0.  1.
        -13    1    4    4    0    0 -0.50637126372E+02  0.24171098700E+01  0.11557495537E+03  0.12620432361E+03  0.00000000000E+00 0. -1.
         13    1    4    4    0    0  0.37313403121E+02  0.95012407560E+01  0.33278277898E+02  0.50892115384E+02  0.00000000000E+00 0.  1.
          2    1    1    2  501    0  0.35128633447E+02 -0.42434537325E+02  0.19731930306E+03  0.20486487793E+03  0.00000000000E+00 0. -1.
<scales pt_clust_5="13000.00000" pt_clust_6="13000.00000" pt_clust_7="13000.00000" pt_clust_8="13000.00000" pt_clust_9="55.08821"></scales>
<clustering>
<clus scale="   55.088">  1  9  2 -1</clus>
<clus scale="   89.883">  5  6 -1 -1</clus>
<clus scale="   94.102">  2  5  1 -1</clus>
<clus scale="   94.267">  7  8 -1 -1</clus>
<clus scale="   55.088">  1  5  2 -1</clus>
</clustering>
</event>
<event>
 9    1  0.1445593E-005  0.1365110E+03  0.7546771E-02  0.1219304E+00
          2   -1    0    0  502    0 -0.00000000000E+00  0.00000000000E+00  0.48061169870E+03  0.48061169870E+03  0.00000000000E+00 0. -1.
         21   -1    0    0  501  502  0.00000000000E+00 -0.00000000000E+00 -0.12940815604E+03  0.12940815604E+03  0.00000000000E+00 0. -1.
         23    2    1    2    0    0  0.20705655390E+01  0.10108700254E+03  0.38082356253E+03  0.40330111569E+03  0.86036822426E+02 0.  0.
         23    2    1    2    0    0  0.52508938512E+02 -0.10474945603E+03 -0.32238126913E+02  0.15195387520E+03  0.91219768694E+02 0.  0.
        -11    1    4    4    0    0  0.31848945089E+02  0.28878552326E+01 -0.27617740895E+02  0.42254403597E+02  0.00000000000E+00 0.  1.
         11    1    4    4    0    0  0.20659993423E+02 -0.10763731126E+03 -0.46203860176E+01  0.10969947161E+03  0.00000000000E+00 0. -1.
        -13    1    3    3    0    0  0.43394642552E+02  0.45419051545E+02  0.16177830351E+03  0.17354597296E+03  0.00000000000E+00 0. -1.
         13    1    3    3    0    0 -0.41324077013E+02  0.55667950993E+02  0.21904525903E+03  0.22975514273E+03  0.00000000000E+00 0.  1.
          2    1    1    2  501    0 -0.54579504051E+02  0.36624534916E+01  0.26181070429E+01  0.54764863850E+02  0.00000000000E+00 0. -1.
<scales pt_clust_5="13000.00000" pt_clust_6="13000.00000" pt_clust_7="13000.00000" pt_clust_8="13000.00000" pt_clust_9="54.70225"></scales>
<clustering>
<clus scale="   54.702">  2  9  1 -1</clus>
<clus scale="   86.037">  7  8 -1 -1</clus>
<clus scale="   91.220">  5  6 -1 -1</clus>
<clus scale="  133.104">  1  7  2 -1</clus>
<clus scale="   54.702">  2  5  1 -1</clus>
</clustering>
</event>
<event>
 9    1  0.1445593E-005  0.1249925E+03  0.7546771E-02  0.1237658E+00
          1   -1    0    0  502    0 -0.00000000000E+00  0.00000000000E+00  0.67073748540E+03  0.67073748540E+03  0.00000000000E+00 0. -1.
         21   -1    0    0  501  502  0.00000000000E+00 -0.00000000000E+00 -0.62465182977E+02  0.62465182977E+02  0.00000000000E+00 0. -1.
         23    2    1    2    0    0  0.52735008522E+02 -0.50177665934E+02  0.53898538756E+03  0.55331896113E+03  0.10177350074E+03 0.  0.
         23    2    1    2    0    0 -0.66070148915E+02  0.33566441108E+02  0.90417425611E+02  0.14987942015E+03  0.93789973793E+02 0.  0.
        -11    1    3    3    0    0 -0.27868932944E+02  0.37774557413E+01  0.12361773540E+03  0.12677654003E+03  0.00000000000E+00 0.  1.
         11    1    3    3    0    0  0.80603941467E+02 -0.53955121675E+02  0.41536765216E+03  0.42654242110E+03  0.00000000000E+00 0. -1.
        -11    1    4    4    0    0 -0.54404407061E+01  0.54870511726E+02  0.38259627673E+02  0.67113117658E+02  0.00000000000E+00 0.  1.
         11    1    4    4    0    0 -0.60629708209E+02 -0.21304070618E+02  0.52157797938E+02  0.82766302492E+02  0.00000000000E+00 0. -1.
          1    1    1    2  501    0  0.13335140393E+02  0.16611224827E+02 -0.21130510755E+02  0.30004287098E+02  0.00000000000E+00 0. -1.
<scales pt_clust_5="13000.00000" pt_clust_6="13000.00000" pt_clust_7="13000.00000" pt_clust_8="13000.00000" pt_clust_9="21.30161"></scales>
<clustering>
<clus scale="   21.302">  2  9  1 -1</clus>
<clus scale="   93.790">  7  8 -1 -1</clus>
<clus scale="  101.774">  5  6 -1 -1</clus>
<clus scale="  118.583">  2  7  1 -1</clus>
<clus scale="   21.302">  2  5  1 -1</clus>
</clustering>
</event>
<event>
 9    1  0.1445593E-005  0.1487542E+03  0.7546771E-02  0.1203003E+00
         21   -1    0    0  501  502  0.00000000000E+00  0.00000000000E+00  0.20516187013E+03  0.20516187013E+03  0.00000000000E+00 0.  1.
         -3   -1    0    0    0  501 -0.00000000000E+00 -0.00000000000E+00 -0.42716630277E+03  0.42716630277E+03  0.00000000000E+00 0.  1.
         23    2    1    2    0    0 -0.12111565166E+03 -0.18752234948E+02 -0.33989371586E+03  0.37260845066E+03  0.91042144237E+02 0.  0.
         23    2    1    2    0    0  0.10065395200E+03 -0.13999336139E+02 -0.27783992922E+01  0.13302309180E+03  0.85791747769E+02 0.  0.
        -13    1    4    4    0    0  0.23708812902E+02 -0.34431604966E+02 -0.27050724782E+02  0.49793422667E+02  0.00000000000E+00 0.  1.
         13    1    4    4    0    0  0.76945139095E+02  0.20432268826E+02  0.24272325489E+02  0.83229669135E+02  0.00000000000E+00 0. -1.
        -13    1    3    3    0    0 -0.67170342714E+02 -0.15323267867E+02 -0.29317887100E+03  0.30116525012E+03  0.00000000000E+00 0.  1.
         13    1    3    3    0    0 -0.53945308950E+02 -0.34289670812E+01 -0.46714844859E+02  0.71443200538E+02  0.00000000000E+00 0. -1.
         -3    1    1    2    0  502  0.20461699667E+02  0.32751571088E+02  0.12066768251E+03  0.12669663044E+03  0.00000000000E+00 0.  1.
<scales pt_clust_5="13000.00000" pt_clust_6="13000.00000" pt_clust_7="13000.00000" pt_clust_8="13000.00000" pt_clust_9="38.61796"></scales>
<clustering>
<clus scale="   38.618">  1  9  2 -1</clus>
<clus scale="   85.792">  5  6 -1 -1</clus>
<clus scale="   91.042">  7  8 -1 -1</clus>
<clus scale="  145.600">  1  5  2 -1</clus>
<clus scale="   38.618">  1  5  2 -1</clus>
</clustering>
</event>
<event>
 9    1  0.1445593E-005  0.1059043E+03  0.7546771E-02  0.1268394E+00
         21   -1    0    0  501  502  0.00000000000E+00  0.00000000000E+00  0.37592889244E+03  0.37592889244E+03  0.00000000000E+00 0. -1.
          3   -1    0    0  502    0 -0.00000000000E+00 -0.00000000000E+00 -0.94472003606E+02  0.94472003606E+02  0.00000000000E+00 0. -1.
         23    2    1    2    0    0 -0.50269215881E+02 -0.16729642952E+02 -0.14430105699E+02  0.10591428875E+03  0.90568943861E+02 0.  0.
         23    2    1    2    0    0  0.22683332954E+02  0.88926609696E+02  0.13867505956E+03  0.18930391568E+03  0.90458414988E+02 0.  0.
        -13    1    4    4    0    0 -0.19647470408E+02  0.83261423250E+02  0.83641994809E+02  0.11964309838E+03  0.00000000000E+00 0. -1.
         13    1    4    4    0    0  0.42330803362E+02  0.56651864464E+01  0.55033064748E+02  0.69660817295E+02  0.00000000000E+00 0.  1.
        -13    1    3    3    0    0 -0.16205479622E+02 -0.32780236172E+02 -0.44591975766E+02  0.57668065305E+02  0.00000000000E+00 0. -1.
         13    1    3    3    0    0 -0.34063736259E+02  0.16050593220E+02  0.30161870067E+02  0.48246223444E+02  0.00000000000E+00 0.  1.
          3    1    1    2  501    0  0.27585882927E+02 -0.72196966744E+02  0.15721193498E+03  0.17518269162E+03  0.00000000000E+00 0. -1.
<scales pt_clust_5="13000.00000" pt_clust_6="13000.00000" pt_clust_7="13000.00000" pt_clust_8="13000.00000" pt_clust_9="77.28766"></scales>
<clustering>
<clus scale="   77.288">  1  9  2 -1</clus>
<clus scale="   90.458">  5  6 -1 -1</clus>
<clus scale="   90.569">  7  8 -1 -1</clus>
<clus scale="  105.810">  1  5  2 -1</clus>
<clus scale="   77.288">  1  5  2 -1</clus>
</clustering>
</event>
<event>
 9    1  0.1445593E-005  0.9795756E+02  0.7546771E-02  0.1288365E+00
         -1   -1    0    0    0  501 -0.00000000000E+00  0.00000000000E+00  0.26368780342E+02  0.26368780342E+02  0.00000000000E+00 0.  1.
         21   -1    0    0  501  502  0.00000000000E+00 -0.00000000000E+00 -0.82154652348E+03  0.82154652348E+03  0.00000000000E+00 0.  1.
         23    2    1    2    0    0 -0.21115569404E+02 -0.66874986291E+01 -0.12362398903E+03  0.15520742038E+03  0.91191352496E+02 0.  0.
         23    2    1    2    0    0  0.72465405498E+02  0.25653067282E+02 -0.41259297635E+03  0.42802470891E+03  0.84040897468E+02 0.  0.
        -13    1    4    4    0    0  0.46126683578E+02  0.56212729576E+02 -0.23968164576E+03  0.25046922609E+03  0.00000000000E+00 0.  1.
         13    1    4    4    0    0  0.26338721920E+02 -0.30559662295E+02 -0.17291133059E+03  0.17755548282E+03  0.00000000000E+00 0. -1.
        -13    1    3    3    0    0 -0.87021427193E+01  0.26716588110E+02 -0.11521630967E+03  0.11859300730E+03  0.00000000000E+00 0. -1.
         13    1    3    3    0    0 -0.12413426685E+02 -0.33404086739E+02 -0.84076793590E+01  0.36614413079E+02  0.00000000000E+00 0.  1.
         -1    1    1    2    0  502 -0.51349836093E+02 -0.18965568652E+02 -0.25896077776E+03  0.26468317453E+03  0.00000000000E+00 0.  1.
<scales pt_clust_5="13000.00000" pt_clust_6="13000.00000" pt_clust_7="13000.00000" pt_clust_8="13000.00000" pt_clust_9="54.74028"></scales>
<clustering>
<clus scale="   54.740">  2  9  1 -1</clus>
<clus scale="   84.041">  5  6 -1 -1</clus>
<clus scale="   91.191">  7  8 -1 -1</clus>
<clus scale="   91.338">  2  5  1 -1</clus>
<clus scale="   54.740">  2  5  1 -1</clus>
</clustering>
</event>
<event>
 9    1  0.1445593E-005  0.9867967E+02  0.7546771E-02  0.1283736E+00
         -1   -1    0    0    0  501 -0.00000000000E+00  0.00000000000E+00  0.88606995010E+02  0.88606995010E+02  0.00000000000E+00 0.  1.
         21   -1    0    0  501  502  0.00000000000E+00 -0.00000000000E+00 -0.32831628172E+03  0.32831628172E+03  0.00000000000E+00 0. -1.
         23    2    1    2    0    0 -0.16428850006E+02 -0.41946307031E+02  0.34586113677E+02  0.10788764864E+03  0.91728652466E+02 0.  0.
         23    2    1    2    0    0  0.94710350585E+01 -0.61185035275E+01 -0.14916911331E+03  0.17481482150E+03  0.90452533751E+02 0.  0.
        -13    1    4    4    0    0 -0.40640063811E+02 -0.12232270847E+01 -0.61775613078E+02  0.73954969017E+02  0.00000000000E+00 0.  1.
         13    1    4    4    0    0  0.50111098870E+02 -0.48952764428E+01 -0.87393500229E+02  0.10085985249E+03  0.00000000000E+00 0. -1.
        -13    1    3    3    0    0 -0.23425570985E+02  0.14501704604E+01  0.54718529592E+02  0.59539716585E+02  0.00000000000E+00 0.  1.
         13    1    3    3    0    0  0.69967209790E+01 -0.43396477492E+02 -0.20132415915E+02  0.48347932052E+02  0.00000000000E+00 0. -1.
         -1    1    1    2    0  502  0.69578149474E+01  0.48064810559E+02 -0.12512628708E+03  0.13422080659E+03  0.00000000000E+00 0.  1.
<scales pt_clust_5="13000.00000" pt_clust_6="13000.00000" pt_clust_7="13000.00000" pt_clust_8="13000.00000" pt_clust_9="48.56580"></scales>
<clustering>
<clus scale="   48.566">  2  9  1 -1</clus>
<clus scale="   90.453">  5  6 -1 -1</clus>
<clus scale="   91.729">  7  8 -1 -1</clus>
<clus scale="   97.495">  2  5  1 -1</clus>
<clus scale="   48.566">  2  5  1 -1</clus>
</clustering>
</event>
<event>
 9    1  0.1445593E-005  0.2722968E+03  0.7546771E-02  0.1099992E+00
         21   -1    0    0  501  502  0.00000000000E+00  0.00000000000E+00  0.10903139894E+03  0.10903139894E+03  0.00000000000E+00 0. -1.
          1   -1    0    0  502    0 -0.00000000000E+00 -0.00000000000E+00 -0.10169680469E+04  0.10169680469E+04  0.00000000000E+00 0. -1.
         23    2    1    2    0    0  0.28296891773E+03 -0.30228124327E+02 -0.58477768130E+03  0.65680240243E+03  0.91865724732E+02 0.  0.
         23    2    1    2    0    0 -0.20282443245E+03  0.89756771958E+02 -0.22296000857E+03  0.32775224990E+03  0.92284036461E+02 0.  0.
        -13    1    4    4    0    0 -0.18301050687E+03  0.10750699423E+03 -0.18601957391E+03  0.28223019206E+03  0.00000000000E+00 0. -1.
         13    1    4    4    0    0 -0.19813925579E+02 -0.17750222272E+02 -0.36940434651E+02  0.45522057838E+02  0.00000000000E+00 0.  1.
        -13    1    3    3    0    0  0.27176228806E+03 -0.49217910197E+02 -0.55290076565E+03  0.61804239382E+03  0.00000000000E+00 0. -1.
         13    1    3    3    0    0  0.11206629669E+02  0.18989785870E+02 -0.31876915649E+02  0.38760008607E+02  0.00000000000E+00 0.  1.
          1    1    1    2  501    0 -0.80144485285E+02 -0.59528647631E+02 -0.10019895808E+03  0.14144479351E+03  0.00000000000E+00 0. -1.
<scales pt_clust_5="13000.00000" pt_clust_6="13000.00000" pt_clust_7="13000.00000" pt_clust_8="13000.00000" pt_clust_9="99.83385"></scales>
<clustering>
<clus scale="   91.866">  7  8 -1 -1</clus>
<clus scale="   92.284">  5  6 -1 -1</clus>
<clus scale="   99.834">  1  9  2 -1</clus>
<clus scale="  272.155">  2  7  1 -1</clus>
<clus scale="   99.834">  1  5  2 -1</clus>
</clustering>
</event>
<event>
 9    1  0.1780529E-005  0.1110361E+03  0.7546771E-02  0.1259280E+00
         21   -1    0    0  501  502  0.00000000000E+00  0.00000000000E+00  0.25341664261E+03  0.25341664261E+03  0.00000000000E+00 0. -1.
          1   -1    0    0  502    0 -0.00000000000E+00 -0.00000000000E+00 -0.26559647741E+03  0.26559647741E+03  0.00000000000E+00 0. -1.
         23    2    1    2    0    0 -0.45194751117E+02 -0.54974632795E+02 -0.22189399527E+03  0.24992803936E+03  0.90345469961E+02 0.  0.
         23    2    1    2    0    0  0.26536826760E+02  0.10334971831E+02  0.57740642983E+02  0.10959599800E+03  0.88692085936E+02 0.  0.
        -11    1    3    3    0    0  0.13110629923E+02  0.17519883107E+02 -0.46348859763E+02  0.51254772679E+02  0.00000000000E+00 0.  1.
         11    1    3    3    0    0 -0.58305381039E+02 -0.72494515902E+02 -0.17554513550E+03  0.19867326668E+03  0.00000000000E+00 0. -1.
        -13    1    4    4    0    0  0.14997853482E+02  0.38913903584E+02 -0.26574991767E+01  0.41788632463E+02  0.00000000000E+00 0.  1.
         13    1    4    4    0    0  0.11538973278E+02 -0.28578931753E+02  0.60398142159E+02  0.67807365535E+02  0.00000000000E+00 0. -1.
          1    1    1    2  501    0  0.18657924357E+02  0.44639660964E+02  0.15197351748E+03  0.15948908266E+03  0.00000000000E+00 0. -1.
<scales pt_clust_5="13000.00000" pt_clust_6="13000.00000" pt_clust_7="13000.00000" pt_clust_8="13000.00000" pt_clust_9="48.38200"></scales>
<clustering>
<clus scale="   48.382">  1  9  2 -1</clus>
<clus scale="   88.692">  7  8 -1 -1</clus>
<clus scale="   90.345">  5  6 -1 -1</clus>
<clus scale="  109.695">  1  7  2 -1</clus>
<clus scale="   48.382">  1  5  2 -1</clus>
</clustering>
</event>
<event>
 9    1  0.1445593E-005  0.1012006E+03  0.7546771E-02  0.1279148E+00
         21   -1    0    0  501  502  0.00000000000E+00  0.00000000000E+00  0.61479285514E+02  0.61479285514E+02  0.00000000000E+00 0. -1.
          1   -1    0    0  502    0 -0.00000000000E+00 -0.00000000000E+00 -0.44778598200E+03  0.44778598200E+03  0.00000000000E+00 0. -1.
         23    2    1    2    0    0 -0.19522731957E+02  0.24353527546E+02 -0.33543331726E+03  0.34922638497E+03  0.92028942550E+02 0.  0.
         23    2    1    2    0    0  0.45507226765E+02 -0.32528424921E+02 -0.66537050451E+02  0.12861638243E+03  0.94794454647E+02 0.  0.
        -13    1    4    4    0    0  0.70687105368E+02 -0.15158728182E+02 -0.66199717600E+02  0.98024775010E+02  0.00000000000E+00 0. -1.
         13    1    4    4    0    0 -0.25179878603E+02 -0.17369696739E+02 -0.33733285100E+00  0.30591607423E+02  0.00000000000E+00 0.  1.
        -13    1    3    3    0    0 -0.46449018204E+02 -0.25547842358E+01 -0.26605099369E+03  0.27008733673E+03  0.00000000000E+00 0.  1.
         13    1    3    3    0    0  0.26926286247E+02  0.26908311782E+02 -0.69382323562E+02  0.79139048243E+02  0.00000000000E+00 0. -1.
          1    1    1    2  501    0 -0.25984494808E+02  0.81748973749E+01  0.15663671216E+02  0.31422500115E+02  0.00000000000E+00 0. -1.
<scales pt_clust_5="13000.00000" pt_clust_6="13000.00000" pt_clust_7="13000.00000" pt_clust_8="13000.00000" pt_clust_9="27.24010"></scales>
<clustering>
<clus scale="   27.240">  1  9  2 -1</clus>
<clus scale="   92.029">  7  8 -1 -1</clus>
<clus scale="   94.794">  5  6 -1 -1</clus>
<clus scale="   98.615">  2  7  1 -1</clus>
<clus scale="   27.240">  1  5  2 -1</clus>
</clustering>
</event>
<event>
 9    1  0.2781197E-005  0.1163179E+03  0.7546771E-02  0.1249508E+00
         21   -1    0    0  501  502  0.00000000000E+00  0.00000000000E+00  0.51403220492E+03  0.51403220492E+03  0.00000000000E+00 0. -1.
          3   -1    0    0  502    0 -0.00000000000E+00 -0.00000000000E+00 -0.14773427259E+03  0.14773427259E+03  0.00000000000E+00 0. -1.
         23    2    1    2    0    0 -0.71049848978E+02 -0.67915924102E+01 -0.11169315485E+03  0.16090690293E+03  0.91222057655E+02 0.  0.
         23    2    1    2    0    0  0.82508921747E+02  0.27115920103E+02  0.38272142041E+03  0.40277441744E+03  0.90601050841E+02 0.  0.
        -13    1    3    3    0    0 -0.25828984075E+02  0.11659165324E+01 -0.11204542626E+03  0.11498988357E+03  0.00000000000E+00 0.  1.
         13    1    3    3    0    0 -0.45220864903E+02 -0.79575089427E+01  0.35227140867E+00  0.45917019353E+02  0.00000000000E+00 0. -1.
        -13    1    4    4    0    0  0.77189108534E+02 -0.43158656184E+01  0.34418794200E+03  0.35276355337E+03  0.00000000000E+00 0.  1.
         13    1    4    4    0    0  0.53198132129E+01  0.31431785721E+02  0.38533478414E+02  0.50010864069E+02  0.00000000000E+00 0. -1.
          3    1    1    2  501    0 -0.11459072769E+02 -0.20324327692E+02  0.95269666773E+02  0.98085157143E+02  0.00000000000E+00 0. -1.
<scales pt_clust_5="13000.00000" pt_clust_6="13000.00000" pt_clust_7="13000.00000" pt_clust_8="13000.00000" pt_clust_9="23.33214"></scales>
<clustering>
<clus scale="   23.332">  1  9  2 -1</clus>
<clus scale="   90.601">  7  8 -1 -1</clus>
<clus scale="   91.222">  5  6 -1 -1</clus>
<clus scale="  115.831">  1  7  2 -1</clus>
<clus scale="   23.332">  1  5  2 -1</clus>
</clustering>
</event>
<event>
 9    1  0.1445593E-005  0.1391940E+03  0.7546771E-02  0.1215423E+00
         21   -1    0    0  501  502  0.00000000000E+00  0.00000000000E+00  0.18681490398E+03  0.18681490398E+03  0.00000000000E+00 0.  1.
         -2   -1    0    0    0  501 -0.00000000000E+00 -0.00000000000E+00 -0.30404528200E+03  0.30404528200E+03  0.00000000000E+00 0.  1.
         23    2    1    2    0    0  0.10723803214E+03  0.30777465430E+02 -0.18235872070E+03  0.23154609179E+03  0.88947409704E+02 0.  0.
         23    2    1    2    0    0 -0.10522745593E+03  0.62250552390E+02  0.51102436298E+01  0.14858728294E+03  0.84285925908E+02 0.  0.
        -13    1    4    4    0    0 -0.16998023114E+02  0.54825207601E+02 -0.11397003835E+02  0.58520320187E+02  0.00000000000E+00 0.  1.
         13    1    4    4    0    0 -0.88229432814E+02  0.74253447889E+01  0.16507247465E+02  0.90066962749E+02  0.00000000000E+00 0. -1.
        -13    1    3    3    0    0  0.18117976696E+02 -0.23474483122E+02 -0.12450667876E+02  0.32161025605E+02  0.00000000000E+00 0.  1.
         13    1    3    3    0    0  0.89120055443E+02  0.54251948552E+02 -0.16990805282E+03  0.19938506618E+03  0.00000000000E+00 0. -1.
         -2    1    1    2    0  502 -0.20105762103E+01 -0.93028017820E+02  0.60018099047E+02  0.11072681125E+03  0.00000000000E+00 0.  1.
<scales pt_clust_5="13000.00000" pt_clust_6="13000.00000" pt_clust_7="13000.00000" pt_clust_8="13000.00000" pt_clust_9="93.04974"></scales>
<clustering>
<clus scale="   84.286">  5  6 -1 -1</clus>
<clus scale="   88.947">  7  8 -1 -1</clus>
<clus scale="   93.050">  1  9  2 -1</clus>
<clus scale="  136.262">  1  5  2 -1</clus>
<clus scale="   93.050">  1  5  2 -1</clus>
</clustering>
</event>
<event>
 9    1  0.1445593E-005  0.9544109E+02  0.7546771E-02  0.1292938E+00
         21   -1    0    0  501  502  0.00000000000E+00  0.00000000000E+00  0.24442692208E+03  0.24442692208E+03  0.00000000000E+00 0.  1.
          1   -1    0    0  502    0 -0.00000000000E+00 -0.00000000000E+00 -0.33166710209E+03  0.33166710209E+03  0.00000000000E+00 0. -1.
         23    2    1    2    0    0 -0.32809672133E+01  0.17020001534E+02 -0.30861992664E+03  0.32300738474E+03  0.93739352870E+02 0.  0.
         23    2    1    2    0    0  0.24899903202E+02 -0.27614189320E+02  0.15521185640E+03  0.18267495784E+03  0.88864341686E+02 0.  0.
        -11    1    3    3    0    0 -0.14592301298E+02 -0.32546668140E+02 -0.65041493809E+02  0.74179625107E+02  0.00000000000E+00 0.  1.
         11    1    3    3    0    0  0.11311334084E+02  0.49566669674E+02 -0.24357843283E+03  0.24882775963E+03  0.00000000000E+00 0. -1.
        -13    1    4    4    0    0  0.25454307727E+02  0.18830964910E+02  0.12076628907E+03  0.12484800198E+03  0.00000000000E+00 0.  1.
         13    1    4    4    0    0 -0.55440452561E+00 -0.46445154230E+02  0.34445567329E+02  0.57826955864E+02  0.00000000000E+00 0. -1.
          1    1    1    2  501    0 -0.21618935988E+02  0.10594187786E+02  0.66167890231E+02  0.70411681600E+02  0.00000000000E+00 0. -1.
<scales pt_clust_5="13000.00000" pt_clust_6="13000.00000" pt_clust_7="13000.00000" pt_clust_8="13000.00000" pt_clust_9="24.07520"></scales>
<clustering>
<clus scale="   24.075">  1  9  2 -1</clus>
<clus scale="   88.864">  7  8 -1 -1</clus>
<clus scale="   90.658">  1  7  2 -1</clus>
<clus scale="   93.739">  5  6 -1 -1</clus>
<clus scale="   24.075">  1  5  2 -1</clus>
</clustering>
</event>
<event>
 9    1  0.1445593E-005  0.9511682E+02  0.7546771E-02  0.1291751E+00
         21   -1    0    0  501  502  0.00000000000E+00  0.00000000000E+00  0.24868058569E+03  0.24868058569E+03  0.00000000000E+00 0. -1.
         -4   -1    0    0    0  501 -0.00000000000E+00 -0.00000000000E+00 -0.15214883920E+03  0.15214883920E+03  0.00000000000E+00 0.  1.
         23    2    1    2    0    0 -0.25207372119E+02 -0.90640702083E+01 -0.99780917314E+02  0.13784517204E+03  0.91255087614E+02 0.  0.
         23    2    1    2    0    0 -0.33786839646E+02  0.34913895850E+02  0.87178944495E+02  0.13626132991E+03  0.92770959951E+02 0.  0.
        -11    1    3    3    0    0 -0.92481621337E+01 -0.37741268916E+02 -0.70686003123E+01  0.39495531299E+02  0.00000000000E+00 0.  1.
         11    1    3    3    0    0 -0.15959209985E+02  0.28677198708E+02 -0.92712317002E+02  0.98349640736E+02  0.00000000000E+00 0. -1.
        -13    1    4    4    0    0  0.19819792385E+02  0.81835335927E+01  0.71066122386E+02  0.74230641539E+02  0.00000000000E+00 0. -1.
         13    1    4    4    0    0 -0.53606632031E+02  0.26730362258E+02  0.16112822109E+02  0.62030688376E+02  0.00000000000E+00 0.  1.
         -4    1    1    2    0  502  0.58994211765E+02 -0.25849825642E+02  0.10913371931E+03  0.12672292294E+03  0.00000000000E+00 0.  1.
<scales pt_clust_5="13000.00000" pt_clust_6="13000.00000" pt_clust_7="13000.00000" pt_clust_8="13000.00000" pt_clust_9="64.40909"></scales>
<clustering>
<clus scale="   64.409">  1  9  2 -1</clus>
<clus scale="   91.255">  5  6 -1 -1</clus>
<clus scale="   92.771">  7  8 -1 -1</clus>
<clus scale="   93.639">  2  5  1 -1</clus>
<clus scale="   64.409">  1  5  2 -1</clus>
</clustering>
</event>
<event>
 9    1  0.1445593E-005  0.1227944E+03  0.7546771E-02  0.1240581E+00
         21   -1    0    0  501  502  0.00000000000E+00  0.00000000000E+00  0.15915124537E+03  0.15915124537E+03  0.00000000000E+00 0. -1.
          1   -1    0    0  502    0 -0.00000000000E+00 -0.00000000000E+00 -0.27390792862E+03  0.27390792862E+03  0.00000000000E+00 0. -1.
         23    2    1    2    0    0 -0.81251122265E+02 -0.63520931353E+01 -0.21627537268E+03  0.24989529299E+03  0.95029083305E+02 0.  0.
         23    2    1    2    0    0  0.61555699636E+02 -0.16040910257E+01  0.35077512391E+02  0.11340973743E+03  0.88541851141E+02 0.  0.
        -11    1    3    3    0    0 -0.81941725361E+02  0.30603361386E+02 -0.16406658662E+03  0.18592702044E+03  0.00000000000E+00 0. -1.
         11    1    3    3    0    0  0.69060309660E+00 -0.36955454521E+02 -0.52208786060E+02  0.63968272553E+02  0.00000000000E+00 0.  1.
        -11    1    4    4    0    0  0.74113077941E+02  0.14468725301E+02  0.47800810727E+02  0.89370072395E+02  0.00000000000E+00 0.  1.
         11    1    4    4    0    0 -0.12557378306E+02 -0.16072816327E+02 -0.12723298336E+02  0.24039665038E+02  0.00000000000E+00 0. -1.
          1    1    1    2  501    0  0.19695422629E+02  0.79561841610E+01  0.66441177035E+02  0.69754143567E+02  0.00000000000E+00 0. -1.
<scales pt_clust_5="13000.00000" pt_clust_6="13000.00000" pt_clust_7="13000.00000" pt_clust_8="13000.00000" pt_clust_9="21.24172"></scales>
<clustering>
<clus scale="   21.242">  1  9  2 -1</clus>
<clus scale="   88.542">  7  8 -1 -1</clus>
<clus scale="   95.029">  5  6 -1 -1</clus>
<clus scale="  117.846">  1  7  2 -1</clus>
<clus scale="   21.242">  1  5  2 -1</clus>
</clustering>
</event>
<event>
 9    1  0.1445593E-005  0.1665060E+03  0.7546771E-02  0.1182134E+00
          2   -1    0    0  502    0 -0.00000000000E+00  0.00000000000E+00  0.64155685329E+03  0.64155685329E+03  0.00000000000E+00 0. -1.
         21   -1    0    0  501  502  0.00000000000E+00 -0.00000000000E+00 -0.31102377990E+03  0.31102377990E+03  0.00000000000E+00 0. -1.
         23    2    1    2    0    0  0.12575251626E+03  0.15008698556E+02  0.38005380090E+03  0.41173235576E+03  0.95098290341E+02 0.  0.
         23    2    1    2    0    0 -0.16013318913E+03  0.98435144075E+01  0.20903178301E+03  0.27883861376E+03  0.91198427482E+02 0.  0.
        -11    1    3    3    0    0  0.12509548866E+03  0.35872570885E+02  0.27011848034E+03  0.29983281349E+03  0.00000000000E+00 0. -1.
         11    1    3    3    0    0  0.65702759901E+00 -0.20863872329E+02  0.10993532056E+03  0.11189954227E+03  0.00000000000E+00 0.  1.
        -13    1    4    4    0    0 -0.20391704355E+02  0.34021729403E+02  0.68685526773E+02  0.79315832380E+02  0.00000000000E+00 0. -1.
         13    1    4    4    0    0 -0.13974148478E+03 -0.24178214995E+02  0.14034625624E+03  0.19952278138E+03  0.00000000000E+00 0.  1.
          2    1    1    2  501    0  0.34380672868E+02 -0.24852212964E+02 -0.25855251052E+03  0.26200966367E+03  0.00000000000E+00 0. -1.
<scales pt_clust_5="13000.00000" pt_clust_6="13000.00000" pt_clust_7="13000.00000" pt_clust_8="13000.00000" pt_clust_9="42.42244"></scales>
<clustering>
<clus scale="   42.422">  2  9  1 -1</clus>
<clus scale="   91.198">  7  8 -1 -1</clus>
<clus scale="   95.098">  5  6 -1 -1</clus>
<clus scale="  164.310">  2  7  1 -1</clus>
<clus scale="   42.422">  2  5  1 -1</clus>
</clustering>
</event>
<event>
 9    1  0.1445593E-005  0.9775820E+02  0.7546771E-02  0.1287891E+00
         -2   -1    0    0    0  501 -0.00000000000E+00  0.00000000000E+00  0.22825988050E+03  0.22825988050E+03  0.00000000000E+00 0.  1.
         21   -1    0    0  501  502  0.00000000000E+00 -0.00000000000E+00 -0.64884752986E+02  0.64884752986E+02  0.00000000000E+00 0. -1.
         23    2    1    2    0    0  0.10431138616E+01  0.33782481389E+02  0.11674545947E+03  0.15346594190E+03  0.93701381422E+02 0.  0.
         23    2    1    2    0    0 -0.57799551285E+01 -0.13271297659E+02  0.12102544874E+01  0.89618033872E+02  0.88432980592E+02 0.  0.
        -11    1    4    4    0    0 -0.51053255904E+01  0.27631711993E+02 -0.27753005827E+02  0.39494369085E+02  0.00000000000E+00 0. -1.
         11    1    4    4    0    0 -0.67462953817E+00 -0.40903009652E+02  0.28963260314E+02  0.50123664786E+02  0.00000000000E+00 0.  1.
        -13    1    3    3    0    0  0.31948762159E+02 -0.19909677499E+02  0.42864534689E+02  0.57048111237E+02  0.00000000000E+00 0.  1.
         13    1    3    3    0    0 -0.30905648297E+02  0.53692158888E+02  0.73880924785E+02  0.96417830664E+02  0.00000000000E+00 0. -1.
         -2    1    1    2    0  502  0.47368412669E+01 -0.20511183730E+02  0.45419413549E+02  0.50060657710E+02  0.00000000000E+00 0.  1.
<scales pt_clust_5="13000.00000" pt_clust_6="13000.00000" pt_clust_7="13000.00000" pt_clust_8="13000.00000" pt_clust_9="21.05105"></scales>
<clustering>
<clus scale="   21.051">  2  9  1 -1</clus>
<clus scale="   88.433">  5  6 -1 -1</clus>
<clus scale="   92.721">  2  5  1 -1</clus>
<clus scale="   93.701">  7  8 -1 -1</clus>
<clus scale="   21.051">  2  5  1 -1</clus>
</clustering>
</event>
<event>
 9    1  0.1445593E-005  0.1016264E+03  0.7546771E-02  0.1277074E+00
         21   -1    0    0  501  502  0.00000000000E+00  0.00000000000E+00  0.28520950969E+03  0.28520950969E+03  0.00000000000E+00 0.  1.
          1   -1    0    0  502    0 -0.00000000000E+00 -0.00000000000E+00 -0.10574872021E+03  0.10574872021E+03  0.00000000000E+00 0. -1.
         23    2    1    2    0    0  0.28821582518E+02  0.15626764150E+02 -0.23814733935E+02  0.10019813002E+03  0.91638661763E+02 0.  0.
         23    2    1    2    0    0 -0.62651812615E+02 -0.75702149941E+02  0.16113184465E+03  0.20995399797E+03  0.91984481154E+02 0.  0.
        -13    1    4    4    0    0 -0.67634841229E+02 -0.45744691992E+02  0.15992201093E+03  0.17956084811E+03  0.00000000000E+00 0.  1.
         13    1    4    4    0    0  0.49830286144E+01 -0.29957457949E+02  0.12098337229E+01  0.30393149862E+02  0.00000000000E+00 0. -1.
        -13    1    3    3    0    0 -0.13023153636E+02  0.15183377953E+02 -0.47904068073E+02  0.51912784886E+02  0.00000000000E+00 0.  1.
         13    1    3    3    0    0  0.41844736154E+02  0.44338619684E+00  0.24089334138E+02  0.48285345130E+02  0.00000000000E+00 0. -1.
          1    1    1    2  501    0  0.33830230097E+02  0.60075385791E+02  0.42143678768E+02  0.80806101913E+02  0.00000000000E+00 0. -1.
<scales pt_clust_5="13000.00000" pt_clust_6="13000.00000" pt_clust_7="13000.00000" pt_clust_8="13000.00000" pt_clust_9="68.94590"></scales>
<clustering>
<clus scale="   68.946">  1  9  2 -1</clus>
<clus scale="   91.639">  7  8 -1 -1</clus>
<clus scale="   91.984">  5  6 -1 -1</clus>
<clus scale="  101.313">  2  7  1 -1</clus>
<clus scale="   68.946">  1  5  2 -1</clus>
</clustering>
</event>
<event>
 9    1  0.1445593E-005  0.1547852E+03  0.7546771E-02  0.1195158E+00
          2   -1    0    0  502    0 -0.00000000000E+00  0.00000000000E+00  0.94204923504E+03  0.94204923504E+03  0.00000000000E+00 0. -1.
         21   -1    0    0  501  502  0.00000000000E+00 -0.00000000000E+00 -0.33721906714E+02  0.33721906714E+02  0.00000000000E+00 0. -1.
         23    2    1    2    0    0  0.53054537176E+02 -0.12564731218E+03  0.59721508658E+03  0.61952595357E+03  0.92436554091E+02 0.  0.
         23    2    1    2    0    0 -0.31720057790E+02  0.98357531501E+02  0.22482716695E+03  0.26326666232E+03  0.89898356051E+02 0.  0.
        -11    1    4    4    0    0 -0.50741407535E+02  0.37963705763E+02  0.16249769344E+03  0.17441741246E+03  0.00000000000E+00 0.  1.
         11    1    4    4    0    0  0.19021349745E+02  0.60393825737E+02  0.62329473504E+02  0.88849249860E+02  0.00000000000E+00 0. -1.
        -13    1    3    3    0    0  0.36264445661E+02 -0.82050823125E+01  0.71484677858E+02  0.80576004886E+02  0.00000000000E+00 0.  1.
         13    1    3    3    0    0  0.16790091514E+02 -0.11744222986E+03  0.52573040872E+03  0.53894994868E+03  0.00000000000E+00 0. -1.
          2    1    1    2  501    0 -0.21334479386E+02  0.27289780676E+02  0.86285074802E+02  0.92978525873E+02  0.00000000000E+00 0. -1.
<scales pt_clust_5="13000.00000" pt_clust_6="13000.00000" pt_clust_7="13000.00000" pt_clust_8="13000.00000" pt_clust_9="34.63946"></scales>
<clustering>
<clus scale="   34.639">  2  9  1 -1</clus>
<clus scale="   89.898">  5  6 -1 -1</clus>
<clus scale="   92.437">  7  8 -1 -1</clus>
<clus scale="  153.283">  2  5  1 -1</clus>
<clus scale="   34.639">  2  5  1 -1</clus>
</clustering>
</event>
<event>
 9    1  0.1445593E-005  0.1098406E+03  0.7546771E-02  0.1261500E+00
          2   -1    0    0  502    0 -0.00000000000E+00  0.00000000000E+00  0.25732302091E+03  0.25732302091E+03  0.00000000000E+00 0. -1.
         21   -1    0    0  501  502  0.00000000000E+00 -0.00000000000E+00 -0.10301200993E+03  0.10301200993E+03  0.00000000000E+00 0.  1.
         23    2    1    2    0    0 -0.31988021071E+02  0.90527457336E+01  0.78544339184E+02  0.12527270191E+03  0.91754296513E+02 0.  0.
         23    2    1    2    0    0  0.77814220849E+02 -0.52410839183E+02  0.10163857571E+03  0.16687640468E+03  0.93356228169E+02 0.  0.
        -13    1    3    3    0    0  0.43742260024E+01 -0.30669217259E+02  0.11687033166E+01  0.31001622665E+02  0.00000000000E+00 0.  1.
         13    1    3    3    0    0 -0.36362247073E+02  0.39721962992E+02  0.77375635868E+02  0.94271079246E+02  0.00000000000E+00 0. -1.
        -13    1    4    4    0    0  0.63846814886E+02 -0.27687828207E+02  0.92274117398E+01  0.70200973849E+02  0.00000000000E+00 0.  1.
         13    1    4    4    0    0  0.13967405963E+02 -0.24723010976E+02  0.92411163969E+02  0.96675430835E+02  0.00000000000E+00 0. -1.
          2    1    1    2  501    0 -0.45826199778E+02  0.43358093450E+02 -0.25871903913E+02  0.68185924250E+02  0.00000000000E+00 0. -1.
<scales pt_clust_5="13000.00000" pt_clust_6="13000.00000" pt_clust_7="13000.00000" pt_clust_8="13000.00000" pt_clust_9="63.08696"></scales>
<clustering>
<clus scale="   63.087">  2  9  1 -1</clus>
<clus scale="   91.754">  5  6 -1 -1</clus>
<clus scale="   93.356">  7  8 -1 -1</clus>
<clus scale="  108.482">  1  5  2 -1</clus>
<clus scale="   63.087">  2  5  1 -1</clus>
</clustering>
</event>
<event>
 9    1  0.1445593E-005  0.9910261E+02  0.7546771E-02  0.1283265E+00
         21   -1    0    0  501  502  0.00000000000E+00  0.00000000000E+00  0.13691709479E+03  0.13691709479E+03  0.00000000000E+00 0. -1.
         -1   -1    0    0    0  501 -0.00000000000E+00 -0.00000000000E+00 -0.13536946219E+03  0.13536946219E+03  0.00000000000E+00 0.  1.
         23    2    1    2    0    0 -0.14256274581E+02 -0.54502129503E+02 -0.26855664988E+02  0.11080237372E+03  0.91554441703E+02 0.  0.
         23    2    1    2    0    0 -0.20120860460E+02  0.15873750858E+01  0.19155192660E+02  0.97708905183E+02  0.93662906003E+02 0.  0.
        -11    1    4    4    0    0 -0.32120991823E+02 -0.27066968685E+02  0.41805424467E+02  0.59262740608E+02  0.00000000000E+00 0. -1.
         11    1    4    4    0    0  0.12000131363E+02  0.28654343770E+02 -0.22650231807E+02  0.38446164576E+02  0.00000000000E+00 0.  1.
        -13    1    3    3    0    0 -0.31553850428E+02  0.15614296543E+02 -0.10739334928E+02  0.36807404799E+02  0.00000000000E+00 0.  1.
         13    1    3    3    0    0  0.17297575846E+02 -0.70116426046E+02 -0.16116330060E+02  0.73994968925E+02  0.00000000000E+00 0. -1.
         -1    1    1    2    0  502  0.34377135041E+02  0.52914754417E+02  0.92481049234E+01  0.63775278073E+02  0.00000000000E+00 0.  1.
<scales pt_clust_5="13000.00000" pt_clust_6="13000.00000" pt_clust_7="13000.00000" pt_clust_8="13000.00000" pt_clust_9="63.10118"></scales>
<clustering>
<clus scale="   63.101">  1  9  2 -1</clus>
<clus scale="   91.554">  7  8 -1 -1</clus>
<clus scale="   93.663">  5  6 -1 -1</clus>
<clus scale="   97.112">  2  7  1 -1</clus>
<clus scale="   63.101">  1  5  2 -1</clus>
</clustering>
</event>
<event>
 9    1  0.1445593E-005  0.1513027E+03  0.7546771E-02  0.1198990E+00
         21   -1    0    0  501  502  0.00000000000E+00  0.00000000000E+00  0.52399627103E+03  0.52399627103E+03  0.00000000000E+00 0. -1.
          1   -1    0    0  502    0 -0.00000000000E+00 -0.00000000000E+00 -0.23633827564E+03  0.23633827564E+03  0.00000000000E+00 0. -1.
         23    2    1    2    0    0 -0.10962408412E+03 -0.45049954855E+02 -0.17547069865E+03  0.23055992041E+03  0.91219365062E+02 0.  0.
         23    2    1    2    0    0  0.11604894364E+03  0.79675840308E+02  0.18532751619E+03  0.24975011809E+03  0.90626907604E+02 0.  0.
        -11    1    4    4    0    0  0.33153284712E+02  0.74452310789E+02  0.68841580986E+02  0.10668387948E+03  0.00000000000E+00 0. -1.
         11    1    4    4    0    0  0.82895658923E+02  0.52235295190E+01  0.11648593521E+03  0.14306623861E+03  0.00000000000E+00 0.  1.
        -13    1    3    3    0    0 -0.36416618037E+02 -0.64269577325E+02 -0.87066573531E+02  0.11418115810E+03  0.00000000000E+00 0.  1.
         13    1    3    3    0    0 -0.73207466086E+02  0.19219622469E+02 -0.88404125121E+02  0.11637876231E+03  0.00000000000E+00 0. -1.
          1    1    1    2  501    0 -0.64248595124E+01 -0.34625885452E+02  0.27780117785E+03  0.28002450817E+03  0.00000000000E+00 0. -1.
<scales pt_clust_5="13000.00000" pt_clust_6="13000.00000" pt_clust_7="13000.00000" pt_clust_8="13000.00000" pt_clust_9="35.21691"></scales>
<clustering>
<clus scale="   35.217">  1  9  2 -1</clus>
<clus scale="   90.627">  5  6 -1 -1</clus>
<clus scale="   91.219">  7  8 -1 -1</clus>
<clus scale="  150.946">  1  5  2 -1</clus>
<clus scale="   35.217">  1  5  2 -1</clus>
</clustering>
</event>
<event>
 9    1  0.1445593E-005  0.1070887E+03  0.7546771E-02  0.1271615E+00
         21   -1    0    0  501  502  0.00000000000E+00  0.00000000000E+00  0.16432132475E+03  0.16432132475E+03  0.00000000000E+00 0.  1.
          2   -1    0    0  502    0 -0.00000000000E+00 -0.00000000000E+00 -0.10557129236E+03  0.10557129236E+03  0.00000000000E+00 0. -1.
         23    2    1    2    0    0 -0.14254628866E+02  0.55980624057E+01 -0.18371382365E+02  0.10638706068E+03  0.10366371710E+03 0.  0.
         23    2    1    2    0    0  0.48345211190E+02 -0.19390544183E+02  0.66840024022E+02  0.12532038455E+03  0.92327446209E+02 0.  0.
        -11    1    3    3    0    0  0.33212215198E+02  0.34565717260E+02 -0.36692562303E+00  0.47937195188E+02  0.00000000000E+00 0.  1.
         11    1    3    3    0    0 -0.47466844064E+02 -0.28967654854E+02 -0.18004456742E+02  0.58449865489E+02  0.00000000000E+00 0. -1.
        -13    1    4    4    0    0  0.67017608858E+02  0.13027401062E+02  0.47806796340E+02  0.83346042808E+02  0.00000000000E+00 0.  1.
         13    1    4    4    0    0 -0.18672397667E+02 -0.32417945246E+02  0.19033227682E+02  0.41974341741E+02  0.00000000000E+00 0. -1.
          2    1    1    2  501    0 -0.34090582324E+02  0.13792481778E+02  0.10281390728E+02  0.38185171888E+02  0.00000000000E+00 0. -1.
<scales pt_clust_5="13000.00000" pt_clust_6="13000.00000" pt_clust_7="13000.00000" pt_clust_8="13000.00000" pt_clust_9="36.77500"></scales>
<clustering>
<clus scale="   36.775">  1  9  2 -1</clus>
<clus scale="   92.327">  7  8 -1 -1</clus>
<clus scale="   96.157">  1  7  2 -1</clus>
<clus scale="  103.664">  5  6 -1 -1</clus>
<clus scale="   36.775">  1  5  2 -1</clus>
</clustering>
</event>
<event>
 9    1  0.1445593E-005  0.1343975E+03  0.7546771E-02  0.1221822E+00
          2   -1    0    0  502    0 -0.00000000000E+00  0.00000000000E+00  0.77389085481E+03  0.77389085481E+03  0.00000000000E+00 0. -1.
         21   -1    0    0  501  502  0.00000000000E+00 -0.00000000000E+00 -0.34250553274E+02  0.34250553274E+02  0.00000000000E+00 0.  1.
         23    2    1    2    0    0  0.10297814053E+01 -0.10264098924E+03  0.41846873688E+03  0.44046450126E+03  0.91414769064E+02 0.  0.
         23    2    1    2    0    0  0.40481631803E+02  0.89519608270E+02  0.26930481560E+03  0.29996038208E+03  0.88309820151E+02 0.  0.
        -13    1    3    3    0    0 -0.44187598827E+02 -0.38381671126E+02  0.19429277061E+03  0.20291716852E+03  0.00000000000E+00 0.  1.
         13    1    3    3    0    0  0.45217380232E+02 -0.64259318117E+02  0.22417596627E+03  0.23754733274E+03  0.00000000000E+00 0. -1.
        -13    1    4    4    0    0  0.59082871893E+02  0.51927232105E+02  0.11002379435E+03  0.13524961556E+03  0.00000000000E+00 0.  1.
         13    1    4    4    0    0 -0.18601240090E+02  0.37592376165E+02  0.15928102125E+03  0.16471076652E+03  0.00000000000E+00 0. -1.
          2    1    1    2  501    0 -0.41511413208E+02  0.13121380974E+02  0.51866749051E+02  0.67716524736E+02  0.00000000000E+00 0. -1.
<scales pt_clust_5="13000.00000" pt_clust_6="13000.00000" pt_clust_7="13000.00000" pt_clust_8="13000.00000" pt_clust_9="43.53583"></scales>
<clustering>
<clus scale="   43.536">  2  9  1 -1</clus>
<clus scale="   88.310">  7  8 -1 -1</clus>
<clus scale="   91.415">  5  6 -1 -1</clus>
<clus scale="  132.305">  2  7  1 -1</clus>
<clus scale="   43.536">  2  5  1 -1</clus>
</clustering>
</event>
<event>
 9    1  0.1445593E-005  0.1471369E+03  0.7546771E-02  0.1204471E+00
         21   -1    0    0  501  502  0.00000000000E+00  0.00000000000E+00  0.91196185380E+03  0.91196185380E+03  0.00000000000E+00 0. -1.
         -3   -1    0    0    0  501 -0.00000000000E+00 -0.00000000000E+00 -0.12835355841E+03  0.12835355841E+03  0.00000000000E+00 0.  1.
         23    2    1    2    0    0 -0.39076616978E+02 -0.15141379575E+03 -0.15458090804E+02  0.18123480313E+03  0.90299400644E+02 0.  0.
         23    2    1    2    0    0  0.81286420576E+01  0.63004342597E+02  0.82341210955E+02  0.13626044792E+03  0.88040971354E+02 0.  0.
        -11    1    3    3    0    0 -0.39510815321E+02 -0.15328346526E+02 -0.15567110613E+02  0.45148617558E+02  0.00000000000E+00 0.  1.
         11    1    3    3    0    0  0.43419834273E+00 -0.13608544922E+03  0.10901980907E+00  0.13608618557E+03  0.00000000000E+00 0. -1.
        -13    1    4    4    0    0  0.11664867057E+02  0.21807218509E+02  0.90755147658E+02  0.94064449868E+02  0.00000000000E+00 0. -1.
         13    1    4    4    0    0 -0.35362249989E+01  0.41197124088E+02 -0.84139367033E+01  0.42195998048E+02  0.00000000000E+00 0.  1.
         -3    1    1    2    0  502  0.30947974920E+02  0.88409453149E+02  0.71672517524E+03  0.72282016116E+03  0.00000000000E+00 0.  1.
<scales pt_clust_5="13000.00000" pt_clust_6="13000.00000" pt_clust_7="13000.00000" pt_clust_8="13000.00000" pt_clust_9="93.66968"></scales>
<clustering>
<clus scale="   88.041">  7  8 -1 -1</clus>
<clus scale="   90.299">  5  6 -1 -1</clus>
<clus scale="   93.670">  1  9  2 -1</clus>
<clus scale="  145.762">  1  7  2 -1</clus>
<clus scale="   93.670">  1  5  2 -1</clus>
</clustering>
</event>
<event>
 9    1  0.1445593E-005  0.1026321E+03  0.7546771E-02  0.1275588E+00
          3   -1    0    0  502    0 -0.00000000000E+00  0.00000000000E+00  0.30123746661E+03  0.30123746661E+03  0.00000000000E+00 0. -1.
         21   -1    0    0  501  502  0.00000000000E+00 -0.00000000000E+00 -0.66258203698E+02  0.66258203698E+02  0.00000000000E+00 0.  1.
         23    2    1    2    0    0 -0.44371933621E+02  0.29401503784E+02  0.18338660269E+03  0.21168607365E+03  0.91362086306E+02 0.  0.
         23    2    1    2    0    0  0.45334000796E+01 -0.16885750083E+02  0.71758179734E+01  0.94845601374E+02  0.92943614435E+02 0.  0.
        -11    1    4    4    0    0 -0.69513727456E+01 -0.54609553429E+02  0.62226730132E+01  0.55400781296E+02  0.00000000000E+00 0. -1.
         11    1    4    4    0    0  0.11484772825E+02  0.37723803346E+02  0.95314496015E+00  0.39444820079E+02  0.00000000000E+00 0.  1.
        -13    1    3    3    0    0 -0.53491360218E+02  0.52099590482E+02  0.10010764039E+03  0.12488888105E+03  0.00000000000E+00 0.  1.
         13    1    3    3    0    0  0.91194265973E+01 -0.22698086698E+02  0.83278962302E+02  0.86797192601E+02  0.00000000000E+00 0. -1.
          3    1    1    2  501    0  0.39838533541E+02 -0.12515753700E+02  0.44416842250E+02  0.60963995283E+02  0.00000000000E+00 0. -1.
<scales pt_clust_5="13000.00000" pt_clust_6="13000.00000" pt_clust_7="13000.00000" pt_clust_8="13000.00000" pt_clust_9="41.75829"></scales>
<clustering>
<clus scale="   41.758">  2  9  1 -1</clus>
<clus scale="   91.362">  7  8 -1 -1</clus>
<clus scale="   92.944">  5  6 -1 -1</clus>
<clus scale="  101.202">  1  7  2 -1</clus>
<clus scale="   41.758">  2  5  1 -1</clus>
</clustering>
</event>
<event>
 9    1  0.1445593E-005  0.1091099E+03  0.7546771E-02  0.1264588E+00
         21   -1    0    0  501  502  0.00000000000E+00  0.00000000000E+00  0.16342852930E+03  0.16342852930E+03  0.00000000000E+00 0.  1.
         -1   -1    0    0    0  501 -0.00000000000E+00 -0.00000000000E+00 -0.31740008767E+03  0.31740008767E+03  0.00000000000E+00 0.  1.
         23    2    1    2    0    0  0.14419984074E+01 -0.25272305672E+02 -0.91827146081E+02  0.13366693946E+03  0.93775568001E+02 0.  0.
         23    2    1    2    0    0  0.53303058005E+02  0.72618185655E+02 -0.17347889039E+03  0.21436853173E+03  0.88001847163E+02 0.  0.
        -13    1    4    4    0    0  0.60538660335E+02  0.36726329497E+02 -0.52992677214E+02  0.88441938648E+02  0.00000000000E+00 0.  1.
         13    1    4    4    0    0 -0.72356023307E+01  0.35891856158E+02 -0.12048621317E+03  0.12592659308E+03  0.00000000000E+00 0. -1.
        -13    1    3    3    0    0 -0.41389194863E+02  0.85504956011E+01 -0.45258734227E+02  0.61923577498E+02  0.00000000000E+00 0.  1.
         13    1    3    3    0    0  0.42831193270E+02 -0.33822801273E+02 -0.46568411854E+02  0.71743361961E+02  0.00000000000E+00 0. -1.
         -1    1    1    2    0  502 -0.54745056412E+02 -0.47345879983E+02  0.11133447810E+03  0.13279314579E+03  0.00000000000E+00 0.  1.
<scales pt_clust_5="13000.00000" pt_clust_6="13000.00000" pt_clust_7="13000.00000" pt_clust_8="13000.00000" pt_clust_9="72.37854"></scales>
<clustering>
<clus scale="   72.379">  1  9  2 -1</clus>
<clus scale="   88.002">  5  6 -1 -1</clus>
<clus scale="   93.776">  7  8 -1 -1</clus>
<clus scale="  104.189">  1  5  2 -1</clus>
<clus scale="   72.379">  1  5  2 -1</clus>
</clustering>
</event>
<event>
 9    1  0.1445593E-005  0.1264472E+03  0.7546771E-02  0.1233609E+00
          2   -1    0    0  502    0 -0.00000000000E+00  0.00000000000E+00  0.31776279395E+03  0.31776279395E+03  0.00000000000E+00 0. -1.
         21   -1    0    0  501  502  0.00000000000E+00 -0.00000000000E+00 -0.72521712568E+02  0.72521712568E+02  0.00000000000E+00 0.  1.
         23    2    1    2    0    0  0.61994065984E+02  0.31287701154E+02  0.10884064693E+03  0.15853607505E+03  0.92006609595E+02 0.  0.
         23    2    1    2    0    0 -0.93450998811E+02 -0.53418339889E+02  0.13329155086E+03  0.19316127102E+03  0.89207796045E+02 0.  0.
        -13    1    4    4    0    0 -0.29092100610E+02 -0.38744229765E+01  0.10197277418E+03  0.10611224315E+03  0.00000000000E+00 0. -1.
         13    1    4    4    0    0 -0.64358898202E+02 -0.49543916913E+02  0.31318776681E+02  0.87049027873E+02  0.00000000000E+00 0.  1.
        -13    1    3    3    0    0  0.19188149625E+02 -0.21652043996E+02 -0.14032951205E+01  0.28964898282E+02  0.00000000000E+00 0.  1.
         13    1    3    3    0    0  0.42805916359E+02  0.52939745150E+02  0.11024394205E+03  0.12957117677E+03  0.00000000000E+00 0. -1.
          2    1    1    2  501    0  0.31456932827E+02  0.22130638735E+02  0.31088835880E+01  0.38587160441E+02  0.00000000000E+00 0. -1.
<scales pt_clust_5="13000.00000" pt_clust_6="13000.00000" pt_clust_7="13000.00000" pt_clust_8="13000.00000" pt_clust_9="38.46172"></scales>
<clustering>
<clus scale="   38.462">  2  9  1 -1</clus>
<clus scale="   89.208">  5  6 -1 -1</clus>
<clus scale="   92.007">  7  8 -1 -1</clus>
<clus scale="  124.426">  2  5  1 -1</clus>
<clus scale="   38.462">  2  5  1 -1</clus>
</clustering>
</event>
<event>
 9    1  0.1445593E-005  0.1310468E+03  0.7546771E-02  0.1225963E+00
         21   -1    0    0  501  502  0.00000000000E+00  0.00000000000E+00  0.44259718530E+03  0.44259718530E+03  0.00000000000E+00 0.  1.
          3   -1    0    0  502    0 -0.00000000000E+00 -0.00000000000E+00 -0.71425200572E+02  0.71425200572E+02  0.00000000000E+00 0. -1.
         23    2    1    2    0    0  0.86598784892E+02 -0.26173391541E+02  0.11075276045E+03  0.16809760636E+03  0.88352902307E+02 0.  0.
         23    2    1    2    0    0 -0.64836275620E+02  0.10123267326E+03  0.16349781712E+03  0.22142071634E+03  0.88565233873E+02 0.  0.
        -13    1    3    3    0    0  0.54209436821E+01 -0.42041009384E+02  0.49518911812E+02  0.65184014356E+02  0.00000000000E+00 0. -1.
         13    1    3    3    0    0  0.81177841210E+02  0.15867617844E+02  0.61233848635E+02  0.10291359200E+03  0.00000000000E+00 0.  1.
        -13    1    4    4    0    0 -0.35857307911E+02 -0.44197968409E+01  0.63665186806E+02  0.73202029657E+02  0.00000000000E+00 0. -1.
         13    1    4    4    0    0 -0.28978967709E+02  0.10565247010E+03  0.99832630313E+02  0.14821868668E+03  0.00000000000E+00 0.  1.
          3    1    1    2  501    0 -0.21762509272E+02 -0.75059281715E+02  0.96921407161E+02  0.12450406318E+03  0.00000000000E+00 0. -1.
<scales pt_clust_5="13000.00000" pt_clust_6="13000.00000" pt_clust_7="13000.00000" pt_clust_8="13000.00000" pt_clust_9="78.15051"></scales>
<clustering>
<clus scale="   78.151">  1  9  2 -1</clus>
<clus scale="   88.353">  5  6 -1 -1</clus>
<clus scale="   88.565">  7  8 -1 -1</clus>
<clus scale="  130.903">  2  5  1 -1</clus>
<clus scale="   78.151">  1  5  2 -1</clus>
</clustering>
</event>
<event>
 9    1  0.1445593E-005  0.1387749E+03  0.7546771E-02  0.1215447E+00
         21   -1    0    0  501  502  0.00000000000E+00  0.00000000000E+00  0.21267552268E+03  0.21267552268E+03  0.00000000000E+00 0.  1.
         -4   -1    0    0    0  501 -0.00000000000E+00 -0.00000000000E+00 -0.32893747020E+03  0.32893747020E+03  0.00000000000E+00 0.  1.
         23    2    1    2    0    0  0.36481273015E+02  0.10281764926E+03 -0.22774804781E+03  0.26824931259E+03  0.90477445508E+02 0.  0.
         23    2    1    2    0    0 -0.58791450876E+02 -0.71333695573E+02 -0.23587235532E+02  0.13288667355E+03  0.92507186244E+02 0.  0.
        -11    1    3    3    0    0 -0.77671449059E+01  0.80110867024E+02 -0.18826422872E+03  0.20474740382E+03  0.00000000000E+00 0.  1.
         11    1    3    3    0    0  0.44248417921E+02  0.22706782233E+02 -0.39483819089E+02  0.63501908773E+02  0.00000000000E+00 0. -1.
        -13    1    4    4    0    0 -0.71352169157E+02 -0.14970348372E+02 -0.16042708455E+02  0.74649928790E+02  0.00000000000E+00 0.  1.
         13    1    4    4    0    0  0.12560718280E+02 -0.56363347201E+02 -0.75445270773E+01  0.58236744760E+02  0.00000000000E+00 0. -1.
         -4    1    1    2    0  502  0.22310177861E+02 -0.31483953685E+02  0.13507333581E+03  0.14047700674E+03  0.00000000000E+00 0.  1.
<scales pt_clust_5="13000.00000" pt_clust_6="13000.00000" pt_clust_7="13000.00000" pt_clust_8="13000.00000" pt_clust_9="38.58735"></scales>
<clustering>
<clus scale="   38.587">  1  9  2 -1</clus>
<clus scale="   90.477">  5  6 -1 -1</clus>
<clus scale="   92.507">  7  8 -1 -1</clus>
<clus scale="  137.430">  2  5  1 -1</clus>
<clus scale="   38.587">  1  5  2 -1</clus>
</clustering>
</event>
<event>
 9    1  0.1445593E-005  0.1131311E+03  0.7546771E-02  0.1262969E+00
         -1   -1    0    0    0  501 -0.00000000000E+00  0.00000000000E+00  0.16856022540E+03  0.16856022540E+03  0.00000000000E+00 0.  1.
         21   -1    0    0  501  502  0.00000000000E+00 -0.00000000000E+00 -0.10826350147E+03  0.10826350147E+03  0.00000000000E+00 0. -1.
         23    2    1    2    0    0 -0.63018033545E+02 -0.28375926832E+02  0.46119789762E+02  0.12409186569E+03  0.92169899360E+02 0.  0.
         23    2    1    2    0    0  0.68138612584E+02 -0.22100008732E+02  0.16146058257E+02  0.10195866105E+03  0.70736076052E+02 0.  0.
        -13    1    3    3    0    0  0.15868926734E+02 -0.21063345320E+02  0.35401902648E+02  0.44145011755E+02  0.00000000000E+00 0. -1.
         13    1    3    3    0    0 -0.78886960279E+02 -0.73125815117E+01  0.10717887114E+02  0.79946853938E+02  0.00000000000E+00 0.  1.
        -13    1    4    4    0    0  0.70182140278E+02 -0.61228844351E+00 -0.67302138292E+01  0.70506762011E+02  0.00000000000E+00 0. -1.
         13    1    4    4    0    0 -0.20435276945E+01 -0.21487720289E+02  0.22876272086E+02  0.31451899039E+02  0.00000000000E+00 0.  1.
         -1    1    1    2    0  502 -0.51205790386E+01  0.50475935564E+02 -0.19691240858E+01  0.50773200120E+02  0.00000000000E+00 0.  1.
<scales pt_clust_5="13000.00000" pt_clust_6="13000.00000" pt_clust_7="13000.00000" pt_clust_8="13000.00000" pt_clust_9="50.73500"></scales>
<clustering>
<clus scale="   50.735">  2  9  1 -1</clus>
<clus scale="   70.736">  7  8 -1 -1</clus>
<clus scale="   92.170">  5  6 -1 -1</clus>
<clus scale="   96.472">  2  7  1 -1</clus>
<clus scale="   50.735">  2  5  1 -1</clus>
</clustering>
</event>
<event>
 9    1  0.1445593E-005  0.1065274E+03  0.7546771E-02  0.1268856E+00
          2   -1    0    0  502    0 -0.00000000000E+00  0.00000000000E+00  0.37170029254E+03  0.37170029254E+03  0.00000000000E+00 0. -1.
         21   -1    0    0  501  502  0.00000000000E+00 -0.00000000000E+00 -0.12972834795E+03  0.12972834795E+03  0.00000000000E+00 0. -1.
         23    2    1    2    0    0 -0.46320861446E+02 -0.24713045086E+02  0.31071064284E+03  0.32813205915E+03  0.91505124788E+02 0.  0.
         23    2    1    2    0    0  0.19767602833E+02  0.12199468781E+01 -0.17083619346E+01  0.97467383847E+02  0.95418688009E+02 0.  0.
        -11    1    4    4    0    0  0.51430058026E+02  0.13104949573E+02  0.20623823415E+02  0.56939728346E+02  0.00000000000E+00 0.  1.
         11    1    4    4    0    0 -0.31662455193E+02 -0.11885002695E+02 -0.22332185350E+02  0.40527655501E+02  0.00000000000E+00 0. -1.
        -13    1    3    3    0    0 -0.48665916056E+02 -0.54243869285E+02  0.18181727890E+03  0.19587825721E+03  0.00000000000E+00 0.  1.
         13    1    3    3    0    0  0.23450546102E+01  0.29530824199E+02  0.12889336394E+03  0.13225380193E+03  0.00000000000E+00 0. -1.
          2    1    1    2  501    0  0.26553258612E+02  0.23493098208E+02 -0.67030336312E+02  0.75829197493E+02  0.00000000000E+00 0. -1.
<scales pt_clust_5="13000.00000" pt_clust_6="13000.00000" pt_clust_7="13000.00000" pt_clust_8="13000.00000" pt_clust_9="35.45421"></scales>
<clustering>
<clus scale="   35.454">  2  9  1 -1</clus>
<clus scale="   91.505">  7  8 -1 -1</clus>
<clus scale="   95.419">  5  6 -1 -1</clus>
<clus scale="  103.037">  1  7  2 -1</clus>
<clus scale="   35.454">  2  5  1 -1</clus>
</clustering>
</event>
<event>
 9    1  0.1445593E-005  0.1827509E+03  0.7546771E-02  0.1165288E+00
          1   -1    0    0  502    0 -0.00000000000E+00  0.00000000000E+00  0.21819029857E+03  0.21819029857E+03  0.00000000000E+00 0. -1.
         21   -1    0    0  501  502  0.00000000000E+00 -0.00000000000E+00 -0.24053912999E+03  0.24053912999E+03  0.00000000000E+00 0.  1.
         23    2    1    2    0    0 -0.15236849157E+03 -0.61194155861E+02  0.97887651418E+02  0.21180610186E+03  0.91208281138E+02 0.  0.
         23    2    1    2    0    0  0.11963947135E+03  0.72947619718E+02 -0.12834373155E+03  0.21121534218E+03  0.92221738304E+02 0.  0.
        -11    1    4    4    0    0  0.10760588582E+02  0.48206389150E+02 -0.68747186084E+02  0.84651177286E+02  0.00000000000E+00 0.  1.
         11    1    4    4    0    0  0.10887888277E+03  0.24741230568E+02 -0.59596545461E+02  0.12656416489E+03  0.00000000000E+00 0. -1.
        -13    1    3    3    0    0  0.42723752495E+00 -0.20212842985E+02 -0.76730285048E+01  0.21624451898E+02  0.00000000000E+00 0.  1.
         13    1    3    3    0    0 -0.15279572910E+03 -0.40981312876E+02  0.10556067992E+03  0.19018164996E+03  0.00000000000E+00 0. -1.
          1    1    1    2  501    0  0.32729020220E+02 -0.11753463856E+02  0.81072487148E+01  0.35707984526E+02  0.00000000000E+00 0. -1.
<scales pt_clust_5="13000.00000" pt_clust_6="13000.00000" pt_clust_7="13000.00000" pt_clust_8="13000.00000" pt_clust_9="34.77548"></scales>
<clustering>
<clus scale="   34.775">  2  9  1 -1</clus>
<clus scale="   91.208">  7  8 -1 -1</clus>
<clus scale="   92.222">  5  6 -1 -1</clus>
<clus scale="  182.242">  1  7  2 -1</clus>
<clus scale="   34.775">  2  5  1 -1</clus>
</clustering>
</event>
<event>
 9    1  0.1445593E-005  0.1027791E+03  0.7546771E-02  0.1275013E+00
         21   -1    0    0  501  502  0.00000000000E+00  0.00000000000E+00  0.17439179890E+03  0.17439179890E+03  0.00000000000E+00 0.  1.
         -2   -1    0    0    0  501 -0.00000000000E+00 -0.00000000000E+00 -0.82522009937E+02  0.82522009937E+02  0.00000000000E+00 0.  1.
         23    2    1    2    0    0  0.36453253754E+02 -0.24262949187E+02  0.36245945464E+02  0.10687110379E+03  0.90499358287E+02 0.  0.
         23    2    1    2    0    0 -0.55233075688E+02 -0.16818202147E+01  0.47663000616E+02  0.11703985986E+03  0.91504349614E+02 0.  0.
        -11    1    4    4    0    0  0.12310326042E+02  0.16332250403E+02 -0.13208974766E+02  0.24346735815E+02  0.00000000000E+00 0. -1.
         11    1    4    4    0    0 -0.67543401730E+02 -0.18014070618E+02  0.60871975383E+02  0.92693124041E+02  0.00000000000E+00 0.  1.
        -13    1    3    3    0    0  0.56100411749E+01 -0.19883117773E+02  0.62691133636E+02  0.66007493294E+02  0.00000000000E+00 0.  1.
         13    1    3    3    0    0  0.30843212579E+02 -0.43798314145E+01 -0.26445188172E+02  0.40863610497E+02  0.00000000000E+00 0. -1.
         -2    1    1    2    0  502  0.18779821934E+02  0.25944769402E+02  0.79608428826E+01  0.33002845189E+02  0.00000000000E+00 0.  1.
<scales pt_clust_5="13000.00000" pt_clust_6="13000.00000" pt_clust_7="13000.00000" pt_clust_8="13000.00000" pt_clust_9="32.02833"></scales>
<clustering>
<clus scale="   32.028">  1  9  2 -1</clus>
<clus scale="   90.499">  7  8 -1 -1</clus>
<clus scale="   91.504">  5  6 -1 -1</clus>
<clus scale="  101.885">  2  7  1 -1</clus>
<clus scale="   32.028">  1  5  2 -1</clus>
</clustering>
</event>
<event>
 9    1  0.1445593E-005  0.1114917E+03  0.7546771E-02  0.1258840E+00
         21   -1    0    0  501  502  0.00000000000E+00  0.00000000000E+00  0.73631638905E+02  0.73631638905E+02  0.00000000000E+00 0.  1.
          1   -1    0    0  502    0 -0.00000000000E+00 -0.00000000000E+00 -0.41405667157E+03  0.41405667157E+03  0.00000000000E+00 0. -1.
         23    2    1    2    0    0  0.46378647932E+02  0.43610254409E+02 -0.26985367917E+03  0.29120259560E+03  0.89023088285E+02 0.  0.
         23    2    1    2    0    0 -0.65985579243E+02 -0.38930897766E+02 -0.10538416558E+03  0.15625811216E+03  0.86261600921E+02 0.  0.
        -11    1    4    4    0    0  0.15888823547E+02 -0.13745398417E+02 -0.50047386686E+02  0.54278279315E+02  0.00000000000E+00 0.  1.
         11    1    4    4    0    0 -0.81874402789E+02 -0.25185499349E+02 -0.55336778890E+02  0.10197983285E+03  0.00000000000E+00 0. -1.
        -13    1    3    3    0    0  0.55140894517E+02  0.65277926299E+02 -0.19826493596E+03  0.21589513830E+03  0.00000000000E+00 0.  1.
         13    1    3    3    0    0 -0.87622465856E+01 -0.21667671890E+02 -0.71588743212E+02  0.75307457300E+02  0.00000000000E+00 0. -1.
          1    1    1    2  501    0  0.19606931311E+02 -0.46793566434E+01  0.34812812089E+02  0.40227602707E+02  0.00000000000E+00 0. -1.
<scales pt_clust_5="13000.00000" pt_clust_6="13000.00000" pt_clust_7="13000.00000" pt_clust_8="13000.00000" pt_clust_9="20.15758"></scales>
<clustering>
<clus scale="   20.158">  1  9  2 -1</clus>
<clus scale="   86.262">  5  6 -1 -1</clus>
<clus scale="   89.023">  7  8 -1 -1</clus>
<clus scale="  109.299">  1  5  2 -1</clus>
<clus scale="   20.158">  1  5  2 -1</clus>
</clustering>
</event>
<event>
 9    1  0.1445593E-005  0.9086899E+02  0.7546771E-02  0.1303284E+00
         21   -1    0    0  501  502  0.00000000000E+00  0.00000000000E+00  0.27270580812E+02  0.27270580812E+02  0.00000000000E+00 0.  1.
          1   -1    0    0  502    0 -0.00000000000E+00 -0.00000000000E+00 -0.39102232855E+03  0.39102232855E+03  0.00000000000E+00 0. -1.
         23    2    1    2    0    0 -0.55932951827E+01 -0.77812387697E+01 -0.20321588734E+03  0.22254271367E+03  0.90203824260E+02 0.  0.
         23    2    1    2    0    0  0.19024235446E+02 -0.10802420608E+02 -0.12165274245E+03  0.15060997623E+03  0.86054409348E+02 0.  0.
        -11    1    4    4    0    0  0.51622055732E+02 -0.19282666373E+02 -0.74895726131E+02  0.92984018268E+02  0.00000000000E+00 0.  1.
         11    1    4    4    0    0 -0.32597820287E+02  0.84802457652E+01 -0.46757016323E+02  0.57625957962E+02  0.00000000000E+00 0. -1.
        -13    1    3    3    0    0  0.70185628519E+01  0.36318328881E+02 -0.47453668218E+02  0.60167531647E+02  0.00000000000E+00 0.  1.
         13    1    3    3    0    0 -0.12611858035E+02 -0.44099567650E+02 -0.15576221913E+03  0.16237518202E+03  0.00000000000E+00 0. -1.
          1    1    1    2  501    0 -0.13430940263E+02  0.18583659377E+02 -0.38883117938E+02  0.45140219459E+02  0.00000000000E+00 0. -1.
<scales pt_clust_5="13000.00000" pt_clust_6="13000.00000" pt_clust_7="13000.00000" pt_clust_8="13000.00000" pt_clust_9="22.92908"></scales>
<clustering>
<clus scale="   22.929">  1  9  2 -1</clus>
<clus scale="   86.054">  5  6 -1 -1</clus>
<clus scale="   86.751">  1  5  2 -1</clus>
<clus scale="   90.204">  7  8 -1 -1</clus>
<clus scale="   22.929">  1  5  2 -1</clus>
</clustering>
</event>
<event>
 9    1  0.1445593E-005  0.9447526E+02  0.7546771E-02  0.1293336E+00
         -1   -1    0    0    0  501 -0.00000000000E+00  0.00000000000E+00  0.81902467455E+02  0.81902467455E+02  0.00000000000E+00 0.  1.
         21   -1    0    0  501  502  0.00000000000E+00 -0.00000000000E+00 -0.15717737316E+03  0.15717737316E+03  0.00000000000E+00 0. -1.
         23    2    1    2    0    0 -0.20429479144E+02 -0.21151132500E+02 -0.92518223582E+01  0.96002315183E+02  0.90918173537E+02 0.  0.
         23    2    1    2    0    0  0.54216141606E+01  0.27125426850E+01 -0.25825026772E+02  0.96375262552E+02  0.92652616997E+02 0.  0.
        -11    1    3    3    0    0 -0.29660663563E+02  0.30785302109E+02 -0.25095130847E+01  0.42822744481E+02  0.00000000000E+00 0.  1.
         11    1    3    3    0    0  0.92311844191E+01 -0.51936434609E+02 -0.67423092736E+01  0.53179570702E+02  0.00000000000E+00 0. -1.
        -13    1    4    4    0    0 -0.42102011401E+02  0.22279578093E+01  0.25904615992E+00  0.42161715631E+02  0.00000000000E+00 0.  1.
         13    1    4    4    0    0  0.47523625562E+02  0.48458487562E+00 -0.26084072932E+02  0.54213546921E+02  0.00000000000E+00 0. -1.
         -1    1    1    2    0  502  0.15007864983E+02  0.18438589815E+02 -0.40198056575E+02  0.46702262881E+02  0.00000000000E+00 0.  1.
<scales pt_clust_5="13000.00000" pt_clust_6="13000.00000" pt_clust_7="13000.00000" pt_clust_8="13000.00000" pt_clust_9="23.77431"></scales>
<clustering>
<clus scale="   23.774">  2  9  1 -1</clus>
<clus scale="   90.918">  5  6 -1 -1</clus>
<clus scale="   92.653">  7  8 -1 -1</clus>
<clus scale="   92.775">  1  5  2 -1</clus>
<clus scale="   23.774">  2  5  1 -1</clus>
</clustering>
</event>
<event>
 9    1  0.1445593E-005  0.1629851E+03  0.7546771E-02  0.1186417E+00
         21   -1    0    0  501  502  0.00000000000E+00  0.00000000000E+00  0.10836798305E+03  0.10836798305E+03  0.00000000000E+00 0. -1.
          2   -1    0    0  502    0 -0.00000000000E+00 -0.00000000000E+00 -0.62166601499E+03  0.62166601499E+03  0.00000000000E+00 0. -1.
         23    2    1    2    0    0  0.98017013665E+02  0.14118036158E+03 -0.44354858749E+03  0.48434331241E+03  0.91180400014E+02 0.  0.
         23    2    1    2    0    0 -0.47083297579E+02 -0.43553023153E+02 -0.68844017562E+02  0.13557183875E+03  0.97603903458E+02 0.  0.
        -11    1    3    3    0    0 -0.17785645311E+02  0.16064298250E+02 -0.60208554793E+02  0.64803247817E+02  0.00000000000E+00 0.  1.
         11    1    3    3    0    0  0.11580265898E+03  0.12511606333E+03 -0.38334003270E+03  0.41954006459E+03  0.00000000000E+00 0. -1.
        -11    1    4    4    0    0 -0.13564042006E+02  0.23541693704E+02  0.78692559713E+01  0.28286388379E+02  0.00000000000E+00 0.  1.
         11    1    4    4    0    0 -0.33519255573E+02 -0.67094716856E+02 -0.76713273534E+02  0.10728545037E+03  0.00000000000E+00 0. -1.
          2    1    1    2  501    0 -0.50933716085E+02 -0.97627338427E+02 -0.90542688698E+00  0.11011884689E+03  0.00000000000E+00 0. -1.
<scales pt_clust_5="13000.00000" pt_clust_6="13000.00000" pt_clust_7="13000.00000" pt_clust_8="13000.00000" pt_clust_9="110.11512"></scales>
<clustering>
<clus scale="   91.180">  5  6 -1 -1</clus>
<clus scale="   97.604">  7  8 -1 -1</clus>
<clus scale="  110.115">  1  9  2 -1</clus>
<clus scale="  159.222">  2  5  1 -1</clus>
<clus scale="  110.115">  1  5  2 -1</clus>
</clustering>
</event>
<event>
 9    1  0.1445593E-005  0.1024072E+03  0.7546771E-02  0.1277049E+00
         21   -1    0    0  501  502  0.00000000000E+00  0.00000000000E+00  0.25342025299E+03  0.25342025299E+03  0.00000000000E+00 0.  1.
         -3   -1    0    0    0  501 -0.00000000000E+00 -0.00000000000E+00 -0.14694115020E+03  0.14694115020E+03  0.00000000000E+00 0.  1.
         23    2    1    2    0    0 -0.17766983909E+02  0.37837936437E+02 -0.41978433718E+02  0.10558541468E+03  0.87399746828E+02 0.  0.
         23    2    1    2    0    0 -0.23220246736E+02 -0.58734159745E+02 -0.26362362512E+02  0.11400374972E+03  0.91175651433E+02 0.  0.
        -11    1    3    3    0    0 -0.52180185705E+02  0.29654055447E+02 -0.35169470597E+02  0.69563111250E+02  0.00000000000E+00 0.  1.
         11    1    3    3    0    0  0.34413201796E+02  0.81838809896E+01 -0.68089631209E+01  0.36022303434E+02  0.00000000000E+00 0. -1.
        -13    1    4    4    0    0 -0.29216198113E+02  0.16920558232E+00 -0.43468082014E+02  0.52374507317E+02  0.00000000000E+00 0.  1.
         13    1    4    4    0    0  0.59959513770E+01 -0.58903365327E+02  0.17105719502E+02  0.61629242405E+02  0.00000000000E+00 0. -1.
         -3    1    1    2    0  502  0.40987230646E+02  0.20896223308E+02  0.17481989901E+03  0.18077223878E+03  0.00000000000E+00 0.  1.
<scales pt_clust_5="13000.00000" pt_clust_6="13000.00000" pt_clust_7="13000.00000" pt_clust_8="13000.00000" pt_clust_9="46.00658"></scales>
<clustering>
<clus scale="   46.007">  1  9  2 -1</clus>
<clus scale="   87.400">  5  6 -1 -1</clus>
<clus scale="   91.176">  7  8 -1 -1</clus>
<clus scale="   99.060">  2  5  1 -1</clus>
<clus scale="   46.007">  1  5  2 -1</clus>
</clustering>
</event>
<event>
 9    1  0.1445593E-005  0.1739709E+03  0.7546771E-02  0.1197449E+00
         21   -1    0    0  501  502  0.00000000000E+00  0.00000000000E+00  0.31180927757E+03  0.31180927757E+03  0.00000000000E+00 0. -1.
          3   -1    0    0  502    0 -0.00000000000E+00 -0.00000000000E+00 -0.22501295051E+03  0.22501295051E+03  0.00000000000E+00 0. -1.
         23    2    1    2    0    0  0.45592060334E+02  0.38047512030E+00  0.65994062497E+02  0.12206288877E+03  0.92007346468E+02 0.  0.
         23    2    1    2    0    0  0.95073835137E+02 -0.64405283958E+02 -0.13190246382E+03  0.19749267283E+03  0.91749774541E+02 0.  0.
        -11    1    3    3    0    0 -0.22720830603E+02  0.15700220184E+02  0.28153689680E+01  0.27760752143E+02  0.00000000000E+00 0.  1.
         11    1    3    3    0    0  0.68312890937E+02 -0.15319745064E+02  0.63178693529E+02  0.94302136630E+02  0.00000000000E+00 0. -1.
        -13    1    4    4    0    0  0.18945830451E+02 -0.11063073762E+02 -0.94965220229E+02  0.97466553985E+02  0.00000000000E+00 0.  1.
         13    1    4    4    0    0  0.76128004686E+02 -0.53342210196E+02 -0.36937243592E+02  0.10002611884E+03  0.00000000000E+00 0. -1.
          3    1    1    2  501    0 -0.14066589547E+03  0.64024808837E+02  0.15270472838E+03  0.21726666648E+03  0.00000000000E+00 0. -1.
<scales pt_clust_5="13000.00000" pt_clust_6="13000.00000" pt_clust_7="13000.00000" pt_clust_8="13000.00000" pt_clust_9="147.81025"></scales>
<clustering>
<clus scale="   91.750">  7  8 -1 -1</clus>
<clus scale="   92.007">  5  6 -1 -1</clus>
<clus scale="  102.685">  2  5  1 -1</clus>
<clus scale="  147.810">  1  9  2 -1</clus>
<clus scale="  147.810">  1  5  2 -1</clus>
</clustering>
</event>
<event>
 9    1  0.1445593E-005  0.1092248E+03  0.7546771E-02  0.1263585E+00
         21   -1    0    0  501  502  0.00000000000E+00  0.00000000000E+00  0.93808894019E+02  0.93808894019E+02  0.00000000000E+00 0.  1.
          1   -1    0    0  502    0 -0.00000000000E+00 -0.00000000000E+00 -0.18126363147E+03  0.18126363147E+03  0.00000000000E+00 0. -1.
         23    2    1    2    0    0  0.24294981515E+02  0.35005526989E+02 -0.49390839776E+02  0.11302548872E+03  0.92302074730E+02 0.  0.
         23    2    1    2    0    0 -0.42818377413E+02 -0.45191794930E+02 -0.61929963127E+02  0.13016498336E+03  0.96082728863E+02 0.  0.
        -11    1    4    4    0    0 -0.23960356343E+02 -0.31154478628E+02  0.20584513075E+02  0.44366906509E+02  0.00000000000E+00 0.  1.
         11    1    4    4    0    0 -0.18858021070E+02 -0.14037316302E+02 -0.82514476202E+02  0.85798076846E+02  0.00000000000E+00 0. -1.
        -11    1    3    3    0    0 -0.31569792921E+02  0.26532056877E+01  0.99969276861E-01  0.31681245546E+02  0.00000000000E+00 0.  1.
         11    1    3    3    0    0  0.55864774436E+02  0.32352321301E+02 -0.49490809053E+02  0.81344243171E+02  0.00000000000E+00 0. -1.
          1    1    1    2  501    0  0.18523395898E+02  0.10186267941E+02  0.23866065450E+02  0.31882053419E+02  0.00000000000E+00 0. -1.
<scales pt_clust_5="13000.00000" pt_clust_6="13000.00000" pt_clust_7="13000.00000" pt_clust_8="13000.00000" pt_clust_9="21.13945"></scales>
<clustering>
<clus scale="   21.139">  1  9  2 -1</clus>
<clus scale="   92.302">  7  8 -1 -1</clus>
<clus scale="   96.083">  5  6 -1 -1</clus>
<clus scale="  105.914">  2  7  1 -1</clus>
<clus scale="   21.139">  1  5  2 -1</clus>
</clustering>
</event>
<event>
 9    1  0.1445593E-005  0.1072988E+03  0.7546771E-02  0.1268003E+00
          1   -1    0    0  502    0 -0.00000000000E+00  0.00000000000E+00  0.55207278412E+03  0.55207278412E+03  0.00000000000E+00 0. -1.
         21   -1    0    0  501  502  0.00000000000E+00 -0.00000000000E+00 -0.61371825561E+02  0.61371825561E+02  0.00000000000E+00 0. -1.
         23    2    1    2    0    0  0.27691558331E+01 -0.31186489306E+02  0.31857796404E+03  0.33423323993E+03  0.96123223849E+02 0.  0.
         23    2    1    2    0    0 -0.21158211118E+02  0.92236768984E+02  0.17095071526E+03  0.21544093584E+03  0.90748875126E+02 0.  0.
        -11    1    3    3    0    0 -0.80060967419E+01 -0.55216302993E+02  0.29021416694E+03  0.29552867948E+03  0.00000000000E+00 0.  1.
         11    1    3    3    0    0  0.10775252575E+02  0.24029813688E+02  0.28363797103E+02  0.38704560455E+02  0.00000000000E+00 0. -1.
        -13    1    4    4    0    0 -0.44976611681E+02  0.21021718537E+02  0.37146579454E+02  0.62005456322E+02  0.00000000000E+00 0.  1.
         13    1    4    4    0    0  0.23818400563E+02  0.71215050447E+02  0.13380413580E+03  0.15343547951E+03  0.00000000000E+00 0. -1.
          1    1    1    2  501    0  0.18389055285E+02 -0.61050279679E+02  0.11722792618E+01  0.63770433916E+02  0.00000000000E+00 0. -1.
<scales pt_clust_5="13000.00000" pt_clust_6="13000.00000" pt_clust_7="13000.00000" pt_clust_8="13000.00000" pt_clust_9="63.75966"></scales>
<clustering>
<clus scale="   63.760">  2  9  1 -1</clus>
<clus scale="   90.749">  7  8 -1 -1</clus>
<clus scale="   96.123">  5  6 -1 -1</clus>
<clus scale="  102.512">  2  7  1 -1</clus>
<clus scale="   63.760">  2  5  1 -1</clus>
</clustering>
</event>
<event>
 9    1  0.1445593E-005  0.1077112E+03  0.7546771E-02  0.1266095E+00
          2   -1    0    0  502    0 -0.00000000000E+00  0.00000000000E+00  0.49122929445E+02  0.49122929445E+02  0.00000000000E+00 0. -1.
         21   -1    0    0  501  502  0.00000000000E+00 -0.00000000000E+00 -0.42269426723E+03  0.42269426723E+03  0.00000000000E+00 0.  1.
         23    2    1    2    0    0  0.49980316919E+02 -0.29933109670E+02 -0.41891658747E+02  0.11569097675E+03  0.90749478761E+02 0.  0.
         23    2    1    2    0    0 -0.36128753919E+02  0.14119332956E+02 -0.21682381342E+03  0.23936230769E+03  0.93686209532E+02 0.  0.
        -11    1    4    4    0    0  0.23583456110E+02  0.24980227043E+01 -0.13838835584E+02  0.27457838404E+02  0.00000000000E+00 0. -1.
         11    1    4    4    0    0 -0.59712210028E+02  0.11621310252E+02 -0.20298497783E+03  0.21190446929E+03  0.00000000000E+00 0.  1.
        -13    1    3    3    0    0  0.67388158252E+02 -0.47121499409E+02 -0.39152938692E+02  0.91074432127E+02  0.00000000000E+00 0. -1.
         13    1    3    3    0    0 -0.17407841333E+02  0.17188389739E+02 -0.27387200549E+01  0.24616544624E+02  0.00000000000E+00 0.  1.
          2    1    1    2  501    0 -0.13851563000E+02  0.15813776714E+02 -0.11485586562E+03  0.11676391223E+03  0.00000000000E+00 0. -1.
<scales pt_clust_5="13000.00000" pt_clust_6="13000.00000" pt_clust_7="13000.00000" pt_clust_8="13000.00000" pt_clust_9="21.02240"></scales>
<clustering>
<clus scale="   21.022">  2  9  1 -1</clus>
<clus scale="   90.749">  7  8 -1 -1</clus>
<clus scale="   93.686">  5  6 -1 -1</clus>
<clus scale="  105.167">  1  7  2 -1</clus>
<clus scale="   21.022">  2  5  1 -1</clus>
</clustering>
</event>
<event>
 9    1  0.1445593E-005  0.9944568E+02  0.7546771E-02  0.1282003E+00
          2   -1    0    0  502    0 -0.00000000000E+00  0.00000000000E+00  0.14598170439E+03  0.14598170439E+03  0.00000000000E+00 0. -1.
         21   -1    0    0  501  502  0.00000000000E+00 -0.00000000000E+00 -0.12478603090E+03  0.12478603090E+03  0.00000000000E+00 0. -1.
         23    2    1    2    0    0  0.33767953897E+02  0.62556661219E+01  0.53740487030E+02  0.11205935170E+03  0.92140383594E+02 0.  0.
         23    2    1    2    0    0 -0.15842034930E+02 -0.50269162649E+02 -0.15407468873E+02  0.10818893159E+03  0.93217466373E+02 0.  0.
        -13    1    3    3    0    0  0.19383009901E+02  0.40766367080E+02  0.59016347845E+02  0.74300249466E+02  0.00000000000E+00 0.  1.
         13    1    3    3    0    0  0.14384943996E+02 -0.34510700958E+02 -0.52758608155E+01  0.37759102237E+02  0.00000000000E+00 0. -1.
        -13    1    4    4    0    0 -0.31716678093E+02 -0.69361950866E+02 -0.26838583872E+02  0.80853803135E+02  0.00000000000E+00 0. -1.
         13    1    4    4    0    0  0.15874643163E+02  0.19092788217E+02  0.11431114999E+02  0.27335128453E+02  0.00000000000E+00 0.  1.
          2    1    1    2  501    0 -0.17925918967E+02  0.44013496527E+02 -0.17137344668E+02  0.50519451992E+02  0.00000000000E+00 0. -1.
<scales pt_clust_5="13000.00000" pt_clust_6="13000.00000" pt_clust_7="13000.00000" pt_clust_8="13000.00000" pt_clust_9="47.52396"></scales>
<clustering>
<clus scale="   47.524">  2  9  1 -1</clus>
<clus scale="   92.140">  5  6 -1 -1</clus>
<clus scale="   93.217">  7  8 -1 -1</clus>
<clus scale="   98.437">  1  5  2 -1</clus>
<clus scale="   47.524">  2  5  1 -1</clus>
</clustering>
</event>
<event>
 9    1  0.1445593E-005  0.9269883E+02  0.7546771E-02  0.1298183E+00
          4   -1    0    0  502    0 -0.00000000000E+00  0.00000000000E+00  0.86081528429E+02  0.86081528429E+02  0.00000000000E+00 0. -1.
         21   -1    0    0  501  502  0.00000000000E+00 -0.00000000000E+00 -0.16650033926E+03  0.16650033926E+03  0.00000000000E+00 0.  1.
         23    2    1    2    0    0 -0.18707419498E+02  0.20964007248E+01  0.83287193085E+00  0.93893887047E+02  0.91983726326E+02 0.  0.
         23    2    1    2    0    0 -0.15774517031E+02 -0.22573184006E+02 -0.71391990306E+02  0.11739008559E+03  0.89023771500E+02 0.  0.
        -11    1    4    4    0    0  0.48694487534E+01 -0.24667168287E+02 -0.87551379026E+02  0.91090200855E+02  0.00000000000E+00 0.  1.
         11    1    4    4    0    0 -0.20643965784E+02  0.20939842814E+01  0.16159388720E+02  0.26299884739E+02  0.00000000000E+00 0. -1.
        -13    1    3    3    0    0 -0.30961283455E+02 -0.36058247818E+02 -0.16392728426E+02  0.50274445339E+02  0.00000000000E+00 0. -1.
         13    1    3    3    0    0  0.12253863956E+02  0.38154648543E+02  0.17225600357E+02  0.43619441708E+02  0.00000000000E+00 0.  1.
          4    1    1    2  501    0  0.34481936529E+02  0.20476783281E+02 -0.98596924602E+01  0.41297895052E+02  0.00000000000E+00 0. -1.
<scales pt_clust_5="13000.00000" pt_clust_6="13000.00000" pt_clust_7="13000.00000" pt_clust_8="13000.00000" pt_clust_9="40.10367"></scales>
<clustering>
<clus scale="   40.104">  2  9  1 -1</clus>
<clus scale="   89.024">  5  6 -1 -1</clus>
<clus scale="   89.762">  2  5  1 -1</clus>
<clus scale="   91.984">  7  8 -1 -1</clus>
<clus scale="   40.104">  2  5  1 -1</clus>
</clustering>
</event>
<event>
 9    1  0.1445593E-005  0.2242669E+03  0.7546771E-02  0.1130968E+00
          3   -1    0    0  502    0 -0.00000000000E+00  0.00000000000E+00  0.62478847401E+03  0.62478847401E+03  0.00000000000E+00 0. -1.
         21   -1    0    0  501  502  0.00000000000E+00 -0.00000000000E+00 -0.25483036457E+03  0.25483036457E+03  0.00000000000E+00 0. -1.
         23    2    1    2    0    0  0.96163959863E+02 -0.17181494112E+03  0.43952341112E+03  0.48968553166E+03  0.88561898224E+02 0.  0.
         23    2    1    2    0    0 -0.13584960827E+03  0.19533750203E+03  0.51724449955E+02  0.26016634111E+03  0.91647425284E+02 0.  0.
        -11    1    3    3    0    0 -0.92886738107E+01 -0.43915748481E+02  0.14414045880E+03  0.15096802406E+03  0.00000000000E+00 0.  1.
         11    1    3    3    0    0  0.10545263367E+03 -0.12789919264E+03  0.29538295232E+03  0.33871750759E+03  0.00000000000E+00 0. -1.
        -13    1    4    4    0    0 -0.49461752115E+01  0.80115669266E+02  0.10321325406E+02  0.80929073079E+02  0.00000000000E+00 0.  1.
         13    1    4    4    0    0 -0.13090343306E+03  0.11522183276E+03  0.41403124549E+02  0.17923726804E+03  0.00000000000E+00 0. -1.
          3    1    1    2  501    0  0.39685648404E+02 -0.23522560907E+02 -0.12128975164E+03  0.12976696581E+03  0.00000000000E+00 0. -1.
<scales pt_clust_5="13000.00000" pt_clust_6="13000.00000" pt_clust_7="13000.00000" pt_clust_8="13000.00000" pt_clust_9="46.13309"></scales>
<clustering>
<clus scale="   46.133">  2  9  1 -1</clus>
<clus scale="   88.562">  5  6 -1 -1</clus>
<clus scale="   91.647">  7  8 -1 -1</clus>
<clus scale="  223.024">  1  5  2 -1</clus>
<clus scale="   46.133">  2  5  1 -1</clus>
</clustering>
</event>
<event>
 9    1  0.1445593E-005  0.2117366E+03  0.7546771E-02  0.1142974E+00
          2   -1    0    0  502    0 -0.00000000000E+00  0.00000000000E+00  0.97799563718E+03  0.97799563718E+03  0.00000000000E+00 0.  1.
         21   -1    0    0  501  502  0.00000000000E+00 -0.00000000000E+00 -0.10422690421E+03  0.10422690421E+03  0.00000000000E+00 0. -1.
         23    2    1    2    0    0 -0.76246785672E+02  0.15196795555E+03  0.67756785646E+03  0.70844311061E+03  0.11783721408E+03 0.  0.
         23    2    1    2    0    0  0.82196055822E+02 -0.17248365021E+03  0.24305953397E+03  0.32228165100E+03  0.90998485360E+02 0.  0.
        -13    1    3    3    0    0  0.38144887384E+00  0.77621126212E+02  0.13726558165E+03  0.15769281735E+03  0.00000000000E+00 0. -1.
         13    1    3    3    0    0 -0.76628234546E+02  0.74346829340E+02  0.54030227481E+03  0.55075029326E+03  0.00000000000E+00 0.  1.
        -13    1    4    4    0    0  0.60735341693E+02 -0.83076081571E+02  0.64537319671E+02  0.12147214780E+03  0.00000000000E+00 0.  1.
         13    1    4    4    0    0  0.21460714130E+02 -0.89407568642E+02  0.17852221430E+03  0.20080950321E+03  0.00000000000E+00 0. -1.
          2    1    1    2  501    0 -0.59492701505E+01  0.20515694661E+02 -0.46858657464E+02  0.51497779778E+02  0.00000000000E+00 0.  1.
<scales pt_clust_5="13000.00000" pt_clust_6="13000.00000" pt_clust_7="13000.00000" pt_clust_8="13000.00000" pt_clust_9="21.36089"></scales>
<clustering>
<clus scale="   21.361">  2  9  1 -1</clus>
<clus scale="   90.998">  7  8 -1 -1</clus>
<clus scale="  117.837">  5  6 -1 -1</clus>
<clus scale="  198.059">  2  7  1 -1</clus>
<clus scale="   21.361">  2  5  1 -1</clus>
</clustering>
</event>
<event>
 9    1  0.1445593E-005  0.1086441E+03  0.7546771E-02  0.1263416E+00
          2   -1    0    0  502    0 -0.00000000000E+00  0.00000000000E+00  0.34054938541E+03  0.34054938541E+03  0.00000000000E+00 0. -1.
         21   -1    0    0  501  502  0.00000000000E+00 -0.00000000000E+00 -0.65180749299E+02  0.65180749299E+02  0.00000000000E+00 0. -1.
         23    2    1    2    0    0  0.48508336076E+02  0.29260644720E+02  0.16416597077E+03  0.19711031823E+03  0.93235012728E+02 0.  0.
         23    2    1    2    0    0 -0.58339966530E+02 -0.32285111682E+01  0.13377070557E+03  0.17279176358E+03  0.92457649292E+02 0.  0.
        -11    1    3    3    0    0  0.43502695933E+02 -0.22687481348E+02  0.11658124304E+03  0.12648475241E+03  0.00000000000E+00 0.  1.
         11    1    3    3    0    0  0.50056401430E+01  0.51948126069E+02  0.47584727728E+02  0.70625565826E+02  0.00000000000E+00 0. -1.
        -13    1    4    4    0    0  0.38312130003E+01  0.23358379806E+02  0.87913794407E+00  0.23686810333E+02  0.00000000000E+00 0. -1.
         13    1    4    4    0    0 -0.62171179531E+02 -0.26586890975E+02  0.13289156763E+03  0.14910495325E+03  0.00000000000E+00 0.  1.
          2    1    1    2  501    0  0.98316304541E+01 -0.26032133552E+02 -0.22568040226E+02  0.35828052896E+02  0.00000000000E+00 0. -1.
<scales pt_clust_5="13000.00000" pt_clust_6="13000.00000" pt_clust_7="13000.00000" pt_clust_8="13000.00000" pt_clust_9="27.82684"></scales>
<clustering>
<clus scale="   27.827">  2  9  1 -1</clus>
<clus scale="   92.458">  7  8 -1 -1</clus>
<clus scale="   93.235">  5  6 -1 -1</clus>
<clus scale="  107.978">  2  7  1 -1</clus>
<clus scale="   27.827">  2  5  1 -1</clus>
</clustering>
</event>
<event>
 9    1  0.1445593E-005  0.9914083E+02  0.7546771E-02  0.1282727E+00
         21   -1    0    0  501  502  0.00000000000E+00  0.00000000000E+00  0.84413678544E+02  0.84413678544E+02  0.00000000000E+00 0.  1.
         -2   -1    0    0    0  501 -0.00000000000E+00 -0.00000000000E+00 -0.30204640560E+03  0.30204640560E+03  0.00000000000E+00 0.  1.
         23    2    1    2    0    0  0.21456588811E+02  0.27975247246E+02 -0.16013108311E+03  0.18658986743E+03  0.89055124444E+02 0.  0.
         23    2    1    2    0    0 -0.37278341092E+02 -0.43490816164E+02 -0.10443939936E+03  0.14796440192E+03  0.87776707002E+02 0.  0.
        -11    1    3    3    0    0  0.23701843603E+02  0.53341389211E+02 -0.14651242215E+03  0.15771167058E+03  0.00000000000E+00 0.  1.
         11    1    3    3    0    0 -0.22452547921E+01 -0.25366141966E+02 -0.13618660963E+02  0.28878196857E+02  0.00000000000E+00 0. -1.
        -13    1    4    4    0    0 -0.78551400875E+01 -0.40417744646E+02 -0.11036344988E+03  0.11779383845E+03  0.00000000000E+00 0.  1.
         13    1    4    4    0    0 -0.29423201005E+02 -0.30730715173E+01  0.59240505125E+01  0.30170563475E+02  0.00000000000E+00 0. -1.
         -2    1    1    2    0  502  0.15821752281E+02  0.15515568918E+02  0.46937755421E+02  0.51905814780E+02  0.00000000000E+00 0.  1.
<scales pt_clust_5="13000.00000" pt_clust_6="13000.00000" pt_clust_7="13000.00000" pt_clust_8="13000.00000" pt_clust_9="22.15989"></scales>
<clustering>
<clus scale="   22.160">  1  9  2 -1</clus>
<clus scale="   87.777">  7  8 -1 -1</clus>
<clus scale="   89.055">  5  6 -1 -1</clus>
<clus scale="   97.994">  1  7  2 -1</clus>
<clus scale="   22.160">  1  5  2 -1</clus>
</clustering>
</event>
<event>
 9    1  0.1445593E-005  0.1029965E+03  0.7546771E-02  0.1274804E+00
         21   -1    0    0  501  502  0.00000000000E+00  0.00000000000E+00  0.99372393230E+02  0.99372393230E+02  0.00000000000E+00 0.  1.
          1   -1    0    0  502    0 -0.00000000000E+00 -0.00000000000E+00 -0.17506205672E+03  0.17506205672E+03  0.00000000000E+00 0. -1.
         23    2    1    2    0    0  0.23474229382E+02  0.29048911572E+02 -0.70332303191E+02  0.12066617101E+03  0.90657670644E+02 0.  0.
         23    2    1    2    0    0 -0.54096359563E+02 -0.50737972370E+02 -0.74432212201E+01  0.11618529036E+03  0.89122736687E+02 0.  0.
        -11    1    4    4    0    0 -0.32783144057E+02  0.88488737361E+01 -0.33543394085E+02  0.47730455554E+02  0.00000000000E+00 0. -1.
         11    1    4    4    0    0 -0.21313215506E+02 -0.59586846107E+02  0.26100172865E+02  0.68454834801E+02  0.00000000000E+00 0.  1.
        -11    1    3    3    0    0  0.21103139967E+02 -0.53155682164E+01  0.16461399609E+02  0.27286910031E+02  0.00000000000E+00 0.  1.
         11    1    3    3    0    0  0.23710894147E+01  0.34364479788E+02 -0.86793702800E+02  0.93379260984E+02  0.00000000000E+00 0. -1.
          1    1    1    2  501    0  0.30622130181E+02  0.21689060798E+02  0.20858609167E+01  0.37582988584E+02  0.00000000000E+00 0. -1.
<scales pt_clust_5="13000.00000" pt_clust_6="13000.00000" pt_clust_7="13000.00000" pt_clust_8="13000.00000" pt_clust_9="37.52506"></scales>
<clustering>
<clus scale="   37.525">  1  9  2 -1</clus>
<clus scale="   89.123">  5  6 -1 -1</clus>
<clus scale="   90.658">  7  8 -1 -1</clus>
<clus scale="  101.648">  1  5  2 -1</clus>
<clus scale="   37.525">  1  5  2 -1</clus>
</clustering>
</event>
<event>
 9    1  0.1445593E-005  0.9873523E+02  0.7546771E-02  0.1284348E+00
          1   -1    0    0  502    0 -0.00000000000E+00  0.00000000000E+00  0.16822723845E+03  0.16822723845E+03  0.00000000000E+00 0. -1.
         21   -1    0    0  501  502  0.00000000000E+00 -0.00000000000E+00 -0.92415569638E+02  0.92415569638E+02  0.00000000000E+00 0.  1.
         23    2    1    2    0    0 -0.20257044359E+02 -0.19291972248E+02  0.63268316931E+02  0.11488752062E+03  0.91726410739E+02 0.  0.
         23    2    1    2    0    0  0.28821881710E+02  0.38394253947E+02  0.42098591547E+02  0.10953697999E+03  0.89001342538E+02 0.  0.
        -11    1    3    3    0    0 -0.16779889331E+02  0.35498343006E+02  0.15846083553E+02  0.42341414787E+02  0.00000000000E+00 0. -1.
         11    1    3    3    0    0 -0.34771550282E+01 -0.54790315254E+02  0.47422233378E+02  0.72546105831E+02  0.00000000000E+00 0.  1.
        -13    1    4    4    0    0 -0.29045011019E+02 -0.28638742813E+01  0.58846420120E+01  0.29773200241E+02  0.00000000000E+00 0.  1.
         13    1    4    4    0    0  0.57866892728E+02  0.41258128228E+02  0.36213949535E+02  0.79763779749E+02  0.00000000000E+00 0. -1.
          1    1    1    2  501    0 -0.85648373502E+01 -0.19102281698E+02 -0.29555239667E+02  0.36218307480E+02  0.00000000000E+00 0. -1.
<scales pt_clust_5="13000.00000" pt_clust_6="13000.00000" pt_clust_7="13000.00000" pt_clust_8="13000.00000" pt_clust_9="20.93451"></scales>
<clustering>
<clus scale="   20.935">  2  9  1 -1</clus>
<clus scale="   89.001">  7  8 -1 -1</clus>
<clus scale="   91.726">  5  6 -1 -1</clus>
<clus scale="   96.209">  2  7  1 -1</clus>
<clus scale="   20.935">  2  5  1 -1</clus>
</clustering>
</event>
<event>
 9    1  0.1445593E-005  0.1156018E+03  0.7546771E-02  0.1251360E+00
         21   -1    0    0  501  502  0.00000000000E+00  0.00000000000E+00  0.12376906761E+03  0.12376906761E+03  0.00000000000E+00 0.  1.
          3   -1    0    0  502    0 -0.00000000000E+00 -0.00000000000E+00 -0.41465464625E+03  0.41465464625E+03  0.00000000000E+00 0. -1.
         23    2    1    2    0    0  0.19462253136E+02 -0.64983214409E+02 -0.29892855563E+03  0.31997309148E+03  0.91776361054E+02 0.  0.
         23    2    1    2    0    0  0.56663254527E+01  0.68334005944E+02 -0.70364244766E+02  0.13604694717E+03  0.94106329649E+02 0.  0.
        -11    1    4    4    0    0 -0.82717471263E+01  0.86857423100E+02 -0.35536694385E+02  0.94209821122E+02  0.00000000000E+00 0. -1.
         11    1    4    4    0    0  0.13938072579E+02 -0.18523417156E+02 -0.34827550380E+02  0.41837126047E+02  0.00000000000E+00 0.  1.
        -11    1    3    3    0    0  0.16168251082E+01  0.22236898003E+02 -0.92799617828E+02  0.95440362663E+02  0.00000000000E+00 0. -1.
         11    1    3    3    0    0  0.17845428028E+02 -0.87220112412E+02 -0.20612893780E+03  0.22453272882E+03  0.00000000000E+00 0.  1.
          3    1    1    2  501    0 -0.25128578588E+02 -0.33507915350E+01  0.78407221750E+02  0.82403675211E+02  0.00000000000E+00 0. -1.
<scales pt_clust_5="13000.00000" pt_clust_6="13000.00000" pt_clust_7="13000.00000" pt_clust_8="13000.00000" pt_clust_9="25.35100"></scales>
<clustering>
<clus scale="   25.351">  1  9  2 -1</clus>
<clus scale="   91.776">  7  8 -1 -1</clus>
<clus scale="   94.106">  5  6 -1 -1</clus>
<clus scale="  113.713">  2  7  1 -1</clus>
<clus scale="   25.351">  1  5  2 -1</clus>
</clustering>
</event>
<event>
 9    1  0.1445593E-005  0.1489370E+03  0.7546771E-02  0.1202119E+00
         21   -1    0    0  501  502  0.00000000000E+00  0.00000000000E+00  0.10828067157E+03  0.10828067157E+03  0.00000000000E+00 0.  1.
         -1   -1    0    0    0  501 -0.00000000000E+00 -0.00000000000E+00 -0.78898803957E+03  0.78898803957E+03  0.00000000000E+00 0.  1.
         23    2    1    2    0    0 -0.80372078496E+02 -0.76799527067E+02 -0.61051190027E+03  0.62701884258E+03  0.89833235620E+02 0.  0.
         23    2    1    2    0    0  0.11518931491E+03  0.13055582931E+03 -0.57486188644E+02  0.20495434224E+03  0.91587213533E+02 0.  0.
        -11    1    3    3    0    0 -0.27763631270E+02 -0.81609125510E+02 -0.30390510081E+03  0.31589425269E+03  0.00000000000E+00 0.  1.
         11    1    3    3    0    0 -0.52608447226E+02  0.48095984430E+01 -0.30660679946E+03  0.31112458989E+03  0.00000000000E+00 0. -1.
        -11    1    4    4    0    0  0.28380154182E+02  0.86725359842E+02 -0.57219878978E+02  0.10770717590E+03  0.00000000000E+00 0. -1.
         11    1    4    4    0    0  0.86809160724E+02  0.43830469471E+02 -0.26630966555E+00  0.97247166337E+02  0.00000000000E+00 0.  1.
         -1    1    1    2    0  502 -0.34817236411E+02 -0.53756302245E+02 -0.12709279084E+02  0.65295526319E+02  0.00000000000E+00 0.  1.
<scales pt_clust_5="13000.00000" pt_clust_6="13000.00000" pt_clust_7="13000.00000" pt_clust_8="13000.00000" pt_clust_9="64.04670"></scales>
<clustering>
<clus scale="   64.047">  1  9  2 -1</clus>
<clus scale="   89.833">  5  6 -1 -1</clus>
<clus scale="   91.587">  7  8 -1 -1</clus>
<clus scale="  147.865">  2  5  1 -1</clus>
<clus scale="   64.047">  1  5  2 -1</clus>
</clustering>
</event>
<event>
 9    1  0.1445593E-005  0.1346091E+03  0.7546771E-02  0.1221211E+00
         21   -1    0    0  501  502  0.00000000000E+00  0.00000000000E+00  0.81017106016E+02  0.81017106016E+02  0.00000000000E+00 0. -1.
          2   -1    0    0  502    0 -0.00000000000E+00 -0.00000000000E+00 -0.14573828555E+04  0.14573828555E+04  0.00000000000E+00 0. -1.
         23    2    1    2    0    0 -0.96887421062E+02 -0.64714309551E+02 -0.79564360571E+03  0.80930194147E+03  0.91355191092E+02 0.  0.
         23    2    1    2    0    0  0.16357556794E+02  0.96973269565E+02 -0.61983189585E+03  0.63393882586E+03  0.89529163649E+02 0.  0.
        -11    1    3    3    0    0  0.50848447815E+01 -0.43565558694E+02 -0.22597690195E+03  0.23019420880E+03  0.00000000000E+00 0.  1.
         11    1    3    3    0    0 -0.10197226584E+03 -0.21148750857E+02 -0.56966670376E+03  0.57910773267E+03  0.00000000000E+00 0. -1.
        -13    1    4    4    0    0  0.44933159517E+02  0.21120939761E+02 -0.18112433118E+03  0.18780603363E+03  0.00000000000E+00 0. -1.
         13    1    4    4    0    0 -0.28575602723E+02  0.75852329804E+02 -0.43870756467E+03  0.44613279223E+03  0.00000000000E+00 0.  1.
          2    1    1    2  501    0  0.80529864268E+02 -0.32258960014E+02  0.39109752041E+02  0.95159194222E+02  0.00000000000E+00 0. -1.
<scales pt_clust_5="13000.00000" pt_clust_6="13000.00000" pt_clust_7="13000.00000" pt_clust_8="13000.00000" pt_clust_9="86.75079"></scales>
<clustering>
<clus scale="   86.751">  1  9  2 -1</clus>
<clus scale="   89.529">  7  8 -1 -1</clus>
<clus scale="   91.355">  5  6 -1 -1</clus>
<clus scale="  133.377">  1  7  2 -1</clus>
<clus scale="   86.751">  1  5  2 -1</clus>
</clustering>
</event>
<event>
 9    1  0.1445593E-005  0.9799935E+02  0.7546771E-02  0.1286207E+00
          1   -1    0    0  502    0 -0.00000000000E+00  0.00000000000E+00  0.24216043449E+03  0.24216043449E+03  0.00000000000E+00 0. -1.
         21   -1    0    0  501  502  0.00000000000E+00 -0.00000000000E+00 -0.33759087781E+03  0.33759087781E+03  0.00000000000E+00 0. -1.
         23    2    1    2    0    0  0.37445960761E+02 -0.25773950657E+02 -0.77966999378E+01  0.10054604729E+03  0.89343285069E+02 0.  0.
         23    2    1    2    0    0  0.37939062325E+02 -0.66699645519E+01 -0.26524555580E+03  0.28354876691E+03  0.92524793810E+02 0.  0.
        -11    1    4    4    0    0  0.38363672336E+02  0.38836909654E+02 -0.13759488898E+03  0.14802847827E+03  0.00000000000E+00 0. -1.
         11    1    4    4    0    0 -0.42461001108E+00 -0.45506874206E+02 -0.12765066682E+03  0.13552028864E+03  0.00000000000E+00 0.  1.
        -13    1    3    3    0    0  0.41110041719E+02 -0.51002494248E+02 -0.24642702520E+02  0.69989661645E+02  0.00000000000E+00 0.  1.
         13    1    3    3    0    0 -0.36640809580E+01  0.25228543591E+02  0.16846002582E+02  0.30556385650E+02  0.00000000000E+00 0. -1.
          1    1    1    2  501    0 -0.75385023086E+02  0.32443915209E+02  0.17761181241E+03  0.19565649810E+03  0.00000000000E+00 0. -1.
<scales pt_clust_5="13000.00000" pt_clust_6="13000.00000" pt_clust_7="13000.00000" pt_clust_8="13000.00000" pt_clust_9="82.07019"></scales>
<clustering>
<clus scale="   82.070">  2  9  1 -1</clus>
<clus scale="   89.343">  7  8 -1 -1</clus>
<clus scale="   92.525">  5  6 -1 -1</clus>
<clus scale="   95.001">  1  7  2 -1</clus>
<clus scale="   82.070">  2  5  1 -1</clus>
</clustering>
</event>
<event>
 9    1  0.1445593E-005  0.9679130E+02  0.7546771E-02  0.1287990E+00
          1   -1    0    0  502    0 -0.00000000000E+00  0.00000000000E+00  0.65294353584E+02  0.65294353584E+02  0.00000000000E+00 0. -1.
         21   -1    0    0  501  502  0.00000000000E+00 -0.00000000000E+00 -0.41422176477E+03  0.41422176477E+03  0.00000000000E+00 0. -1.
         23    2    1    2    0    0 -0.21748584606E+02  0.24392706414E+02  0.48495338476E+01  0.95568275321E+02  0.89675928826E+02 0.  0.
         23    2    1    2    0    0  0.42703411162E+02  0.44032306837E+00 -0.17221050528E+03  0.19949688436E+03  0.91207310738E+02 0.  0.
        -11    1    4    4    0    0  0.62396503663E+01 -0.43308496836E+02 -0.74162990720E+02  0.86108700649E+02  0.00000000000E+00 0.  1.
         11    1    4    4    0    0  0.36463760796E+02  0.43748819904E+02 -0.98047514556E+02  0.11338818371E+03  0.00000000000E+00 0. -1.
        -13    1    3    3    0    0 -0.26127581174E+02  0.51546730388E+02 -0.17222800638E+02  0.60302079346E+02  0.00000000000E+00 0. -1.
         13    1    3    3    0    0  0.43789965680E+01 -0.27154023974E+02  0.22072334485E+02  0.35266195975E+02  0.00000000000E+00 0.  1.
          1    1    1    2  501    0 -0.20954826556E+02 -0.24833029482E+02 -0.18156643976E+03  0.18445095867E+03  0.00000000000E+00 0. -1.
<scales pt_clust_5="13000.00000" pt_clust_6="13000.00000" pt_clust_7="13000.00000" pt_clust_8="13000.00000" pt_clust_9="32.49283"></scales>
<clustering>
<clus scale="   32.493">  2  9  1 -1</clus>
<clus scale="   89.676">  7  8 -1 -1</clus>
<clus scale="   91.207">  5  6 -1 -1</clus>
<clus scale="   95.350">  1  7  2 -1</clus>
<clus scale="   32.493">  2  5  1 -1</clus>
</clustering>
</event>
<event>
 9    1  0.1445593E-005  0.9235907E+02  0.7546771E-02  0.1298459E+00
         -3   -1    0    0    0  501 -0.00000000000E+00  0.00000000000E+00  0.29922344942E+03  0.29922344942E+03  0.00000000000E+00 0.  1.
         21   -1    0    0  501  502  0.00000000000E+00 -0.00000000000E+00 -0.53994995495E+02  0.53994995495E+02  0.00000000000E+00 0.  1.
         23    2    1    2    0    0  0.29948525695E+01  0.29061135526E+02  0.13539950894E+03  0.16443499131E+03  0.88613320710E+02 0.  0.
         23    2    1    2    0    0  0.33830715723E+02  0.11954223145E+02  0.79662201661E+02  0.12594704274E+03  0.90714775118E+02 0.  0.
        -13    1    3    3    0    0  0.33249813430E+02  0.16398871886E+01  0.13578582705E+02  0.35952986404E+02  0.00000000000E+00 0. -1.
         13    1    3    3    0    0 -0.30254960860E+02  0.27421248338E+02  0.12182092623E+03  0.12848200491E+03  0.00000000000E+00 0.  1.
        -13    1    4    4    0    0 -0.88754921228E+01  0.42315740517E+02  0.48533525008E+02  0.64999225423E+02  0.00000000000E+00 0.  1.
         13    1    4    4    0    0  0.42706207846E+02 -0.30361517372E+02  0.31128676653E+02  0.60947817319E+02  0.00000000000E+00 0. -1.
         -3    1    1    2    0  502 -0.36825568293E+02 -0.41015358671E+02  0.30166743330E+02  0.62836410863E+02  0.00000000000E+00 0.  1.
<scales pt_clust_5="13000.00000" pt_clust_6="13000.00000" pt_clust_7="13000.00000" pt_clust_8="13000.00000" pt_clust_9="55.12152"></scales>
<clustering>
<clus scale="   55.122">  2  9  1 -1</clus>
<clus scale="   88.613">  5  6 -1 -1</clus>
<clus scale="   90.296">  1  5  2 -1</clus>
<clus scale="   90.715">  7  8 -1 -1</clus>
<clus scale="   55.122">  2  5  1 -1</clus>
</clustering>
</event>
<event>
 9    1  0.1445593E-005  0.9594676E+02  0.7546771E-02  0.1290316E+00
         -1   -1    0    0    0  501 -0.00000000000E+00  0.00000000000E+00  0.17668160913E+03  0.17668160913E+03  0.00000000000E+00 0.  1.
         21   -1    0    0  501  502  0.00000000000E+00 -0.00000000000E+00 -0.15312954524E+03  0.15312954524E+03  0.00000000000E+00 0.  1.
         23    2    1    2    0    0  0.10563167931E+02  0.34050684089E+02  0.91747749899E+02  0.13292088830E+03  0.89326834327E+02 0.  0.
         23    2    1    2    0    0 -0.18493468504E+02 -0.92661836375E+01  0.27343388403E+02  0.97870692914E+02  0.91668648433E+02 0.  0.
        -11    1    4    4    0    0 -0.17666381954E+02  0.35450563623E+02  0.34561603808E+02  0.52567556252E+02  0.00000000000E+00 0.  1.
         11    1    4    4    0    0 -0.82708654962E+00 -0.44716747260E+02 -0.72182154056E+01  0.45303136661E+02  0.00000000000E+00 0. -1.
        -11    1    3    3    0    0  0.41539883892E+02  0.27954674737E+02  0.87841075399E+02  0.10110924943E+03  0.00000000000E+00 0.  1.
         11    1    3    3    0    0 -0.30976715961E+02  0.60960093515E+01  0.39066745000E+01  0.31811638867E+02  0.00000000000E+00 0. -1.
         -1    1    1    2    0  502  0.79303005730E+01 -0.24784500451E+02 -0.95539074413E+02  0.99019573163E+02  0.00000000000E+00 0.  1.
<scales pt_clust_5="13000.00000" pt_clust_6="13000.00000" pt_clust_7="13000.00000" pt_clust_8="13000.00000" pt_clust_9="26.02232"></scales>
<clustering>
<clus scale="   26.022">  2  9  1 -1</clus>
<clus scale="   89.327">  7  8 -1 -1</clus>
<clus scale="   91.669">  5  6 -1 -1</clus>
<clus scale="   93.712">  1  7  2 -1</clus>
<clus scale="   26.022">  2  5  1 -1</clus>
</clustering>
</event>
<event>
 9    1  0.1445593E-005  0.1104007E+03  0.7546771E-02  0.1264695E+00
          3   -1    0    0  502    0 -0.00000000000E+00  0.00000000000E+00  0.39391763489E+02  0.39391763489E+02  0.00000000000E+00 0. -1.
         21   -1    0    0  501  502  0.00000000000E+00 -0.00000000000E+00 -0.82525100876E+03  0.82525100876E+03  0.00000000000E+00 0.  1.
         23    2    1    2    0    0 -0.67106365454E+02  0.39289880327E+02 -0.79293790387E+02  0.14322254392E+03  0.90433582873E+02 0.  0.
         23    2    1    2    0    0  0.24556413127E+02 -0.87610562118E+01 -0.28438170868E+03  0.29600087863E+03  0.77870343426E+02 0.  0.
        -11    1    4    4    0    0  0.43036919907E+02 -0.29149149700E+02 -0.21861424751E+03  0.22470878625E+03  0.00000000000E+00 0.  1.
         11    1    4    4    0    0 -0.18480506781E+02  0.20388093488E+02 -0.65767461167E+02  0.71292092376E+02  0.00000000000E+00 0. -1.
        -13    1    3    3    0    0 -0.11344872228E+02  0.18087081056E+02 -0.80773522516E+02  0.83547654465E+02  0.00000000000E+00 0.  1.
         13    1    3    3    0    0 -0.55761493227E+02  0.21202799271E+02  0.14797321293E+01  0.59674889451E+02  0.00000000000E+00 0. -1.
          3    1    1    2  501    0  0.42549952328E+02 -0.30528824115E+02 -0.42218374620E+03  0.42541934970E+03  0.00000000000E+00 0. -1.
<scales pt_clust_5="13000.00000" pt_clust_6="13000.00000" pt_clust_7="13000.00000" pt_clust_8="13000.00000" pt_clust_9="52.36896"></scales>
<clustering>
<clus scale="   52.369">  2  9  1 -1</clus>
<clus scale="   77.870">  5  6 -1 -1</clus>
<clus scale="   90.434">  7  8 -1 -1</clus>
<clus scale="  100.369">  2  5  1 -1</clus>
<clus scale="   52.369">  2  5  1 -1</clus>
</clustering>
</event>
<event>
 9    1  0.1445593E-005  0.1174036E+03  0.7546771E-02  0.1252018E+00
         21   -1    0    0  501  502  0.00000000000E+00  0.00000000000E+00  0.13332000903E+03  0.13332000903E+03  0.00000000000E+00 0.  1.
         -1   -1    0    0    0  501 -0.00000000000E+00 -0.00000000000E+00 -0.26299332615E+03  0.26299332615E+03  0.00000000000E+00 0.  1.
         23    2    1    2    0    0 -0.59271468546E+02 -0.20264280638E+02 -0.20234638343E+03  0.23591947009E+03  0.10387583660E+03 0.  0.
         23    2    1    2    0    0  0.25099882429E+02 -0.10080078843E+02  0.39001551522E+02  0.10362901366E+03  0.92120786817E+02 0.  0.
        -13    1    3    3    0    0 -0.82404669749E+02 -0.27674276307E+02 -0.18939576192E+03  0.20839181797E+03  0.00000000000E+00 0.  1.
         13    1    3    3    0    0  0.23133201203E+02  0.74099956698E+01 -0.12950621513E+02  0.27527652121E+02  0.00000000000E+00 0. -1.
        -13    1    4    4    0    0  0.22482873143E+01 -0.43047757053E+02  0.45854311730E+02  0.62934744675E+02  0.00000000000E+00 0.  1.
         13    1    4    4    0    0  0.22851595114E+02  0.32967678210E+02 -0.68527602082E+01  0.40694268986E+02  0.00000000000E+00 0. -1.
         -1    1    1    2    0  502  0.34171586117E+02  0.30344359481E+02  0.33671514778E+02  0.56764851426E+02  0.00000000000E+00 0.  1.
<scales pt_clust_5="13000.00000" pt_clust_6="13000.00000" pt_clust_7="13000.00000" pt_clust_8="13000.00000" pt_clust_9="45.69986"></scales>
<clustering>
<clus scale="   45.700">  1  9  2 -1</clus>
<clus scale="   92.121">  7  8 -1 -1</clus>
<clus scale="  103.876">  5  6 -1 -1</clus>
<clus scale="  107.143">  1  7  2 -1</clus>
<clus scale="   45.700">  1  5  2 -1</clus>
</clustering>
</event>
<event>
 9    1  0.1445593E-005  0.1141547E+03  0.7546771E-02  0.1255270E+00
         21   -1    0    0  501  502  0.00000000000E+00  0.00000000000E+00  0.58655021756E+03  0.58655021756E+03  0.00000000000E+00 0. -1.
         -3   -1    0    0    0  501 -0.00000000000E+00 -0.00000000000E+00 -0.74932942117E+02  0.74932942117E+02  0.00000000000E+00 0.  1.
         23    2    1    2    0    0 -0.52437584209E+02  0.37388841617E+02 -0.17914796404E+02  0.11285837987E+03  0.90931008256E+02 0.  0.
         23    2    1    2    0    0  0.36124143219E+02 -0.81939263220E+01  0.31759001239E+03  0.33406031862E+03  0.96751156864E+02 0.  0.
        -11    1    4    4    0    0 -0.85880224351E+01 -0.28534577594E+02  0.29924365596E+02  0.42230840675E+02  0.00000000000E+00 0.  1.
         11    1    4    4    0    0  0.44712165654E+02  0.20340651272E+02  0.28766564679E+03  0.29182947794E+03  0.00000000000E+00 0. -1.
        -11    1    3    3    0    0 -0.72760854883E+02  0.47150982030E+01 -0.13075181705E+02  0.74076545080E+02  0.00000000000E+00 0.  1.
         11    1    3    3    0    0  0.20323270674E+02  0.32673743414E+02 -0.48396146993E+01  0.38781834794E+02  0.00000000000E+00 0. -1.
         -3    1    1    2    0  502  0.16313440990E+02 -0.29194915295E+02  0.21194205945E+03  0.21456446118E+03  0.00000000000E+00 0.  1.
<scales pt_clust_5="13000.00000" pt_clust_6="13000.00000" pt_clust_7="13000.00000" pt_clust_8="13000.00000" pt_clust_9="33.44356"></scales>
<clustering>
<clus scale="   33.444">  1  9  2 -1</clus>
<clus scale="   90.931">  7  8 -1 -1</clus>
<clus scale="   96.751">  5  6 -1 -1</clus>
<clus scale="  109.266">  2  7  1 -1</clus>
<clus scale="   33.444">  1  5  2 -1</clus>
</clustering>
</event>
<event>
 9    1  0.1445593E-005  0.1094234E+03  0.7546771E-02  0.1262200E+00
         -1   -1    0    0    0  501 -0.00000000000E+00  0.00000000000E+00  0.27077868155E+03  0.27077868155E+03  0.00000000000E+00 0.  1.
         21   -1    0    0  501  502  0.00000000000E+00 -0.00000000000E+00 -0.69136294005E+02  0.69136294005E+02  0.00000000000E+00 0.  1.
         23    2    1    2    0    0  0.26297336636E+02 -0.45334982672E+02  0.13352758944E+03  0.17179554911E+03  0.94537204243E+02 0.  0.
         23    2    1    2    0    0  0.35545874304E+01  0.66028389534E+02  0.65544689123E+02  0.13170569389E+03  0.93155247918E+02 0.  0.
        -11    1    3    3    0    0 -0.12170162781E+02  0.18602206382E+02  0.71143738364E+02  0.74535806515E+02  0.00000000000E+00 0. -1.
         11    1    3    3    0    0  0.38467499416E+02 -0.63937189054E+02  0.62383851073E+02  0.97259742597E+02  0.00000000000E+00 0.  1.
        -13    1    4    4    0    0 -0.43236279414E+02  0.44723875913E+02  0.29036502019E+02  0.68649248967E+02  0.00000000000E+00 0.  1.
         13    1    4    4    0    0  0.46790866845E+02  0.21304513621E+02  0.36508187103E+02  0.63056444923E+02  0.00000000000E+00 0. -1.
         -1    1    1    2    0  502 -0.29851924066E+02 -0.20693406862E+02  0.25701089815E+01  0.36413732549E+02  0.00000000000E+00 0.  1.
<scales pt_clust_5="13000.00000" pt_clust_6="13000.00000" pt_clust_7="13000.00000" pt_clust_8="13000.00000" pt_clust_9="36.32292"></scales>
<clustering>
<clus scale="   36.323">  2  9  1 -1</clus>
<clus scale="   93.155">  7  8 -1 -1</clus>
<clus scale="   94.537">  5  6 -1 -1</clus>
<clus scale="  108.232">  2  7  1 -1</clus>
<clus scale="   36.323">  2  5  1 -1</clus>
</clustering>
</event>
<event>
 9    1  0.1445593E-005  0.1051099E+03  0.7546771E-02  0.1271368E+00
          1   -1    0    0  502    0 -0.00000000000E+00  0.00000000000E+00  0.27707440341E+03  0.27707440341E+03  0.00000000000E+00 0. -1.
         21   -1    0    0  501  502  0.00000000000E+00 -0.00000000000E+00 -0.13236430258E+03  0.13236430258E+03  0.00000000000E+00 0. -1.
         23    2    1    2    0    0  0.55999095889E+02  0.16305246669E+02  0.60873074858E+02  0.12213937817E+03  0.88378372054E+02 0.  0.
         23    2    1    2    0    0  0.16620416819E+02 -0.89703266897E+02 -0.30813996689E+02  0.13300830411E+03  0.91753976604E+02 0.  0.
        -11    1    3    3    0    0 -0.11788203067E+02  0.33207429004E+02  0.13527542310E+02  0.37745058929E+02  0.00000000000E+00 0. -1.
         11    1    3    3    0    0  0.67787298955E+02 -0.16902182335E+02  0.47345532548E+02  0.84394319238E+02  0.00000000000E+00 0.  1.
        -13    1    4    4    0    0  0.35513281341E+02 -0.52650371751E+02  0.20703339676E+02  0.66797328321E+02  0.00000000000E+00 0. -1.
         13    1    4    4    0    0 -0.18892864521E+02 -0.37052895146E+02 -0.51517336366E+02  0.66210975787E+02  0.00000000000E+00 0.  1.
          1    1    1    2  501    0 -0.72619512708E+02  0.73398020228E+02  0.11465102267E+03  0.15429102371E+03  0.00000000000E+00 0. -1.
<scales pt_clust_5="13000.00000" pt_clust_6="13000.00000" pt_clust_7="13000.00000" pt_clust_8="13000.00000" pt_clust_9="103.25151"></scales>
<clustering>
<clus scale="   88.378">  5  6 -1 -1</clus>
<clus scale="   91.754">  7  8 -1 -1</clus>
<clus scale="  103.252">  2  9  1 -1</clus>
<clus scale="  102.177">  1  5  2 -1</clus>
<clus scale="  103.252">  2  5  1 -1</clus>
</clustering>
</event>
<event>
 9    1  0.1445593E-005  0.1657865E+03  0.7546771E-02  0.1182680E+00
         21   -1    0    0  501  502  0.00000000000E+00  0.00000000000E+00  0.69358725314E+03  0.69358725314E+03  0.00000000000E+00 0. -1.
         -1   -1    0    0    0  501 -0.00000000000E+00 -0.00000000000E+00 -0.57329752549E+02  0.57329752549E+02  0.00000000000E+00 0.  1.
         23    2    1    2    0    0  0.11488922962E+03 -0.93263567148E+02  0.19672063648E+03  0.26244896430E+03  0.91010010462E+02 0.  0.
         23    2    1    2    0    0 -0.84942342472E+02  0.96941612451E+02  0.23854883706E+03  0.28522795901E+03  0.88524364839E+02 0.  0.
        -13    1    4    4    0    0 -0.10144294345E+02  0.76973922702E+02  0.13783802764E+03  0.15819991576E+03  0.00000000000E+00 0. -1.
         13    1    4    4    0    0 -0.74798048127E+02  0.19967689748E+02  0.10071080942E+03  0.12702804325E+03  0.00000000000E+00 0.  1.
        -13    1    3    3    0    0  0.49424731627E+02 -0.27523456529E+00  0.10606465795E+03  0.11701534735E+03  0.00000000000E+00 0. -1.
         13    1    3    3    0    0  0.65464497995E+02 -0.92988332583E+02  0.90655978529E+02  0.14543361694E+03  0.00000000000E+00 0.  1.
         -1    1    1    2    0  502 -0.29946887150E+02 -0.36780453023E+01  0.20098802705E+03  0.20324008238E+03  0.00000000000E+00 0.  1.
<scales pt_clust_5="13000.00000" pt_clust_6="13000.00000" pt_clust_7="13000.00000" pt_clust_8="13000.00000" pt_clust_9="30.17191"></scales>
<clustering>
<clus scale="   30.172">  1  9  2 -1</clus>
<clus scale="   88.524">  5  6 -1 -1</clus>
<clus scale="   91.010">  7  8 -1 -1</clus>
<clus scale="  164.435">  1  5  2 -1</clus>
<clus scale="   30.172">  1  5  2 -1</clus>
</clustering>
</event>
<event>
 9    1  0.1445593E-005  0.1371812E+03  0.7546771E-02  0.1217984E+00
         -2   -1    0    0    0  501 -0.00000000000E+00  0.00000000000E+00  0.22203105911E+03  0.22203105911E+03  0.00000000000E+00 0.  1.
         21   -1    0    0  501  502  0.00000000000E+00 -0.00000000000E+00 -0.12056345786E+03  0.12056345786E+03  0.00000000000E+00 0. -1.
         23    2    1    2    0    0  0.10572155504E+03  0.15859503329E+02  0.93259542657E+02  0.16778942482E+03  0.89595634601E+02 0.  0.
         23    2    1    2    0    0 -0.86303616578E+02 -0.38050374962E+02  0.32697073855E+02  0.13647490840E+03  0.93059963005E+02 0.  0.
        -13    1    3    3    0    0  0.11998990257E+02  0.21682015799E+02 -0.11314949488E+02  0.27241763126E+02  0.00000000000E+00 0.  1.
         13    1    3    3    0    0  0.93722564782E+02 -0.58225124694E+01  0.10457449214E+03  0.14054766170E+03  0.00000000000E+00 0. -1.
        -13    1    4    4    0    0 -0.58148108389E+02 -0.39904356520E+02 -0.22882639584E+02  0.74142938792E+02  0.00000000000E+00 0. -1.
         13    1    4    4    0    0 -0.28155508190E+02  0.18539815575E+01  0.55579713439E+02  0.62331969606E+02  0.00000000000E+00 0.  1.
         -2    1    1    2    0  502 -0.19417938461E+02  0.22190871633E+02 -0.24489015264E+02  0.38330183753E+02  0.00000000000E+00 0.  1.
<scales pt_clust_5="13000.00000" pt_clust_6="13000.00000" pt_clust_7="13000.00000" pt_clust_8="13000.00000" pt_clust_9="29.48713"></scales>
<clustering>
<clus scale="   29.487">  2  9  1 -1</clus>
<clus scale="   89.596">  5  6 -1 -1</clus>
<clus scale="   93.060">  7  8 -1 -1</clus>
<clus scale="  134.855">  1  5  2 -1</clus>
<clus scale="   29.487">  2  5  1 -1</clus>
</clustering>
</event>
<event>
 9    1  0.1445593E-005  0.1067724E+03  0.7546771E-02  0.1267031E+00
         21   -1    0    0  501  502  0.00000000000E+00  0.00000000000E+00  0.12543303084E+03  0.12543303084E+03  0.00000000000E+00 0. -1.
         -1   -1    0    0    0  501 -0.00000000000E+00 -0.00000000000E+00 -0.32173733506E+03  0.32173733506E+03  0.00000000000E+00 0.  1.
         23    2    1    2    0    0 -0.26013857571E+02  0.44979544728E+02 -0.26131986614E+03  0.28146410439E+03  0.90741883341E+02 0.  0.
         23    2    1    2    0    0  0.29992323365E+02 -0.74177157232E+02  0.43361704029E+02  0.12913826556E+03  0.91622399773E+02 0.  0.
        -11    1    4    4    0    0 -0.23614317456E+02 -0.43473322014E+02  0.45653596629E+02  0.67318768565E+02  0.00000000000E+00 0. -1.
         11    1    4    4    0    0  0.53606640821E+02 -0.30703835218E+02 -0.22918926008E+01  0.61819496997E+02  0.00000000000E+00 0.  1.
        -11    1    3    3    0    0 -0.14184538748E+02 -0.26748210435E+02 -0.56097630219E+02  0.63746466703E+02  0.00000000000E+00 0. -1.
         11    1    3    3    0    0 -0.11829318823E+02  0.71727755163E+02 -0.20522223592E+03  0.21771763768E+03  0.00000000000E+00 0.  1.
         -1    1    1    2    0  502 -0.39784657935E+01  0.29197612504E+02  0.21653857891E+02  0.36567995947E+02  0.00000000000E+00 0.  1.
<scales pt_clust_5="13000.00000" pt_clust_6="13000.00000" pt_clust_7="13000.00000" pt_clust_8="13000.00000" pt_clust_9="29.46742"></scales>
<clustering>
<clus scale="   29.467">  1  9  2 -1</clus>
<clus scale="   90.742">  7  8 -1 -1</clus>
<clus scale="   91.622">  5  6 -1 -1</clus>
<clus scale="  106.018">  2  7  1 -1</clus>
<clus scale="   29.467">  1  5  2 -1</clus>
</clustering>
</event>
<event>
 9    1  0.1445593E-005  0.1198610E+03  0.7546771E-02  0.1247210E+00
         -4   -1    0    0    0  501 -0.00000000000E+00  0.00000000000E+00  0.71529743114E+02  0.71529743114E+02  0.00000000000E+00 0.  1.
         21   -1    0    0  501  502  0.00000000000E+00 -0.00000000000E+00 -0.41357036832E+03  0.41357036832E+03  0.00000000000E+00 0. -1.
         23    2    1    2    0    0  0.75293605026E+02  0.98786553104E+01 -0.22177527936E+01  0.12277592062E+03  0.96448397952E+02 0.  0.
         23    2    1    2    0    0 -0.50763131837E+02 -0.98213376994E+01 -0.24612017075E+03  0.26546375670E+03  0.84985371910E+02 0.  0.
        -11    1    3    3    0    0 -0.69883861279E+01  0.26824985822E+02  0.21951465570E+02  0.35359358672E+02  0.00000000000E+00 0.  1.
         11    1    3    3    0    0  0.82281991154E+02 -0.16946330512E+02 -0.24169218363E+02  0.87416561946E+02  0.00000000000E+00 0. -1.
        -13    1    4    4    0    0  0.73613127882E+01  0.28338178841E+02 -0.59556652482E+02  0.66364419389E+02  0.00000000000E+00 0.  1.
         13    1    4    4    0    0 -0.58124444625E+02 -0.38159516541E+02 -0.18656351827E+03  0.19909933731E+03  0.00000000000E+00 0. -1.
         -4    1    1    2    0  502 -0.24530473189E+02 -0.57317610981E-01 -0.93702701661E+02  0.96860434125E+02  0.00000000000E+00 0.  1.
<scales pt_clust_5="13000.00000" pt_clust_6="13000.00000" pt_clust_7="13000.00000" pt_clust_8="13000.00000" pt_clust_9="24.53054"></scales>
<clustering>
<clus scale="   24.531">  2  9  1 -1</clus>
<clus scale="   84.985">  7  8 -1 -1</clus>
<clus scale="   96.448">  5  6 -1 -1</clus>
<clus scale="  110.846">  2  7  1 -1</clus>
<clus scale="   24.531">  2  5  1 -1</clus>
</clustering>
</event>
<event>
 9    1  0.1445593E-005  0.1216392E+03  0.7546771E-02  0.1240962E+00
          1   -1    0    0  502    0 -0.00000000000E+00  0.00000000000E+00  0.16378593139E+03  0.16378593139E+03  0.00000000000E+00 0. -1.
         21   -1    0    0  501  502  0.00000000000E+00 -0.00000000000E+00 -0.26759810726E+03  0.26759810726E+03  0.00000000000E+00 0. -1.
         23    2    1    2    0    0  0.65167948637E+02  0.69890143150E+02  0.62590232239E+02  0.14638224427E+03  0.91535406406E+02 0.  0.
         23    2    1    2    0    0 -0.79659281426E+02  0.26341848159E+02 -0.48409271997E+02  0.13205417247E+03  0.89751617086E+02 0.  0.
        -13    1    4    4    0    0 -0.82497661471E+02 -0.41042816355E+01 -0.56921483382E+02  0.10031333185E+03  0.00000000000E+00 0.  1.
         13    1    4    4    0    0  0.28383800448E+01  0.30446129794E+02  0.85122113845E+01  0.31740840622E+02  0.00000000000E+00 0. -1.
        -13    1    3    3    0    0  0.82388314037E+02  0.40059466424E+02  0.64253577682E+02  0.11189779884E+03  0.00000000000E+00 0. -1.
         13    1    3    3    0    0 -0.17220365400E+02  0.29830676726E+02 -0.16633454434E+01  0.34484445428E+02  0.00000000000E+00 0.  1.
          1    1    1    2  501    0  0.14491332789E+02 -0.96231991309E+02 -0.11799313612E+03  0.15294762191E+03  0.00000000000E+00 0. -1.
<scales pt_clust_5="13000.00000" pt_clust_6="13000.00000" pt_clust_7="13000.00000" pt_clust_8="13000.00000" pt_clust_9="97.31698"></scales>
<clustering>
<clus scale="   89.752">  5  6 -1 -1</clus>
<clus scale="   91.535">  7  8 -1 -1</clus>
<clus scale="   97.317">  2  9  1 -1</clus>
<clus scale="  120.303">  2  5  1 -1</clus>
<clus scale="   97.317">  2  5  1 -1</clus>
</clustering>
</event>
<event>
 9    1  0.1445593E-005  0.1100035E+03  0.7546771E-02  0.1264365E+00
         21   -1    0    0  501  502  0.00000000000E+00  0.00000000000E+00  0.14183551813E+03  0.14183551813E+03  0.00000000000E+00 0.  1.
          3   -1    0    0  502    0 -0.00000000000E+00 -0.00000000000E+00 -0.14000853284E+03  0.14000853284E+03  0.00000000000E+00 0. -1.
         23    2    1    2    0    0  0.85658378547E+01 -0.44910073751E+02 -0.75747606891E+02  0.12907167565E+03  0.93976109741E+02 0.  0.
         23    2    1    2    0    0 -0.11746061493E+02  0.18328488744E+02  0.59912692381E+02  0.12070000109E+03  0.10249417591E+03 0.  0.
        -11    1    4    4    0    0  0.39840365361E+02 -0.85270631263E+01  0.56021132577E+01  0.41126015983E+02  0.00000000000E+00 0.  1.
         11    1    4    4    0    0 -0.51586426855E+02  0.26855551870E+02  0.54310579123E+02  0.79573985112E+02  0.00000000000E+00 0. -1.
        -13    1    3    3    0    0 -0.29284546107E+02  0.12707430597E+02 -0.91234990860E+01  0.33200928731E+02  0.00000000000E+00 0. -1.
         13    1    3    3    0    0  0.37850383961E+02 -0.57617504348E+02 -0.66624107805E+02  0.95870746915E+02  0.00000000000E+00 0.  1.
          3    1    1    2  501    0  0.31802236384E+01  0.26581585007E+02  0.17661899806E+02  0.32072374228E+02  0.00000000000E+00 0. -1.
<scales pt_clust_5="13000.00000" pt_clust_6="13000.00000" pt_clust_7="13000.00000" pt_clust_8="13000.00000" pt_clust_9="26.77115"></scales>
<clustering>
<clus scale="   26.771">  1  9  2 -1</clus>
<clus scale="   93.976">  7  8 -1 -1</clus>
<clus scale="  102.114">  2  7  1 -1</clus>
<clus scale="  102.494">  5  6 -1 -1</clus>
<clus scale="   26.771">  1  5  2 -1</clus>
</clustering>
</event>
<event>
 9    1  0.1445593E-005  0.1081049E+03  0.7546771E-02  0.1264462E+00
          2   -1    0    0  502    0 -0.00000000000E+00  0.00000000000E+00  0.10792719308E+03  0.10792719308E+03  0.00000000000E+00 0. -1.
         21   -1    0    0  501  502  0.00000000000E+00 -0.00000000000E+00 -0.42269250839E+03  0.42269250839E+03  0.00000000000E+00 0. -1.
         23    2    1    2    0    0 -0.96116572037E+01 -0.40230134690E+02  0.17585002149E+02  0.10223521473E+03  0.91825699774E+02 0.  0.
         23    2    1    2    0    0 -0.60773678331E+01  0.94079127885E+02 -0.49544457314E+02  0.14007039742E+03  0.90979372819E+02 0.  0.
        -11    1    4    4    0    0  0.27070318048E+02  0.74716921252E+02 -0.60806435318E+02  0.10006419448E+03  0.00000000000E+00 0.  1.
         11    1    4    4    0    0 -0.33147685881E+02  0.19362206633E+02  0.11261978004E+02  0.40006202938E+02  0.00000000000E+00 0. -1.
        -11    1    3    3    0    0 -0.50218128643E+02 -0.29388175328E+02  0.15203830877E+02  0.60138854054E+02  0.00000000000E+00 0. -1.
         11    1    3    3    0    0  0.40606471440E+02 -0.10841959363E+02  0.23811712721E+01  0.42096360677E+02  0.00000000000E+00 0.  1.
          2    1    1    2  501    0  0.15689025037E+02 -0.53848993195E+02 -0.28280586014E+03  0.28831408933E+03  0.00000000000E+00 0. -1.
<scales pt_clust_5="13000.00000" pt_clust_6="13000.00000" pt_clust_7="13000.00000" pt_clust_8="13000.00000" pt_clust_9="56.08796"></scales>
<clustering>
<clus scale="   56.088">  2  9  1 -1</clus>
<clus scale="   90.979">  5  6 -1 -1</clus>
<clus scale="   91.826">  7  8 -1 -1</clus>
<clus scale="  107.387">  2  5  1 -1</clus>
<clus scale="   56.088">  2  5  1 -1</clus>
</clustering>
</event>
<event>
 9    1  0.1445593E-005  0.9593235E+02  0.7546771E-02  0.1289468E+00
          2   -1    0    0  502    0 -0.00000000000E+00  0.00000000000E+00  0.65986334811E+03  0.65986334811E+03  0.00000000000E+00 0. -1.
         21   -1    0    0  501  502  0.00000000000E+00 -0.00000000000E+00 -0.36550504328E+02  0.36550504328E+02  0.00000000000E+00 0.  1.
         23    2    1    2    0    0 -0.19337280501E+02  0.19239619383E+02  0.34139075817E+03  0.35426543631E+03  0.90621499832E+02 0.  0.
         23    2    1    2    0    0 -0.40775203024E+02 -0.58677456703E+02  0.21587727253E+03  0.24452274827E+03  0.89903929396E+02 0.  0.
        -13    1    3    3    0    0  0.29845105467E+02  0.44790941127E+01  0.50133955071E+02  0.58516716035E+02  0.00000000000E+00 0. -1.
         13    1    3    3    0    0 -0.49182385968E+02  0.14760525270E+02  0.29125680310E+03  0.29574872028E+03  0.00000000000E+00 0.  1.
        -13    1    4    4    0    0 -0.65536046368E+02 -0.56034316668E+02  0.13763751797E+03  0.16241583781E+03  0.00000000000E+00 0.  1.
         13    1    4    4    0    0  0.24760843343E+02 -0.26431400350E+01  0.78239754562E+02  0.82106910466E+02  0.00000000000E+00 0. -1.
          2    1    1    2  501    0  0.60112483526E+02  0.39437837320E+02  0.66044813078E+02  0.97625667847E+02  0.00000000000E+00 0. -1.
<scales pt_clust_5="13000.00000" pt_clust_6="13000.00000" pt_clust_7="13000.00000" pt_clust_8="13000.00000" pt_clust_9="71.89474"></scales>
<clustering>
<clus scale="   71.895">  2  9  1 -1</clus>
<clus scale="   89.904">  7  8 -1 -1</clus>
<clus scale="   90.621">  5  6 -1 -1</clus>
<clus scale="   95.255">  2  7  1 -1</clus>
<clus scale="   71.895">  2  5  1 -1</clus>
</clustering>
</event>
<event>
 9    1  0.1445593E-005  0.1239038E+03  0.7546771E-02  0.1242087E+00
         -3   -1    0    0    0  501 -0.00000000000E+00  0.00000000000E+00  0.75577359582E+02  0.75577359582E+02  0.00000000000E+00 0.  1.
         21   -1    0    0  501  502  0.00000000000E+00 -0.00000000000E+00 -0.27852940262E+03  0.27852940262E+03  0.00000000000E+00 0. -1.
         23    2    1    2    0    0 -0.37207764654E+02 -0.63131232724E+02 -0.52294881231E+02  0.12871768257E+03  0.91997374455E+02 0.  0.
         23    2    1    2    0    0  0.44466067378E+02  0.82362706199E+02 -0.62269257248E+02  0.13464243120E+03  0.74096405851E+02 0.  0.
        -11    1    3    3    0    0 -0.61495317283E+02 -0.66146082658E+02 -0.28813365199E+02  0.94800782237E+02  0.00000000000E+00 0. -1.
         11    1    3    3    0    0  0.24287552629E+02  0.30148499336E+01 -0.23481516032E+02  0.33916900330E+02  0.00000000000E+00 0.  1.
        -13    1    4    4    0    0  0.23008086706E+02  0.90370432339E+02 -0.61536934621E+02  0.11172726354E+03  0.00000000000E+00 0.  1.
         13    1    4    4    0    0  0.21457980672E+02 -0.80077261404E+01 -0.73232262730E+00  0.22915167660E+02  0.00000000000E+00 0. -1.
         -3    1    1    2    0  502 -0.72583027238E+01 -0.19231473475E+02 -0.88387904559E+02  0.90746648438E+02  0.00000000000E+00 0.  1.
<scales pt_clust_5="13000.00000" pt_clust_6="13000.00000" pt_clust_7="13000.00000" pt_clust_8="13000.00000" pt_clust_9="20.55560"></scales>
<clustering>
<clus scale="   20.556">  2  9  1 -1</clus>
<clus scale="   74.096">  7  8 -1 -1</clus>
<clus scale="   91.997">  5  6 -1 -1</clus>
<clus scale="  111.261">  2  7  1 -1</clus>
<clus scale="   20.556">  2  5  1 -1</clus>
</clustering>
</event>
<event>
 9    1  0.1445593E-005  0.1564789E+03  0.7546771E-02  0.1194311E+00
          2   -1    0    0  502    0 -0.00000000000E+00  0.00000000000E+00  0.21525612426E+03  0.21525612426E+03  0.00000000000E+00 0. -1.
         21   -1    0    0  501  502  0.00000000000E+00 -0.00000000000E+00 -0.17780585736E+03  0.17780585736E+03  0.00000000000E+00 0. -1.
         23    2    1    2    0    0  0.12898669534E+03  0.17025180061E+02  0.74042367653E+02  0.17998647210E+03  0.99927141462E+02 0.  0.
         23    2    1    2    0    0 -0.10708467858E+03  0.40648115619E+02 -0.13192305831E+02  0.14709477160E+03  0.91342417364E+02 0.  0.
        -11    1    3    3    0    0  0.32859259715E+01 -0.19978940770E+02  0.39639549180E+02  0.44511226033E+02  0.00000000000E+00 0.  1.
         11    1    3    3    0    0  0.12570076937E+03  0.37004120831E+02  0.34402818473E+02  0.13547524607E+03  0.00000000000E+00 0. -1.
        -13    1    4    4    0    0 -0.48016019218E+02 -0.11752918189E+02 -0.40122414381E+02  0.63666924877E+02  0.00000000000E+00 0.  1.
         13    1    4    4    0    0 -0.59068659362E+02  0.52401033808E+02  0.26930108550E+02  0.83427846727E+02  0.00000000000E+00 0. -1.
          2    1    1    2  501    0 -0.21902016760E+02 -0.57673295680E+02 -0.23399794928E+02  0.65980737912E+02  0.00000000000E+00 0. -1.
<scales pt_clust_5="13000.00000" pt_clust_6="13000.00000" pt_clust_7="13000.00000" pt_clust_8="13000.00000" pt_clust_9="61.69204"></scales>
<clustering>
<clus scale="   61.692">  2  9  1 -1</clus>
<clus scale="   91.342">  7  8 -1 -1</clus>
<clus scale="   99.927">  5  6 -1 -1</clus>
<clus scale="  151.141">  2  7  1 -1</clus>
<clus scale="   61.692">  2  5  1 -1</clus>
</clustering>
</event>
<event>
 9    1  0.1445593E-005  0.1067299E+03  0.7546771E-02  0.1267958E+00
         21   -1    0    0  501  502  0.00000000000E+00  0.00000000000E+00  0.15516498181E+02  0.15516498181E+02  0.00000000000E+00 0.  1.
          1   -1    0    0  502    0 -0.00000000000E+00 -0.00000000000E+00 -0.99782441463E+03  0.99782441463E+03  0.00000000000E+00 0. -1.
         23    2    1    2    0    0 -0.54808082298E+02 -0.25530623931E+02 -0.59128826626E+03  0.60176994426E+03  0.94071852131E+02 0.  0.
         23    2    1    2    0    0  0.35258299882E+02  0.39623812945E+01 -0.27336141646E+03  0.29036518053E+03  0.91250347296E+02 0.  0.
        -11    1    3    3    0    0 -0.31714687587E+02 -0.60610080360E+02 -0.41105361942E+03  0.41670670895E+03  0.00000000000E+00 0.  1.
         11    1    3    3    0    0 -0.23093394711E+02  0.35079456429E+02 -0.18023464684E+03  0.18506323531E+03  0.00000000000E+00 0. -1.
        -11    1    4    4    0    0 -0.30415678665E+02  0.63178039191E+01 -0.68342132280E+02  0.75071134263E+02  0.00000000000E+00 0.  1.
         11    1    4    4    0    0  0.65673978547E+02 -0.23554226246E+01 -0.20501928418E+03  0.21529404627E+03  0.00000000000E+00 0. -1.
          1    1    1    2  501    0  0.19549782416E+02  0.21568242636E+02 -0.11765823373E+03  0.12120578802E+03  0.00000000000E+00 0. -1.
<scales pt_clust_5="13000.00000" pt_clust_6="13000.00000" pt_clust_7="13000.00000" pt_clust_8="13000.00000" pt_clust_9="29.10986"></scales>
<clustering>
<clus scale="   29.110">  1  9  2 -1</clus>
<clus scale="   91.250">  7  8 -1 -1</clus>
<clus scale="   94.072">  5  6 -1 -1</clus>
<clus scale="  104.252">  1  7  2 -1</clus>
<clus scale="   29.110">  1  5  2 -1</clus>
</clustering>
</event>
<event>
 9    1  0.1445593E-005  0.1162857E+03  0.7546771E-02  0.1249990E+00
         21   -1    0    0  501  502  0.00000000000E+00  0.00000000000E+00  0.80536075297E+02  0.80536075297E+02  0.00000000000E+00 0.  1.
          4   -1    0    0  502    0 -0.00000000000E+00 -0.00000000000E+00 -0.38800279169E+03  0.38800279169E+03  0.00000000000E+00 0. -1.
         23    2    1    2    0    0 -0.56264706804E+02  0.27120125986E+01 -0.17257408977E+03  0.20314143272E+03  0.91167718984E+02 0.  0.
         23    2    1    2    0    0  0.10989708104E+03  0.48203282040E+02 -0.70753232600E+02  0.16750636899E+03  0.93013111497E+02 0.  0.
        -13    1    3    3    0    0 -0.21373329486E+02 -0.31088255294E+02 -0.19347077886E+02  0.42398210496E+02  0.00000000000E+00 0. -1.
         13    1    3    3    0    0 -0.34891377318E+02  0.33800267893E+02 -0.15322701188E+03  0.16074322223E+03  0.00000000000E+00 0.  1.
        -13    1    4    4    0    0  0.13537329793E+02  0.42157125964E+02 -0.53469322924E+02  0.69422266323E+02  0.00000000000E+00 0. -1.
         13    1    4    4    0    0  0.96359751244E+02  0.60461560763E+01 -0.17283909676E+02  0.98084102671E+02  0.00000000000E+00 0.  1.
          4    1    1    2  501    0 -0.53632374233E+02 -0.50915294639E+02 -0.64139394023E+02  0.97891065270E+02  0.00000000000E+00 0. -1.
<scales pt_clust_5="13000.00000" pt_clust_6="13000.00000" pt_clust_7="13000.00000" pt_clust_8="13000.00000" pt_clust_9="73.95133"></scales>
<clustering>
<clus scale="   73.951">  1  9  2 -1</clus>
<clus scale="   91.168">  5  6 -1 -1</clus>
<clus scale="   93.013">  7  8 -1 -1</clus>
<clus scale="  114.815">  2  5  1 -1</clus>
<clus scale="   73.951">  1  5  2 -1</clus>
</clustering>
</event>
<event>
 9    1  0.1445593E-005  0.1970376E+03  0.7546771E-02  0.1152380E+00
          1   -1    0    0  502    0 -0.00000000000E+00  0.00000000000E+00  0.59517986657E+03  0.59517986657E+03  0.00000000000E+00 0. -1.
         21   -1    0    0  501  502  0.00000000000E+00 -0.00000000000E+00 -0.81612532101E+02  0.81612532101E+02  0.00000000000E+00 0. -1.
         23    2    1    2    0    0 -0.81829614715E+02 -0.16074399327E+03  0.33425971352E+03  0.39062597618E+03  0.91238040158E+02 0.  0.
         23    2    1    2    0    0  0.56797876126E+02  0.15550131333E+03  0.17877209580E+03  0.26058595304E+03  0.92406274175E+02 0.  0.
        -11    1    3    3    0    0 -0.35278527241E+02 -0.80427907086E+02  0.25101972622E+03  0.26594007911E+03  0.00000000000E+00 0. -1.
         11    1    3    3    0    0 -0.46551087474E+02 -0.80316086185E+02  0.83239987295E+02  0.12468589708E+03  0.00000000000E+00 0.  1.
        -11    1    4    4    0    0  0.59645507155E+02  0.66552785632E+02  0.13372806556E+03  0.16084170889E+03  0.00000000000E+00 0.  1.
         11    1    4    4    0    0 -0.28476310293E+01  0.88948527694E+02  0.45044030238E+02  0.99744244152E+02  0.00000000000E+00 0. -1.
          1    1    1    2  501    0  0.25031738590E+02  0.52426799451E+01  0.53552514909E+00  0.25580469445E+02  0.00000000000E+00 0. -1.
<scales pt_clust_5="13000.00000" pt_clust_6="13000.00000" pt_clust_7="13000.00000" pt_clust_8="13000.00000" pt_clust_9="25.57486"></scales>
<clustering>
<clus scale="   25.575">  2  9  1 -1</clus>
<clus scale="   91.238">  5  6 -1 -1</clus>
<clus scale="   92.406">  7  8 -1 -1</clus>
<clus scale="  196.492">  1  5  2 -1</clus>
<clus scale="   25.575">  2  5  1 -1</clus>
</clustering>
</event>
<event>
 9    1  0.1445593E-005  0.1021190E+03  0.7546771E-02  0.1277508E+00
         -1   -1    0    0    0  501 -0.00000000000E+00  0.00000000000E+00  0.35840393518E+03  0.35840393518E+03  0.00000000000E+00 0.  1.
         21   -1    0    0  501  502  0.00000000000E+00 -0.00000000000E+00 -0.46974661741E+02  0.46974661741E+02  0.00000000000E+00 0. -1.
         23    2    1    2    0    0  0.35541468294E+02  0.28659854946E+02  0.25338962745E+03  0.27407245512E+03  0.93940534936E+02 0.  0.
         23    2    1    2    0    0 -0.18134047395E+02 -0.14003970595E+02  0.37559744776E+02  0.10069177259E+03  0.90571208296E+02 0.  0.
        -11    1    4    4    0    0  0.26139417201E+02  0.17402999162E+02  0.34014895010E+02  0.46294131312E+02  0.00000000000E+00 0.  1.
         11    1    4    4    0    0 -0.44273464596E+02 -0.31406969757E+02  0.35448497667E+01  0.54397641277E+02  0.00000000000E+00 0. -1.
        -13    1    3    3    0    0  0.26256522031E+02  0.57802575878E+02  0.10612522344E+03  0.12366529739E+03  0.00000000000E+00 0. -1.
         13    1    3    3    0    0  0.92849462629E+01 -0.29142720932E+02  0.14726440400E+03  0.15040715773E+03  0.00000000000E+00 0.  1.
         -1    1    1    2    0  502 -0.17407420899E+02 -0.14655884352E+02  0.20479901219E+02  0.30614369215E+02  0.00000000000E+00 0.  1.
<scales pt_clust_5="13000.00000" pt_clust_6="13000.00000" pt_clust_7="13000.00000" pt_clust_8="13000.00000" pt_clust_9="22.75551"></scales>
<clustering>
<clus scale="   22.756">  2  9  1 -1</clus>
<clus scale="   90.571">  5  6 -1 -1</clus>
<clus scale="   93.941">  7  8 -1 -1</clus>
<clus scale="   99.028">  2  5  1 -1</clus>
<clus scale="   22.756">  2  5  1 -1</clus>
</clustering>
</event>
<event>
 9    1  0.1445593E-005  0.2305067E+03  0.7546771E-02  0.1156235E+00
         21   -1    0    0  501  502  0.00000000000E+00  0.00000000000E+00  0.21553556773E+03  0.21553556773E+03  0.00000000000E+00 0. -1.
          2   -1    0    0  502    0 -0.00000000000E+00 -0.00000000000E+00 -0.61417187136E+03  0.61417187136E+03  0.00000000000E+00 0. -1.
         23    2    1    2    0    0  0.38803771360E+02  0.53941191385E+02 -0.23388940426E+03  0.25936218385E+03  0.90272388848E+02 0.  0.
         23    2    1    2    0    0  0.63932106452E+02  0.14740108626E+03 -0.26569260163E+03  0.32279039635E+03  0.88242206159E+02 0.  0.
        -11    1    4    4    0    0  0.18985415005E+02  0.13541174468E+03 -0.20154163818E+03  0.24354839048E+03  0.00000000000E+00 0.  1.
         11    1    4    4    0    0  0.44946691448E+02  0.11989341571E+02 -0.64150963447E+02  0.79242005871E+02  0.00000000000E+00 0. -1.
        -11    1    3    3    0    0 -0.24084244641E+02  0.78599906656E+00 -0.24503475720E+02  0.34366974798E+02  0.00000000000E+00 0.  1.
         11    1    3    3    0    0  0.62888016001E+02  0.53155192319E+02 -0.20938592854E+03  0.22499520906E+03  0.00000000000E+00 0. -1.
          2    1    1    2  501    0 -0.10273587781E+03 -0.20134227764E+03  0.10094570226E+03  0.24755485889E+03  0.00000000000E+00 0. -1.
<scales pt_clust_5="13000.00000" pt_clust_6="13000.00000" pt_clust_7="13000.00000" pt_clust_8="13000.00000" pt_clust_9="212.94757"></scales>
<clustering>
<clus scale="   88.242">  5  6 -1 -1</clus>
<clus scale="   90.272">  7  8 -1 -1</clus>
<clus scale="  112.091">  2  7  1 -1</clus>
<clus scale="  212.948">  1  9  2 -1</clus>
<clus scale="  212.948">  1  5  2 -1</clus>
</clustering>
</event>
<event>
 9    1  0.1445593E-005  0.1576146E+03  0.7546771E-02  0.1192067E+00
         21   -1    0    0  501  502  0.00000000000E+00  0.00000000000E+00  0.84353469855E+03  0.84353469855E+03  0.00000000000E+00 0.  1.
         -1   -1    0    0    0  501 -0.00000000000E+00 -0.00000000000E+00 -0.38359227754E+02  0.38359227754E+02  0.00000000000E+00 0.  1.
         23    2    1    2    0    0 -0.66993783436E+02 -0.11139535651E+03  0.26872807925E+03  0.31233147445E+03  0.91864448428E+02 0.  0.
         23    2    1    2    0    0  0.92459753939E+02  0.88200438770E+02  0.46603128843E+03  0.49117273670E+03  0.87962332776E+02 0.  0.
        -11    1    4    4    0    0  0.58035719772E+02  0.21026184516E+02  0.32888202612E+03  0.33462461402E+03  0.00000000000E+00 0. -1.
         11    1    4    4    0    0  0.34424034168E+02  0.67174254254E+02  0.13714926231E+03  0.15654812268E+03  0.00000000000E+00 0.  1.
        -13    1    3    3    0    0  0.18565418483E+02 -0.45095606299E+02  0.10865413276E+03  0.11909663738E+03  0.00000000000E+00 0.  1.
         13    1    3    3    0    0 -0.85559201919E+02 -0.66299750216E+02  0.16007394649E+03  0.19323483707E+03  0.00000000000E+00 0. -1.
         -1    1    1    2    0  502 -0.25465970503E+02  0.23194917744E+02  0.70416103121E+02  0.78389715152E+02  0.00000000000E+00 0.  1.
<scales pt_clust_5="13000.00000" pt_clust_6="13000.00000" pt_clust_7="13000.00000" pt_clust_8="13000.00000" pt_clust_9="34.44591"></scales>
<clustering>
<clus scale="   34.446">  1  9  2 -1</clus>
<clus scale="   87.962">  5  6 -1 -1</clus>
<clus scale="   91.864">  7  8 -1 -1</clus>
<clus scale="  155.373">  1  5  2 -1</clus>
<clus scale="   34.446">  1  5  2 -1</clus>
</clustering>
</event>
<event>
 9    1  0.1445593E-005  0.9693029E+02  0.7546771E-02  0.1289045E+00
         -1   -1    0    0    0  501 -0.00000000000E+00  0.00000000000E+00  0.56728787143E+02  0.56728787143E+02  0.00000000000E+00 0.  1.
         21   -1    0    0  501  502  0.00000000000E+00 -0.00000000000E+00 -0.41076503767E+03  0.41076503767E+03  0.00000000000E+00 0. -1.
         23    2    1    2    0    0  0.29110941045E+02  0.29924973416E+01 -0.26221437577E+02  0.10260729504E+03  0.94785501417E+02 0.  0.
         23    2    1    2    0    0  0.22961734047E+02 -0.27660248143E+02 -0.24712586364E+03  0.26573630052E+03  0.90841941702E+02 0.  0.
        -11    1    3    3    0    0 -0.12076503332E+02  0.41201737819E+02 -0.13450006693E+02  0.44992530626E+02  0.00000000000E+00 0.  1.
         11    1    3    3    0    0  0.41187444377E+02 -0.38209240478E+02 -0.12771430884E+02  0.57614764419E+02  0.00000000000E+00 0. -1.
        -11    1    4    4    0    0 -0.30695195416E+02  0.13304419713E+01 -0.13116691689E+03  0.13471720448E+03  0.00000000000E+00 0.  1.
         11    1    4    4    0    0  0.53656929463E+02 -0.28990690115E+02 -0.11595894675E+03  0.13101909603E+03  0.00000000000E+00 0. -1.
         -1    1    1    2    0  502 -0.52072675091E+02  0.24667750802E+02 -0.80688949305E+02  0.99150229252E+02  0.00000000000E+00 0.  1.
<scales pt_clust_5="13000.00000" pt_clust_6="13000.00000" pt_clust_7="13000.00000" pt_clust_8="13000.00000" pt_clust_9="57.61997"></scales>
<clustering>
<clus scale="   57.620">  2  9  1 -1</clus>
<clus scale="   90.842">  7  8 -1 -1</clus>
<clus scale="   93.078">  2  7  1 -1</clus>
<clus scale="   94.786">  5  6 -1 -1</clus>
<clus scale="   57.620">  2  5  1 -1</clus>
</clustering>
</event>
<event>
 9    1  0.1445593E-005  0.1411822E+03  0.7546771E-02  0.1211975E+00
         21   -1    0    0  501  502  0.00000000000E+00  0.00000000000E+00  0.31951711835E+02  0.31951711835E+02  0.00000000000E+00 0. -1.
         -1   -1    0    0    0  501 -0.00000000000E+00 -0.00000000000E+00 -0.86775123079E+03  0.86775123079E+03  0.00000000000E+00 0.  1.
         23    2    1    2    0    0  0.99981197463E+02  0.31620132158E+02 -0.51144243926E+03  0.52984509995E+03  0.90368073278E+02 0.  0.
         23    2    1    2    0    0 -0.10085304916E+03 -0.56050922556E+02 -0.23573961341E+03  0.27793026805E+03  0.91427704352E+02 0.  0.
        -13    1    4    4    0    0 -0.62093988459E+02 -0.37865793196E+02 -0.22098611150E+03  0.23264639084E+03  0.00000000000E+00 0.  1.
         13    1    4    4    0    0 -0.38759060699E+02 -0.18185129360E+02 -0.14753501912E+02  0.45283877206E+02  0.00000000000E+00 0. -1.
        -13    1    3    3    0    0  0.75674242001E+02 -0.16470321637E+02 -0.21449171541E+03  0.22804507970E+03  0.00000000000E+00 0.  1.
         13    1    3    3    0    0  0.24306955463E+02  0.48090453796E+02 -0.29695072385E+03  0.30180002025E+03  0.00000000000E+00 0. -1.
         -1    1    1    2    0  502  0.87185169526E+00  0.24430790398E+02 -0.88617466293E+02  0.91927574629E+02  0.00000000000E+00 0.  1.
<scales pt_clust_5="13000.00000" pt_clust_6="13000.00000" pt_clust_7="13000.00000" pt_clust_8="13000.00000" pt_clust_9="24.44635"></scales>
<clustering>
<clus scale="   24.446">  1  9  2 -1</clus>
<clus scale="   90.368">  7  8 -1 -1</clus>
<clus scale="   91.428">  5  6 -1 -1</clus>
<clus scale="  140.498">  2  7  1 -1</clus>
<clus scale="   24.446">  1  5  2 -1</clus>
</clustering>
</event>
<event>
 9    1  0.1445593E-005  0.9763714E+02  0.7546771E-02  0.1287809E+00
         21   -1    0    0  501  502  0.00000000000E+00  0.00000000000E+00  0.16662036998E+03  0.16662036998E+03  0.00000000000E+00 0. -1.
          1   -1    0    0  502    0 -0.00000000000E+00 -0.00000000000E+00 -0.17969135695E+03  0.17969135695E+03  0.00000000000E+00 0. -1.
         23    2    1    2    0    0  0.24166116297E+00  0.12714966914E+02 -0.70716257165E+02  0.11675458337E+03  0.92027794311E+02 0.  0.
         23    2    1    2    0    0  0.21304197937E+02 -0.99970508804E+01 -0.55877882580E+02  0.11397549569E+03  0.96510444923E+02 0.  0.
        -13    1    3    3    0    0  0.26711895612E+02 -0.10777530700E+02 -0.75717548198E+02  0.81011280945E+02  0.00000000000E+00 0. -1.
         13    1    3    3    0    0 -0.26470234449E+02  0.23492497614E+02  0.50012910336E+01  0.35743302421E+02  0.00000000000E+00 0.  1.
        -13    1    4    4    0    0  0.55561238702E+02 -0.22820447218E+02 -0.47174724846E+02  0.76375904064E+02  0.00000000000E+00 0. -1.
         13    1    4    4    0    0 -0.34257040765E+02  0.12823396337E+02 -0.87031577341E+01  0.37599591622E+02  0.00000000000E+00 0.  1.
          1    1    1    2  501    0 -0.21545859100E+02 -0.27179160336E+01  0.11352315277E+03  0.11558164788E+03  0.00000000000E+00 0. -1.
<scales pt_clust_5="13000.00000" pt_clust_6="13000.00000" pt_clust_7="13000.00000" pt_clust_8="13000.00000" pt_clust_9="21.71661"></scales>
<clustering>
<clus scale="   21.717">  1  9  2 -1</clus>
<clus scale="   92.028">  5  6 -1 -1</clus>
<clus scale="   93.209">  2  5  1 -1</clus>
<clus scale="   96.510">  7  8 -1 -1</clus>
<clus scale="   21.717">  1  5  2 -1</clus>
</clustering>
</event>
<event>
 9    1  0.1445593E-005  0.2463377E+03  0.7546771E-02  0.1115876E+00
          1   -1    0    0  502    0 -0.00000000000E+00  0.00000000000E+00  0.24928018265E+03  0.24928018265E+03  0.00000000000E+00 0. -1.
         21   -1    0    0  501  502  0.00000000000E+00 -0.00000000000E+00 -0.17017788758E+04  0.17017788758E+04  0.00000000000E+00 0. -1.
         23    2    1    2    0    0  0.63062772211E+02 -0.20902690489E+03  0.11643535845E+03  0.26329285223E+03  0.89982071178E+02 0.  0.
         23    2    1    2    0    0 -0.20993723024E+03  0.23624284022E+03 -0.44431792660E+03  0.55327326125E+03  0.93853937146E+02 0.  0.
        -11    1    3    3    0    0  0.79157357397E+02 -0.11132795087E+03  0.58747889274E+02  0.14869806444E+03  0.00000000000E+00 0.  1.
         11    1    3    3    0    0 -0.16094585186E+02 -0.97698954024E+02  0.57687469174E+02  0.11459478779E+03  0.00000000000E+00 0. -1.
        -13    1    4    4    0    0 -0.12549261694E+03  0.20354272273E+03 -0.32017271277E+03  0.39961056403E+03  0.00000000000E+00 0. -1.
         13    1    4    4    0    0 -0.84444613302E+02  0.32700117493E+02 -0.12414521383E+03  0.15366269722E+03  0.00000000000E+00 0.  1.
          1    1    1    2  501    0  0.14687445803E+03 -0.27215935329E+02 -0.11246161250E+04  0.11344929450E+04  0.00000000000E+00 0. -1.
<scales pt_clust_5="13000.00000" pt_clust_6="13000.00000" pt_clust_7="13000.00000" pt_clust_8="13000.00000" pt_clust_9="149.37474"></scales>
<clustering>
<clus scale="   89.982">  5  6 -1 -1</clus>
<clus scale="   93.854">  7  8 -1 -1</clus>
<clus scale="  149.375">  2  9  1 -1</clus>
<clus scale="  244.889">  1  5  2 -1</clus>
<clus scale="  149.375">  2  5  1 -1</clus>
</clustering>
</event>
<event>
 9    1  0.1445593E-005  0.1204972E+03  0.7546771E-02  0.1243454E+00
         -1   -1    0    0    0  501 -0.00000000000E+00  0.00000000000E+00  0.46255213389E+03  0.46255213389E+03  0.00000000000E+00 0.  1.
         21   -1    0    0  501  502  0.00000000000E+00 -0.00000000000E+00 -0.99151249359E+02  0.99151249359E+02  0.00000000000E+00 0.  1.
         23    2    1    2    0    0  0.37287005428E+02 -0.61601335197E+02  0.25504242229E+03  0.28002620190E+03  0.90459887850E+02 0.  0.
         23    2    1    2    0    0  0.12551590592E+02  0.11042093382E+03  0.14556925498E+03  0.20260833818E+03  0.86656826923E+02 0.  0.
        -11    1    4    4    0    0 -0.34577076154E+02  0.29152119487E+02  0.32989052677E+02  0.55979441427E+02  0.00000000000E+00 0. -1.
         11    1    4    4    0    0  0.47128666745E+02  0.81268814337E+02  0.11258020231E+03  0.14662889676E+03  0.00000000000E+00 0.  1.
        -13    1    3    3    0    0 -0.20626509393E+02 -0.18365338940E+02  0.19934350218E+02  0.34060488586E+02  0.00000000000E+00 0.  1.
         13    1    3    3    0    0  0.57913514821E+02 -0.43235996257E+02  0.23510807207E+03  0.24596571331E+03  0.00000000000E+00 0. -1.
         -1    1    1    2    0  502 -0.49838596019E+02 -0.48819598626E+02 -0.37210792743E+02  0.79068843167E+02  0.00000000000E+00 0.  1.
<scales pt_clust_5="13000.00000" pt_clust_6="13000.00000" pt_clust_7="13000.00000" pt_clust_8="13000.00000" pt_clust_9="69.76560"></scales>
<clustering>
<clus scale="   69.766">  2  9  1 -1</clus>
<clus scale="   86.657">  5  6 -1 -1</clus>
<clus scale="   90.460">  7  8 -1 -1</clus>
<clus scale="  117.669">  2  5  1 -1</clus>
<clus scale="   69.766">  2  5  1 -1</clus>
</clustering>
</event>
<event>
 9    1  0.1445593E-005  0.1336514E+03  0.7546771E-02  0.1222374E+00
         -1   -1    0    0    0  501 -0.00000000000E+00  0.00000000000E+00  0.36266185260E+03  0.36266185260E+03  0.00000000000E+00 0.  1.
         21   -1    0    0  501  502  0.00000000000E+00 -0.00000000000E+00 -0.88211647444E+02  0.88211647444E+02  0.00000000000E+00 0. -1.
         23    2    1    2    0    0  0.49320692119E+02 -0.77919698916E+02  0.22916133836E+03  0.26291622055E+03  0.90033382034E+02 0.  0.
         23    2    1    2    0    0 -0.77089069824E+02  0.86909891843E+02  0.54548403679E+02  0.15733628355E+03  0.91011668435E+02 0.  0.
        -11    1    3    3    0    0 -0.89668724032E+01 -0.30909513170E+02  0.15208809796E+03  0.15545607851E+03  0.00000000000E+00 0.  1.
         11    1    3    3    0    0  0.58287564523E+02 -0.47010185746E+02  0.77073240402E+02  0.10746014204E+03  0.00000000000E+00 0. -1.
        -13    1    4    4    0    0 -0.29780708164E+02  0.85257982261E+02  0.61822727732E+02  0.10944342731E+03  0.00000000000E+00 0. -1.
         13    1    4    4    0    0 -0.47308361660E+02  0.16519095822E+01 -0.72743240531E+01  0.47892856238E+02  0.00000000000E+00 0.  1.
         -1    1    1    2    0  502  0.27768377704E+02 -0.89901929271E+01 -0.92595368818E+01  0.30620995942E+02  0.00000000000E+00 0.  1.
<scales pt_clust_5="13000.00000" pt_clust_6="13000.00000" pt_clust_7="13000.00000" pt_clust_8="13000.00000" pt_clust_9="29.18744"></scales>
<clustering>
<clus scale="   29.187">  2  9  1 -1</clus>
<clus scale="   90.033">  5  6 -1 -1</clus>
<clus scale="   91.012">  7  8 -1 -1</clus>
<clus scale="  132.987">  1  5  2 -1</clus>
<clus scale="   29.187">  2  5  1 -1</clus>
</clustering>
</event>
<event>
 9    1  0.1445593E-005  0.1002665E+03  0.7546771E-02  0.1280161E+00
         21   -1    0    0  501  502  0.00000000000E+00  0.00000000000E+00  0.64504278396E+02  0.64504278396E+02  0.00000000000E+00 0.  1.
          1   -1    0    0  502    0 -0.00000000000E+00 -0.00000000000E+00 -0.27542281277E+03  0.27542281277E+03  0.00000000000E+00 0. -1.
         23    2    1    2    0    0  0.51594074104E+02  0.25544031272E+01 -0.13826789615E+03  0.17280853547E+03  0.89868266739E+02 0.  0.
         23    2    1    2    0    0 -0.20965115197E+02  0.36288597107E+02 -0.39075344827E+02  0.10733384095E+03  0.90759421021E+02 0.  0.
        -11    1    3    3    0    0  0.76110965413E+01  0.18888933617E+02  0.58967765058E+01  0.21201239985E+02  0.00000000000E+00 0.  1.
         11    1    3    3    0    0  0.43982977563E+02 -0.16334530490E+02 -0.14416467265E+03  0.15160729548E+03  0.00000000000E+00 0. -1.
        -13    1    4    4    0    0  0.32096971815E+02  0.16999028591E+02 -0.35457740667E+02  0.50758584948E+02  0.00000000000E+00 0. -1.
         13    1    4    4    0    0 -0.53062087012E+02  0.19289568516E+02 -0.36176041602E+01  0.56575256000E+02  0.00000000000E+00 0.  1.
          1    1    1    2  501    0 -0.30628958908E+02 -0.38843000234E+02 -0.33575293394E+02  0.59784714748E+02  0.00000000000E+00 0. -1.
<scales pt_clust_5="13000.00000" pt_clust_6="13000.00000" pt_clust_7="13000.00000" pt_clust_8="13000.00000" pt_clust_9="49.46627"></scales>
<clustering>
<clus scale="   49.466">  1  9  2 -1</clus>
<clus scale="   89.868">  5  6 -1 -1</clus>
<clus scale="   90.759">  7  8 -1 -1</clus>
<clus scale="   99.461">  2  5  1 -1</clus>
<clus scale="   49.466">  1  5  2 -1</clus>
</clustering>
</event>
<event>
 9    1  0.1445593E-005  0.1171711E+03  0.7546771E-02  0.1249620E+00
         21   -1    0    0  501  502  0.00000000000E+00  0.00000000000E+00  0.33216434434E+03  0.33216434434E+03  0.00000000000E+00 0.  1.
          1   -1    0    0  502    0 -0.00000000000E+00 -0.00000000000E+00 -0.55272905050E+02  0.55272905050E+02  0.00000000000E+00 0. -1.
         23    2    1    2    0    0 -0.17219306604E+01  0.76740120705E+02  0.87227925585E+02  0.15100405948E+03  0.96444304173E+02 0.  0.
         23    2    1    2    0    0  0.42321457968E+01 -0.55272948553E+02  0.10802565969E+03  0.15198273184E+03  0.91412240566E+02 0.  0.
        -11    1    3    3    0    0 -0.43988566355E+02  0.22217019554E+02  0.15923753293E+02  0.51789534143E+02  0.00000000000E+00 0.  1.
         11    1    3    3    0    0  0.42266635695E+02  0.54523101151E+02  0.71304172291E+02  0.99214525339E+02  0.00000000000E+00 0. -1.
        -13    1    4    4    0    0 -0.34002004362E+02 -0.11981817001E+02  0.80076912062E+02  0.87818062405E+02  0.00000000000E+00 0.  1.
         13    1    4    4    0    0  0.38234150159E+02 -0.43291131552E+02  0.27948747632E+02  0.64164669434E+02  0.00000000000E+00 0. -1.
          1    1    1    2  501    0 -0.25102151364E+01 -0.21467172152E+02  0.81637854016E+02  0.84450458072E+02  0.00000000000E+00 0. -1.
<scales pt_clust_5="13000.00000" pt_clust_6="13000.00000" pt_clust_7="13000.00000" pt_clust_8="13000.00000" pt_clust_9="21.61344"></scales>
<clustering>
<clus scale="   21.613">  1  9  2 -1</clus>
<clus scale="   91.412">  7  8 -1 -1</clus>
<clus scale="   96.444">  5  6 -1 -1</clus>
<clus scale="  113.065">  1  7  2 -1</clus>
<clus scale="   21.613">  1  5  2 -1</clus>
</clustering>
</event>
<event>
 9    1  0.1445593E-005  0.2190021E+03  0.7546771E-02  0.1134728E+00
          2   -1    0    0  502    0 -0.00000000000E+00  0.00000000000E+00  0.11574724083E+03  0.11574724083E+03  0.00000000000E+00 0. -1.
         21   -1    0    0  501  502  0.00000000000E+00 -0.00000000000E+00 -0.49787192391E+03  0.49787192391E+03  0.00000000000E+00 0. -1.
         23    2    1    2    0    0  0.20102214402E+03 -0.31661120182E+02 -0.12901409366E+03  0.25762976938E+03  0.91192833002E+02 0.  0.
         23    2    1    2    0    0 -0.18607791969E+03  0.52277895075E+02 -0.18428779882E+03  0.28260712398E+03  0.92449030402E+02 0.  0.
        -11    1    4    4    0    0 -0.34983490549E+02  0.52161206574E+02 -0.46846589538E+02  0.78353296252E+02  0.00000000000E+00 0.  1.
         11    1    4    4    0    0 -0.15109442914E+03  0.11668850083E+00 -0.13744120928E+03  0.20425382773E+03  0.00000000000E+00 0. -1.
        -13    1    3    3    0    0  0.13972533373E+03  0.19038084414E+02 -0.10034477436E+03  0.17307423634E+03  0.00000000000E+00 0.  1.
         13    1    3    3    0    0  0.61296810285E+02 -0.50699204596E+02 -0.28669319302E+02  0.84555533036E+02  0.00000000000E+00 0. -1.
          2    1    1    2  501    0 -0.14944224326E+02 -0.20616774893E+02 -0.68822790599E+02  0.73382271384E+02  0.00000000000E+00 0. -1.
<scales pt_clust_5="13000.00000" pt_clust_6="13000.00000" pt_clust_7="13000.00000" pt_clust_8="13000.00000" pt_clust_9="25.46333"></scales>
<clustering>
<clus scale="   25.463">  2  9  1 -1</clus>
<clus scale="   91.193">  7  8 -1 -1</clus>
<clus scale="   92.449">  5  6 -1 -1</clus>
<clus scale="  218.475">  1  7  2 -1</clus>
<clus scale="   25.463">  2  5  1 -1</clus>
</clustering>
</event>
<event>
 9    1  0.1445593E-005  0.1425793E+03  0.7546771E-02  0.1215005E+00
         21   -1    0    0  501  502  0.00000000000E+00  0.00000000000E+00  0.20789857943E+03  0.20789857943E+03  0.00000000000E+00 0. -1.
          2   -1    0    0  502    0 -0.00000000000E+00 -0.00000000000E+00 -0.36110118693E+03  0.36110118693E+03  0.00000000000E+00 0. -1.
         23    2    1    2    0    0 -0.46719432617E+02  0.80726158424E+02 -0.27376269797E+03  0.31026503767E+03  0.11233414780E+03 0.  0.
         23    2    1    2    0    0  0.72099349115E+02 -0.36204574843E+02 -0.48861301899E+01  0.12322433853E+03  0.93012235517E+02 0.  0.
        -11    1    4    4    0    0  0.24611893276E+02 -0.63674577720E+02 -0.30038938642E+01  0.68331694819E+02  0.00000000000E+00 0.  1.
         11    1    4    4    0    0  0.47487455839E+02  0.27470002877E+02 -0.18822363257E+01  0.54892643712E+02  0.00000000000E+00 0. -1.
        -13    1    3    3    0    0 -0.23710447101E+02  0.81217005221E+02 -0.27449579001E+03  0.28723914422E+03  0.00000000000E+00 0. -1.
         13    1    3    3    0    0 -0.23008985516E+02 -0.49084679685E+00  0.73309204306E+00  0.23025893446E+02  0.00000000000E+00 0.  1.
          2    1    1    2  501    0 -0.25379916498E+02 -0.44521583581E+02  0.12544622066E+03  0.13551039017E+03  0.00000000000E+00 0. -1.
<scales pt_clust_5="13000.00000" pt_clust_6="13000.00000" pt_clust_7="13000.00000" pt_clust_8="13000.00000" pt_clust_9="51.24755"></scales>
<clustering>
<clus scale="   51.248">  1  9  2 -1</clus>
<clus scale="   93.012">  5  6 -1 -1</clus>
<clus scale="  112.334">  7  8 -1 -1</clus>
<clus scale="  127.911">  1  5  2 -1</clus>
<clus scale="   51.248">  1  5  2 -1</clus>
</clustering>
</event>
<event>
 9    1  0.1445593E-005  0.9628078E+02  0.7546771E-02  0.1290041E+00
         21   -1    0    0  501  502  0.00000000000E+00  0.00000000000E+00  0.55047636410E+02  0.55047636410E+02  0.00000000000E+00 0.  1.
          2   -1    0    0  502    0 -0.00000000000E+00 -0.00000000000E+00 -0.27124835904E+03  0.27124835904E+03  0.00000000000E+00 0. -1.
         23    2    1    2    0    0 -0.19069673271E+02  0.10460002728E+02 -0.15343277369E+03  0.18019155606E+03  0.91947358516E+02 0.  0.
         23    2    1    2    0    0  0.41708251528E+02 -0.75154520379E+01 -0.71584302578E+02  0.12163193040E+03  0.88735302179E+02 0.  0.
        -11    1    3    3    0    0 -0.51477047650E+02  0.20394574716E+02 -0.64432599068E+02  0.84955193692E+02  0.00000000000E+00 0.  1.
         11    1    3    3    0    0  0.32407374378E+02 -0.99345719886E+01 -0.89000174624E+02  0.95236362371E+02  0.00000000000E+00 0. -1.
        -11    1    4    4    0    0 -0.17999744855E+01  0.22735747647E+02  0.95498135005E+01  0.24725554940E+02  0.00000000000E+00 0.  1.
         11    1    4    4    0    0  0.43508226014E+02 -0.30251199685E+02 -0.81134116078E+02  0.96906375461E+02  0.00000000000E+00 0. -1.
          2    1    1    2  501    0 -0.22638578257E+02 -0.29445506900E+01  0.88163536441E+01  0.24472508981E+02  0.00000000000E+00 0. -1.
<scales pt_clust_5="13000.00000" pt_clust_6="13000.00000" pt_clust_7="13000.00000" pt_clust_8="13000.00000" pt_clust_9="22.82927"></scales>
<clustering>
<clus scale="   22.829">  1  9  2 -1</clus>
<clus scale="   88.735">  7  8 -1 -1</clus>
<clus scale="   91.947">  5  6 -1 -1</clus>
<clus scale="   93.218">  1  7  2 -1</clus>
<clus scale="   22.829">  1  5  2 -1</clus>
</clustering>
</event>
<event>
 9    1  0.1445593E-005  0.1864624E+03  0.7546771E-02  0.1180778E+00
          2   -1    0    0  502    0 -0.00000000000E+00  0.00000000000E+00  0.20259533163E+03  0.20259533163E+03  0.00000000000E+00 0. -1.
         21   -1    0    0  501  502  0.00000000000E+00 -0.00000000000E+00 -0.32312441046E+03  0.32312441046E+03  0.00000000000E+00 0. -1.
         23    2    1    2    0    0  0.38834887695E+01 -0.79693381408E+02  0.49694209489E+01  0.12071174871E+03  0.90446197298E+02 0.  0.
         23    2    1    2    0    0  0.11946642426E+03 -0.49596133949E+02  0.37724402065E+02  0.16299002812E+03  0.91709409163E+02 0.  0.
        -11    1    3    3    0    0  0.25655570097E+02 -0.26789700882E+01 -0.24354755516E+02  0.35475897084E+02  0.00000000000E+00 0.  1.
         11    1    3    3    0    0 -0.21772081327E+02 -0.77014411319E+02  0.29324176464E+02  0.85235851621E+02  0.00000000000E+00 0. -1.
        -11    1    4    4    0    0  0.31244330611E+02 -0.28096470785E+02  0.56353595858E+02  0.70294719802E+02  0.00000000000E+00 0.  1.
         11    1    4    4    0    0  0.88222093646E+02 -0.21499663164E+02 -0.18629193793E+02  0.92695308322E+02  0.00000000000E+00 0. -1.
          2    1    1    2  501    0 -0.12334991303E+03  0.12928951536E+03 -0.16322290184E+03  0.24201796526E+03  0.00000000000E+00 0. -1.
<scales pt_clust_5="13000.00000" pt_clust_6="13000.00000" pt_clust_7="13000.00000" pt_clust_8="13000.00000" pt_clust_9="162.35022"></scales>
<clustering>
<clus scale="   90.446">  5  6 -1 -1</clus>
<clus scale="   91.709">  7  8 -1 -1</clus>
<clus scale="  120.609">  1  5  2 -1</clus>
<clus scale="  162.350">  2  9  1 -1</clus>
<clus scale="  162.350">  2  5  1 -1</clus>
</clustering>
</event>
<event>
 9    1  0.1445593E-005  0.9941745E+02  0.7546771E-02  0.1282767E+00
         21   -1    0    0  501  502  0.00000000000E+00  0.00000000000E+00  0.99874805302E+02  0.99874805302E+02  0.00000000000E+00 0. -1.
          3   -1    0    0  502    0 -0.00000000000E+00 -0.00000000000E+00 -0.20950036395E+03  0.20950036395E+03  0.00000000000E+00 0. -1.
         23    2    1    2    0    0 -0.27861867700E+02  0.21968222403E+02 -0.14089816717E+03  0.17013040053E+03  0.88505215703E+02 0.  0.
         23    2    1    2    0    0  0.48225642127E+02 -0.37905689760E+02  0.26857013279E+02  0.11301151395E+03  0.91037076226E+02 0.  0.
        -13    1    4    4    0    0 -0.30945383972E+01 -0.53111512591E+02  0.26610347668E+02  0.59485456547E+02  0.00000000000E+00 0.  1.
         13    1    4    4    0    0  0.51320180524E+02  0.15205822830E+02  0.24666561070E+00  0.53526057401E+02  0.00000000000E+00 0. -1.
        -13    1    3    3    0    0 -0.49294108386E+02  0.27554404177E+01 -0.35333548576E+02  0.60712117641E+02  0.00000000000E+00 0.  1.
         13    1    3    3    0    0  0.21432240686E+02  0.19212781985E+02 -0.10556461859E+03  0.10941828289E+03  0.00000000000E+00 0. -1.
          3    1    1    2  501    0 -0.20363774427E+02  0.15937467358E+02  0.44155952394E+01  0.26233254774E+02  0.00000000000E+00 0. -1.
<scales pt_clust_5="13000.00000" pt_clust_6="13000.00000" pt_clust_7="13000.00000" pt_clust_8="13000.00000" pt_clust_9="25.85897"></scales>
<clustering>
<clus scale="   25.859">  1  9  2 -1</clus>
<clus scale="   88.505">  7  8 -1 -1</clus>
<clus scale="   91.037">  5  6 -1 -1</clus>
<clus scale="   97.104">  2  7  1 -1</clus>
<clus scale="   25.859">  1  5  2 -1</clus>
</clustering>
</event>
<event>
 9    1  0.1900185E-005  0.9791450E+02  0.7546771E-02  0.1308950E+00
          1   -1    0    0  502    0 -0.00000000000E+00  0.00000000000E+00  0.32958462225E+03  0.32958462225E+03  0.00000000000E+00 0. -1.
         21   -1    0    0  501  502  0.00000000000E+00 -0.00000000000E+00 -0.96746218691E+02  0.96746218691E+02  0.00000000000E+00 0. -1.
         23    2    1    2    0    0  0.31054364287E+02 -0.24751807150E+02  0.27658328715E+03  0.29454212236E+03  0.93165023543E+02 0.  0.
         23    2    1    2    0    0 -0.14852077535E+02 -0.87731468161E+01  0.17557534891E+02  0.60064084418E+02  0.54789368433E+02 0.  0.
        -11    1    3    3    0    0  0.52455952287E+02 -0.45180159025E+02  0.22079202441E+03  0.23139142538E+03  0.00000000000E+00 0. -1.
         11    1    3    3    0    0 -0.21401588001E+02  0.20428351875E+02  0.55791262749E+02  0.63150696975E+02  0.00000000000E+00 0.  1.
        -13    1    4    4    0    0  0.96406303516E+01 -0.21147339350E+02  0.22307954512E+02  0.32214849831E+02  0.00000000000E+00 0. -1.
         13    1    4    4    0    0 -0.24492707886E+02  0.12374192534E+02 -0.47504196203E+01  0.27849234586E+02  0.00000000000E+00 0.  1.
          1    1    1    2  501    0 -0.16202286752E+02  0.33524953966E+02 -0.61302418484E+02  0.71724634167E+02  0.00000000000E+00 0. -1.
<scales pt_clust_5="13000.00000" pt_clust_6="13000.00000" pt_clust_7="13000.00000" pt_clust_8="13000.00000" pt_clust_9="37.23488"></scales>
<clustering>
<clus scale="   37.235">  2  9  1 -1</clus>
<clus scale="   54.789">  7  8 -1 -1</clus>
<clus scale="   62.525">  2  7  1 -1</clus>
<clus scale="   93.165">  5  6 -1 -1</clus>
<clus scale="   37.235">  2  5  1 -1</clus>
</clustering>
</event>
<event>
 9    1  0.1445593E-005  0.1103967E+03  0.7546771E-02  0.1259875E+00
          1   -1    0    0  502    0 -0.00000000000E+00  0.00000000000E+00  0.65899265716E+03  0.65899265716E+03  0.00000000000E+00 0. -1.
         21   -1    0    0  501  502  0.00000000000E+00 -0.00000000000E+00 -0.30616404455E+02  0.30616404455E+02  0.00000000000E+00 0.  1.
         23    2    1    2    0    0 -0.68363734484E+00 -0.79432301503E+02  0.34945246435E+03  0.36974218914E+03  0.91007162953E+02 0.  0.
         23    2    1    2    0    0  0.17470643969E+02  0.33432417108E+02  0.13044374923E+03  0.16352073413E+03  0.91107128500E+02 0.  0.
        -13    1    4    4    0    0 -0.25522617878E+02  0.19645593655E+02  0.10876987910E+03  0.11343826503E+03  0.00000000000E+00 0. -1.
         13    1    4    4    0    0  0.42993261847E+02  0.13786823453E+02  0.21673870134E+02  0.50082469106E+02  0.00000000000E+00 0.  1.
        -13    1    3    3    0    0  0.58442322453E+01 -0.99487142021E+02  0.28431265996E+03  0.30127319013E+03  0.00000000000E+00 0.  1.
         13    1    3    3    0    0 -0.65278695902E+01  0.20054840518E+02  0.65139804386E+02  0.68468999007E+02  0.00000000000E+00 0. -1.
          1    1    1    2  501    0 -0.16787006624E+02  0.45999884395E+02  0.14848003913E+03  0.15634613835E+03  0.00000000000E+00 0. -1.
<scales pt_clust_5="13000.00000" pt_clust_6="13000.00000" pt_clust_7="13000.00000" pt_clust_8="13000.00000" pt_clust_9="48.96729"></scales>
<clustering>
<clus scale="   48.967">  2  9  1 -1</clus>
<clus scale="   91.007">  7  8 -1 -1</clus>
<clus scale="   91.107">  5  6 -1 -1</clus>
<clus scale="  110.314">  1  7  2 -1</clus>
<clus scale="   48.967">  2  5  1 -1</clus>
</clustering>
</event>
<event>
 9    1  0.1445593E-005  0.1484996E+03  0.7546771E-02  0.1202570E+00
         21   -1    0    0  501  502  0.00000000000E+00  0.00000000000E+00  0.28653242709E+03  0.28653242709E+03  0.00000000000E+00 0. -1.
          2   -1    0    0  502    0 -0.00000000000E+00 -0.00000000000E+00 -0.53925309998E+03  0.53925309998E+03  0.00000000000E+00 0. -1.
         23    2    1    2    0    0  0.58216213777E+02  0.72970475266E+02 -0.23071309946E+03  0.26655815882E+03  0.95451034375E+02 0.  0.
         23    2    1    2    0    0 -0.90132717896E+02 -0.10700181456E+03 -0.26331804189E+03  0.31344791939E+03  0.96643219277E+02 0.  0.
        -11    1    4    4    0    0 -0.23019464320E+02 -0.79769798331E+02 -0.20254517393E+03  0.21890103688E+03  0.00000000000E+00 0. -1.
         11    1    4    4    0    0 -0.67113253576E+02 -0.27232016229E+02 -0.60772867962E+02  0.94546882518E+02  0.00000000000E+00 0.  1.
        -11    1    3    3    0    0  0.45204671520E+02  0.97169797250E+00 -0.15420360761E+03  0.16069585908E+03  0.00000000000E+00 0. -1.
         11    1    3    3    0    0  0.13011542257E+02  0.71998777294E+02 -0.76509491852E+02  0.10586229974E+03  0.00000000000E+00 0.  1.
          2    1    1    2  501    0  0.31916504119E+02  0.34031339294E+02  0.24131046846E+03  0.24577944885E+03  0.00000000000E+00 0. -1.
<scales pt_clust_5="13000.00000" pt_clust_6="13000.00000" pt_clust_7="13000.00000" pt_clust_8="13000.00000" pt_clust_9="46.65614"></scales>
<clustering>
<clus scale="   46.656">  1  9  2 -1</clus>
<clus scale="   95.451">  7  8 -1 -1</clus>
<clus scale="   96.643">  5  6 -1 -1</clus>
<clus scale="  147.727">  2  7  1 -1</clus>
<clus scale="   46.656">  1  5  2 -1</clus>
</clustering>
</event>
<event>
 9    1  0.1445593E-005  0.9417254E+02  0.7546771E-02  0.1295689E+00
          1   -1    0    0  502    0 -0.00000000000E+00  0.00000000000E+00  0.10865985208E+03  0.10865985208E+03  0.00000000000E+00 0. -1.
         21   -1    0    0  501  502  0.00000000000E+00 -0.00000000000E+00 -0.10947074876E+03  0.10947074876E+03  0.00000000000E+00 0.  1.
         23    2    1    2    0    0 -0.96815573258E+01 -0.37998484213E+01  0.17613604407E+02  0.91500305077E+02  0.89184613968E+02 0.  0.
         23    2    1    2    0    0  0.50874076185E+01 -0.16290772422E+02  0.50496283060E+01  0.95392914179E+02  0.93717865678E+02 0.  0.
        -13    1    4    4    0    0  0.11061412353E+02  0.19408101096E+02 -0.34930156894E+02  0.41462574595E+02  0.00000000000E+00 0.  1.
         13    1    4    4    0    0 -0.59740047347E+01 -0.35698873519E+02  0.39979785200E+02  0.53930339585E+02  0.00000000000E+00 0. -1.
        -13    1    3    3    0    0 -0.45787267820E+02  0.10612490872E+02  0.22871385998E+02  0.52270442454E+02  0.00000000000E+00 0. -1.
         13    1    3    3    0    0  0.36105710494E+02 -0.14412339293E+02 -0.52577815902E+01  0.39229862623E+02  0.00000000000E+00 0.  1.
          1    1    1    2  501    0  0.45941497073E+01  0.20090620844E+02 -0.23474129393E+02  0.31237381583E+02  0.00000000000E+00 0. -1.
<scales pt_clust_5="13000.00000" pt_clust_6="13000.00000" pt_clust_7="13000.00000" pt_clust_8="13000.00000" pt_clust_9="20.60920"></scales>
<clustering>
<clus scale="   20.609">  2  9  1 -1</clus>
<clus scale="   89.185">  7  8 -1 -1</clus>
<clus scale="   89.662">  1  7  2 -1</clus>
<clus scale="   93.718">  5  6 -1 -1</clus>
<clus scale="   20.609">  2  5  1 -1</clus>
</clustering>
</event>
<event>
 9    1  0.1445593E-005  0.1327249E+03  0.7546771E-02  0.1224137E+00
         21   -1    0    0  501  502  0.00000000000E+00  0.00000000000E+00  0.13635072495E+03  0.13635072495E+03  0.00000000000E+00 0.  1.
          2   -1    0    0  502    0 -0.00000000000E+00 -0.00000000000E+00 -0.23196645560E+03  0.23196645560E+03  0.00000000000E+00 0. -1.
         23    2    1    2    0    0  0.25788240839E+02  0.86537355288E+02 -0.75517667034E+02  0.14868533002E+03  0.90833155315E+02 0.  0.
         23    2    1    2    0    0  0.43558708230E+00 -0.11663367283E+03  0.36219677105E+02  0.15060167306E+03  0.88121481749E+02 0.  0.
        -11    1    4    4    0    0  0.23252800265E+02 -0.95384210362E+01  0.32440806862E+02  0.41037545564E+02  0.00000000000E+00 0. -1.
         11    1    4    4    0    0 -0.22817213183E+02 -0.10709525180E+03  0.37788702436E+01  0.10956412750E+03  0.00000000000E+00 0.  1.
        -13    1    3    3    0    0  0.36585084691E+02 -0.19371710936E+01 -0.97347655205E+01  0.37907607593E+02  0.00000000000E+00 0.  1.
         13    1    3    3    0    0 -0.10796843851E+02  0.88474526382E+02 -0.65782901514E+02  0.11077772243E+03  0.00000000000E+00 0. -1.
          2    1    1    2  501    0 -0.26223827922E+02  0.30096317544E+02 -0.56317740724E+02  0.69030177464E+02  0.00000000000E+00 0. -1.
<scales pt_clust_5="13000.00000" pt_clust_6="13000.00000" pt_clust_7="13000.00000" pt_clust_8="13000.00000" pt_clust_9="39.91841"></scales>
<clustering>
<clus scale="   39.918">  1  9  2 -1</clus>
<clus scale="   88.121">  5  6 -1 -1</clus>
<clus scale="   90.833">  7  8 -1 -1</clus>
<clus scale="  130.884">  1  5  2 -1</clus>
<clus scale="   39.918">  1  5  2 -1</clus>
</clustering>
</event>
<event>
 9    1  0.1445593E-005  0.9959361E+02  0.7546771E-02  0.1281636E+00
         21   -1    0    0  501  502  0.00000000000E+00  0.00000000000E+00  0.18183075469E+03  0.18183075469E+03  0.00000000000E+00 0. -1.
         -1   -1    0    0    0  501 -0.00000000000E+00 -0.00000000000E+00 -0.83492634460E+02  0.83492634460E+02  0.00000000000E+00 0.  1.
         23    2    1    2    0    0 -0.30400871610E+02 -0.29209600228E+02  0.20744673793E+01  0.10281174241E+03  0.93747198478E+02 0.  0.
         23    2    1    2    0    0  0.18323618237E+02  0.20887851160E+01  0.92981554419E+02  0.13264241790E+03  0.92781051708E+02 0.  0.
        -13    1    4    4    0    0 -0.18831340675E+02  0.27188310099E+02  0.44069247060E+01  0.33365320065E+02  0.00000000000E+00 0.  1.
         13    1    4    4    0    0  0.37154958912E+02 -0.25099524983E+02  0.88574629713E+02  0.99277097837E+02  0.00000000000E+00 0. -1.
        -13    1    3    3    0    0  0.26328448208E+02  0.95791362973E+01  0.16607666742E+02  0.32569335760E+02  0.00000000000E+00 0. -1.
         13    1    3    3    0    0 -0.56729319819E+02 -0.38788736526E+02 -0.14533199363E+02  0.70242406650E+02  0.00000000000E+00 0.  1.
         -1    1    1    2    0  502  0.12077253374E+02  0.27120815112E+02  0.32820984339E+01  0.29869228841E+02  0.00000000000E+00 0.  1.
<scales pt_clust_5="13000.00000" pt_clust_6="13000.00000" pt_clust_7="13000.00000" pt_clust_8="13000.00000" pt_clust_9="29.68837"></scales>
<clustering>
<clus scale="   29.688">  1  9  2 -1</clus>
<clus scale="   92.781">  5  6 -1 -1</clus>
<clus scale="   93.747">  7  8 -1 -1</clus>
<clus scale="   98.685">  1  5  2 -1</clus>
<clus scale="   29.688">  1  5  2 -1</clus>
</clustering>
</event>
<event>
 9    1  0.1445593E-005  0.1489603E+03  0.7546771E-02  0.1224104E+00
         21   -1    0    0  501  502  0.00000000000E+00  0.00000000000E+00  0.21569846408E+03  0.21569846408E+03  0.00000000000E+00 0.  1.
          3   -1    0    0  502    0 -0.00000000000E+00 -0.00000000000E+00 -0.19077354623E+03  0.19077354623E+03  0.00000000000E+00 0. -1.
         23    2    1    2    0    0 -0.17390049865E+02 -0.15699910848E+01 -0.76425160510E+02  0.12010139848E+03  0.90987153227E+02 0.  0.
         23    2    1    2    0    0 -0.43578160526E+02 -0.10450619604E+03  0.59342977396E+02  0.15701112556E+03  0.91160866044E+02 0.  0.
        -11    1    4    4    0    0  0.22480050578E+02 -0.65864647742E+01  0.24418367547E+02  0.33837713662E+02  0.00000000000E+00 0. -1.
         11    1    4    4    0    0 -0.66058211104E+02 -0.97919731268E+02  0.34924609849E+02  0.12317341190E+03  0.00000000000E+00 0.  1.
        -13    1    3    3    0    0 -0.11852722176E+02  0.23802097110E+02 -0.87808938261E+02  0.91746588429E+02  0.00000000000E+00 0. -1.
         13    1    3    3    0    0 -0.55373276898E+01 -0.25372088195E+02  0.11383777752E+02  0.28354810054E+02  0.00000000000E+00 0.  1.
          3    1    1    2  501    0  0.60968210391E+02  0.10607618713E+03  0.42007100962E+02  0.12935948626E+03  0.00000000000E+00 0. -1.
<scales pt_clust_5="13000.00000" pt_clust_6="13000.00000" pt_clust_7="13000.00000" pt_clust_8="13000.00000" pt_clust_9="117.80862"></scales>
<clustering>
<clus scale="   90.987">  7  8 -1 -1</clus>
<clus scale="   91.161">  5  6 -1 -1</clus>
<clus scale="   92.647">  2  7  1 -1</clus>
<clus scale="  117.809">  1  9  2 -1</clus>
<clus scale="  117.809">  1  5  2 -1</clus>
</clustering>
</event>
<event>
 9    1  0.1445593E-005  0.1489358E+03  0.7546771E-02  0.1201906E+00
         -2   -1    0    0    0  501 -0.00000000000E+00  0.00000000000E+00  0.38351841691E+03  0.38351841691E+03  0.00000000000E+00 0.  1.
         21   -1    0    0  501  502  0.00000000000E+00 -0.00000000000E+00 -0.13512759155E+03  0.13512759155E+03  0.00000000000E+00 0.  1.
         23    2    1    2    0    0  0.12723936399E+03  0.65355220434E+02  0.25984032848E+03  0.31073398900E+03  0.92614550822E+02 0.  0.
         23    2    1    2    0    0 -0.69176342771E+02 -0.86481303314E+01  0.24797878163E+02  0.11902511856E+03  0.93230292987E+02 0.  0.
        -13    1    3    3    0    0  0.35539837449E+02  0.40499010484E+02  0.17586131224E+03  0.18393056037E+03  0.00000000000E+00 0. -1.
         13    1    3    3    0    0  0.91699526546E+02  0.24856209950E+02  0.83979016243E+02  0.12680342862E+03  0.00000000000E+00 0.  1.
        -13    1    4    4    0    0  0.65015548918E+01  0.28087426084E+02 -0.59891795493E+01  0.29445610738E+02  0.00000000000E+00 0.  1.
         13    1    4    4    0    0 -0.75677897663E+02 -0.36735556416E+02  0.30787057712E+02  0.89579507826E+02  0.00000000000E+00 0. -1.
         -2    1    1    2    0  502 -0.58063021224E+02 -0.56707090103E+02 -0.36247381285E+02  0.88886900900E+02  0.00000000000E+00 0.  1.
<scales pt_clust_5="13000.00000" pt_clust_6="13000.00000" pt_clust_7="13000.00000" pt_clust_8="13000.00000" pt_clust_9="81.16039"></scales>
<clustering>
<clus scale="   81.160">  2  9  1 -1</clus>
<clus scale="   92.615">  5  6 -1 -1</clus>
<clus scale="   93.230">  7  8 -1 -1</clus>
<clus scale="  148.551">  1  5  2 -1</clus>
<clus scale="   81.160">  2  5  1 -1</clus>
</clustering>
</event>
<event>
 9    1  0.1445593E-005  0.1209160E+03  0.7546771E-02  0.1242524E+00
         21   -1    0    0  501  502  0.00000000000E+00  0.00000000000E+00  0.21381258948E+02  0.21381258948E+02  0.00000000000E+00 0. -1.
          1   -1    0    0  502    0 -0.00000000000E+00 -0.00000000000E+00 -0.16444730676E+04  0.16444730676E+04  0.00000000000E+00 0. -1.
         23    2    1    2    0    0  0.73171507764E+01  0.81101844730E+02 -0.71300551817E+03  0.72320400281E+03  0.89532736038E+02 0.  0.
         23    2    1    2    0    0 -0.85512007379E+02 -0.45546456001E+02 -0.74084484960E+03  0.75285757735E+03  0.92502202920E+02 0.  0.
        -13    1    4    4    0    0 -0.38489933103E+01 -0.51882189505E+02 -0.28146572907E+03  0.28623335406E+03  0.00000000000E+00 0. -1.
         13    1    4    4    0    0 -0.81663014068E+02  0.63357335043E+01 -0.45937912053E+03  0.46662422329E+03  0.00000000000E+00 0.  1.
        -13    1    3    3    0    0  0.18042573129E+02 -0.15509501546E+02 -0.13410116599E+03  0.13619545441E+03  0.00000000000E+00 0.  1.
         13    1    3    3    0    0 -0.10725422352E+02  0.96611346276E+02 -0.57890435218E+03  0.58700854840E+03  0.00000000000E+00 0. -1.
          1    1    1    2  501    0  0.78194856602E+02 -0.35555388729E+02 -0.16924144085E+03  0.18979274635E+03  0.00000000000E+00 0. -1.
<scales pt_clust_5="13000.00000" pt_clust_6="13000.00000" pt_clust_7="13000.00000" pt_clust_8="13000.00000" pt_clust_9="85.89890"></scales>
<clustering>
<clus scale="   85.899">  1  9  2 -1</clus>
<clus scale="   89.533">  7  8 -1 -1</clus>
<clus scale="   92.502">  5  6 -1 -1</clus>
<clus scale="  118.660">  2  7  1 -1</clus>
<clus scale="   85.899">  1  5  2 -1</clus>
</clustering>
</event>
<event>
 9    1  0.1445593E-005  0.1124872E+03  0.7546771E-02  0.1256243E+00
          2   -1    0    0  502    0 -0.00000000000E+00  0.00000000000E+00  0.20413953650E+03  0.20413953650E+03  0.00000000000E+00 0. -1.
         21   -1    0    0  501  502  0.00000000000E+00 -0.00000000000E+00 -0.26310494183E+03  0.26310494183E+03  0.00000000000E+00 0. -1.
         23    2    1    2    0    0  0.30623658485E+02  0.56735787870E+02  0.76550583464E+02  0.13565454089E+03  0.91571854579E+02 0.  0.
         23    2    1    2    0    0 -0.55354064842E+02 -0.39814740537E+02  0.63016319123E+02  0.13080898184E+03  0.92144707907E+02 0.  0.
        -11    1    4    4    0    0 -0.19261077008E+02 -0.13062984522E+02  0.79590277261E+02  0.82923114308E+02  0.00000000000E+00 0. -1.
         11    1    4    4    0    0 -0.36092987835E+02 -0.26751756015E+02 -0.16573958138E+02  0.47885867530E+02  0.00000000000E+00 0.  1.
        -13    1    3    3    0    0 -0.36838991713E+01 -0.23302104027E+02  0.82806029078E+01  0.25002550864E+02  0.00000000000E+00 0.  1.
         13    1    3    3    0    0  0.34307557657E+02  0.80037891897E+02  0.68269980557E+02  0.11065199003E+03  0.00000000000E+00 0. -1.
          2    1    1    2  501    0  0.24730406357E+02 -0.16921047333E+02 -0.19853230792E+03  0.20078095560E+03  0.00000000000E+00 0. -1.
<scales pt_clust_5="13000.00000" pt_clust_6="13000.00000" pt_clust_7="13000.00000" pt_clust_8="13000.00000" pt_clust_9="29.96523"></scales>
<clustering>
<clus scale="   29.965">  2  9  1 -1</clus>
<clus scale="   91.572">  7  8 -1 -1</clus>
<clus scale="   92.145">  5  6 -1 -1</clus>
<clus scale="  112.018">  1  7  2 -1</clus>
<clus scale="   29.965">  2  5  1 -1</clus>
</clustering>
</event>
<event>
 9    1  0.1445593E-005  0.1886545E+03  0.7546771E-02  0.1160106E+00
          1   -1    0    0  502    0 -0.00000000000E+00  0.00000000000E+00  0.13258592725E+04  0.13258592725E+04  0.00000000000E+00 0. -1.
         21   -1    0    0  501  502  0.00000000000E+00 -0.00000000000E+00 -0.35212395993E+02  0.35212395993E+02  0.00000000000E+00 0.  1.
         23    2    1    2    0    0  0.22899211642E+02 -0.15886462041E+03  0.75985869614E+03  0.78177421012E+03  0.89573076255E+02 0.  0.
         23    2    1    2    0    0 -0.42685544633E+02  0.16452233350E+03  0.52210703039E+03  0.55696203685E+03  0.93387929472E+02 0.  0.
        -11    1    3    3    0    0 -0.33108073456E+02 -0.41315448385E+02  0.25069505631E+03  0.25622474912E+03  0.00000000000E+00 0.  1.
         11    1    3    3    0    0  0.56007285097E+02 -0.11754917203E+03  0.50916363984E+03  0.52554946101E+03  0.00000000000E+00 0. -1.
        -11    1    4    4    0    0 -0.59783354518E+02  0.81617891645E+02  0.20293577172E+03  0.22675638283E+03  0.00000000000E+00 0.  1.
         11    1    4    4    0    0  0.17097809885E+02  0.82904441857E+02  0.31917125867E+03  0.33020565402E+03  0.00000000000E+00 0. -1.
          1    1    1    2  501    0  0.19786332991E+02 -0.56577130899E+01  0.86811500103E+01  0.22335421557E+02  0.00000000000E+00 0. -1.
<scales pt_clust_5="13000.00000" pt_clust_6="13000.00000" pt_clust_7="13000.00000" pt_clust_8="13000.00000" pt_clust_9="20.57933"></scales>
<clustering>
<clus scale="   20.579">  2  9  1 -1</clus>
<clus scale="   89.573">  5  6 -1 -1</clus>
<clus scale="   93.388">  7  8 -1 -1</clus>
<clus scale="  186.795">  1  5  2 -1</clus>
<clus scale="   20.579">  2  5  1 -1</clus>
</clustering>
</event>
<event>
 9    1  0.1445593E-005  0.9631024E+02  0.7546771E-02  0.1289548E+00
         -1   -1    0    0    0  501 -0.00000000000E+00  0.00000000000E+00  0.79132561774E+02  0.79132561774E+02  0.00000000000E+00 0.  1.
         21   -1    0    0  501  502  0.00000000000E+00 -0.00000000000E+00 -0.35092772731E+03  0.35092772731E+03  0.00000000000E+00 0.  1.
         23    2    1    2    0    0 -0.27617635496E+02  0.31921152876E+02 -0.18382793247E+00  0.10089217434E+03  0.91637892049E+02 0.  0.
         23    2    1    2    0    0 -0.16081111492E+02  0.12073304212E+02 -0.71894163069E+02  0.12004603904E+03  0.94010180215E+02 0.  0.
        -11    1    4    4    0    0 -0.35937655195E+02  0.20712906194E+02 -0.85108141748E+02  0.94678061533E+02  0.00000000000E+00 0.  1.
         11    1    4    4    0    0  0.19856543703E+02 -0.86396019818E+01  0.13213978679E+02  0.25367977506E+02  0.00000000000E+00 0. -1.
        -11    1    3    3    0    0 -0.22410058699E+01  0.49753615929E+02  0.29562948681E+02  0.57917288784E+02  0.00000000000E+00 0.  1.
         11    1    3    3    0    0 -0.25376629626E+02 -0.17832463053E+02 -0.29746776614E+02  0.42974885557E+02  0.00000000000E+00 0. -1.
         -1    1    1    2    0  502  0.43698746988E+02 -0.43994457089E+02 -0.19971717454E+03  0.20912207571E+03  0.00000000000E+00 0.  1.
<scales pt_clust_5="13000.00000" pt_clust_6="13000.00000" pt_clust_7="13000.00000" pt_clust_8="13000.00000" pt_clust_9="62.00881"></scales>
<clustering>
<clus scale="   62.009">  2  9  1 -1</clus>
<clus scale="   91.638">  7  8 -1 -1</clus>
<clus scale="   93.996">  1  7  2 -1</clus>
<clus scale="   94.010">  5  6 -1 -1</clus>
<clus scale="   62.009">  2  5  1 -1</clus>
</clustering>
</event>
<event>
 9    1  0.1445593E-005  0.1159319E+03  0.7546771E-02  0.1250310E+00
         21   -1    0    0  501  502  0.00000000000E+00  0.00000000000E+00  0.38493537220E+02  0.38493537220E+02  0.00000000000E+00 0. -1.
         -1   -1    0    0    0  501 -0.00000000000E+00 -0.00000000000E+00 -0.70975258909E+03  0.70975258909E+03  0.00000000000E+00 0.  1.
         23    2    1    2    0    0  0.51347237690E+02 -0.64824309335E+02 -0.53256948076E+03  0.54609889000E+03  0.88062568236E+02 0.  0.
         23    2    1    2    0    0 -0.17296520442E+02  0.50185924710E+02 -0.12548730810E+03  0.16280218073E+03  0.89104931959E+02 0.  0.
        -13    1    4    4    0    0 -0.62855587003E+01 -0.23177324878E+02 -0.56938370327E+02  0.61795425820E+02  0.00000000000E+00 0.  1.
         13    1    4    4    0    0 -0.11010961742E+02  0.73363249589E+02 -0.68548937770E+02  0.10100675491E+03  0.00000000000E+00 0. -1.
        -13    1    3    3    0    0  0.71359956914E+02 -0.24912725757E+02 -0.30847573625E+03  0.31760064107E+03  0.00000000000E+00 0.  1.
         13    1    3    3    0    0 -0.20012719224E+02 -0.39911583578E+02 -0.22409374451E+03  0.22849824893E+03  0.00000000000E+00 0. -1.
         -1    1    1    2    0  502 -0.34050717248E+02  0.14638384625E+02 -0.13202263012E+02  0.39345055575E+02  0.00000000000E+00 0.  1.
<scales pt_clust_5="13000.00000" pt_clust_6="13000.00000" pt_clust_7="13000.00000" pt_clust_8="13000.00000" pt_clust_9="37.06391"></scales>
<clustering>
<clus scale="   37.064">  1  9  2 -1</clus>
<clus scale="   88.063">  7  8 -1 -1</clus>
<clus scale="   89.105">  5  6 -1 -1</clus>
<clus scale="  115.133">  2  7  1 -1</clus>
<clus scale="   37.064">  1  5  2 -1</clus>
</clustering>
</event>
<event>
 9    1  0.1445593E-005  0.1213514E+03  0.7546771E-02  0.1241153E+00
          1   -1    0    0  502    0 -0.00000000000E+00  0.00000000000E+00  0.12736345484E+03  0.12736345484E+03  0.00000000000E+00 0. -1.
         21   -1    0    0  501  502  0.00000000000E+00 -0.00000000000E+00 -0.37400957500E+03  0.37400957500E+03  0.00000000000E+00 0. -1.
         23    2    1    2    0    0 -0.62217713300E+02  0.18630032016E+02  0.10826942370E+02  0.11353600605E+03  0.92493675718E+02 0.  0.
         23    2    1    2    0    0  0.94645543230E+02 -0.21536855151E+02 -0.53153816292E+01  0.13358614411E+03  0.91626358839E+02 0.  0.
        -11    1    3    3    0    0  0.13069285733E+02  0.24737309362E+02  0.24000639406E+02  0.36861516463E+02  0.00000000000E+00 0.  1.
         11    1    3    3    0    0 -0.75286999034E+02 -0.61072773454E+01 -0.13173697036E+02  0.76674489589E+02  0.00000000000E+00 0. -1.
        -13    1    4    4    0    0  0.75201990848E+02  0.26661238639E+02 -0.13657615673E+02  0.80948696958E+02  0.00000000000E+00 0.  1.
         13    1    4    4    0    0  0.19443552382E+02 -0.48198093790E+02  0.83422340442E+01  0.52637447156E+02  0.00000000000E+00 0. -1.
          1    1    1    2  501    0 -0.32427829930E+02  0.29068231344E+01 -0.25215768090E+03  0.25425087967E+03  0.00000000000E+00 0. -1.
<scales pt_clust_5="13000.00000" pt_clust_6="13000.00000" pt_clust_7="13000.00000" pt_clust_8="13000.00000" pt_clust_9="32.55785"></scales>
<clustering>
<clus scale="   32.558">  2  9  1 -1</clus>
<clus scale="   91.626">  7  8 -1 -1</clus>
<clus scale="   92.494">  5  6 -1 -1</clus>
<clus scale="  120.692">  2  7  1 -1</clus>
<clus scale="   32.558">  2  5  1 -1</clus>
</clustering>
</event>
<event>
 9    1  0.1445593E-005  0.1124079E+03  0.7546771E-02  0.1256299E+00
          1   -1    0    0  502    0 -0.00000000000E+00  0.00000000000E+00  0.39144006157E+03  0.39144006157E+03  0.00000000000E+00 0. -1.
         21   -1    0    0  501  502  0.00000000000E+00 -0.00000000000E+00 -0.45951250302E+02  0.45951250302E+02  0.00000000000E+00 0.  1.
         23    2    1    2    0    0  0.52580171547E+02  0.11916553264E+01  0.15942670768E+03  0.19114011383E+03  0.91386943880E+02 0.  0.
         23    2    1    2    0    0 -0.86064396346E+02  0.43935807526E+01  0.12917846551E+03  0.18000818744E+03  0.91046623899E+02 0.  0.
        -11    1    4    4    0    0 -0.77357790408E+02  0.37634534010E+02  0.11302202268E+03  0.14203719054E+03  0.00000000000E+00 0. -1.
         11    1    4    4    0    0 -0.87066059385E+01 -0.33240953258E+02  0.16156442835E+02  0.37970996899E+02  0.00000000000E+00 0.  1.
        -13    1    3    3    0    0  0.77091395900E+02 -0.47353088529E+01  0.98282793444E+02  0.12500005584E+03  0.00000000000E+00 0.  1.
         13    1    3    3    0    0 -0.24511224353E+02  0.59269641793E+01  0.61143914235E+02  0.66140057995E+02  0.00000000000E+00 0. -1.
          1    1    1    2  501    0  0.33484224799E+02 -0.55852360790E+01  0.56883638080E+02  0.66243010602E+02  0.00000000000E+00 0. -1.
<scales pt_clust_5="13000.00000" pt_clust_6="13000.00000" pt_clust_7="13000.00000" pt_clust_8="13000.00000" pt_clust_9="33.94686"></scales>
<clustering>
<clus scale="   33.947">  2  9  1 -1</clus>
<clus scale="   91.047">  5  6 -1 -1</clus>
<clus scale="   91.387">  7  8 -1 -1</clus>
<clus scale="  112.131">  2  5  1 -1</clus>
<clus scale="   33.947">  2  5  1 -1</clus>
</clustering>
</event>
<event>
 9    1  0.1445593E-005  0.1073146E+03  0.7546771E-02  0.1274852E+00
         21   -1    0    0  501  502  0.00000000000E+00  0.00000000000E+00  0.12599304196E+03  0.12599304196E+03  0.00000000000E+00 0.  1.
         -2   -1    0    0    0  501 -0.00000000000E+00 -0.00000000000E+00 -0.13048029390E+03  0.13048029390E+03  0.00000000000E+00 0.  1.
         23    2    1    2    0    0  0.32618862275E+02 -0.74483332326E+02 -0.32059475832E+02  0.12627387136E+03  0.91134645593E+02 0.  0.
         23    2    1    2    0    0 -0.12279223783E+02  0.33165116060E+02  0.33859216969E+01  0.78181457012E+02  0.69643172635E+02 0.  0.
        -11    1    3    3    0    0  0.56664665673E+02 -0.76148089287E+02 -0.13542941857E+02  0.95879231912E+02  0.00000000000E+00 0.  1.
         11    1    3    3    0    0 -0.24045803398E+02  0.16647569612E+01 -0.18516533974E+02  0.30394639449E+02  0.00000000000E+00 0. -1.
        -13    1    4    4    0    0  0.19608745267E+02 -0.41074928781E+01  0.18069154310E+02  0.26979042351E+02  0.00000000000E+00 0.  1.
         13    1    4    4    0    0 -0.31887969050E+02  0.37272608938E+02 -0.14683232613E+02  0.51202414661E+02  0.00000000000E+00 0. -1.
         -2    1    1    2    0  502 -0.20339638492E+02  0.41318216266E+02  0.24186302188E+02  0.52018007487E+02  0.00000000000E+00 0.  1.
<scales pt_clust_5="13000.00000" pt_clust_6="13000.00000" pt_clust_7="13000.00000" pt_clust_8="13000.00000" pt_clust_9="46.05319"></scales>
<clustering>
<clus scale="   46.053">  1  9  2 -1</clus>
<clus scale="   69.643">  7  8 -1 -1</clus>
<clus scale="   89.783">  1  7  2 -1</clus>
<clus scale="   91.135">  5  6 -1 -1</clus>
<clus scale="   46.053">  1  5  2 -1</clus>
</clustering>
</event>
<event>
 9    1  0.1445593E-005  0.1167279E+03  0.7546771E-02  0.1248626E+00
         -1   -1    0    0    0  501 -0.00000000000E+00  0.00000000000E+00  0.66965026781E+02  0.66965026781E+02  0.00000000000E+00 0.  1.
         21   -1    0    0  501  502  0.00000000000E+00 -0.00000000000E+00 -0.50371041097E+03  0.50371041097E+03  0.00000000000E+00 0.  1.
         23    2    1    2    0    0  0.62526911946E+01  0.65483639131E+02 -0.30838919788E+02  0.11644903451E+03  0.91006238925E+02 0.  0.
         23    2    1    2    0    0  0.79875741771E+01 -0.11066294190E+03 -0.36283055287E+03  0.39019915349E+03  0.91100390983E+02 0.  0.
        -11    1    4    4    0    0 -0.36306815684E+02 -0.73886244658E+02 -0.16876169445E+03  0.18777079519E+03  0.00000000000E+00 0. -1.
         11    1    4    4    0    0  0.44294389861E+02 -0.36776697241E+02 -0.19406885843E+03  0.20242835830E+03  0.00000000000E+00 0.  1.
        -13    1    3    3    0    0  0.35159621476E+02  0.67984921868E+02 -0.39552114258E+02  0.86154038362E+02  0.00000000000E+00 0.  1.
         13    1    3    3    0    0 -0.28906930282E+02 -0.25012827370E+01  0.87131944699E+01  0.30294996147E+02  0.00000000000E+00 0. -1.
         -1    1    1    2    0  502 -0.14240265372E+02  0.45179302768E+02 -0.43075911527E+02  0.64027249749E+02  0.00000000000E+00 0.  1.
<scales pt_clust_5="13000.00000" pt_clust_6="13000.00000" pt_clust_7="13000.00000" pt_clust_8="13000.00000" pt_clust_9="47.37042"></scales>
<clustering>
<clus scale="   47.370">  2  9  1 -1</clus>
<clus scale="   91.006">  7  8 -1 -1</clus>
<clus scale="   91.100">  5  6 -1 -1</clus>
<clus scale="  116.654">  1  7  2 -1</clus>
<clus scale="   47.370">  2  5  1 -1</clus>
</clustering>
</event>
<event>
 9    1  0.1445593E-005  0.9770977E+02  0.7546771E-02  0.1288751E+00
         21   -1    0    0  501  502  0.00000000000E+00  0.00000000000E+00  0.34945885005E+02  0.34945885005E+02  0.00000000000E+00 0. -1.
         -1   -1    0    0    0  501 -0.00000000000E+00 -0.00000000000E+00 -0.64970769213E+03  0.64970769213E+03  0.00000000000E+00 0.  1.
         23    2    1    2    0    0  0.49829393159E+02 -0.24386422624E+02 -0.35715649987E+03  0.37287086875E+03  0.91620157907E+02 0.  0.
         23    2    1    2    0    0  0.50027259807E+01 -0.31993491513E+02 -0.96472079427E+02  0.13248080343E+03  0.84827415397E+02 0.  0.
        -11    1    4    4    0    0 -0.28533982669E+02 -0.77348025677E+00 -0.78034062000E+02  0.83090921711E+02  0.00000000000E+00 0.  1.
         11    1    4    4    0    0  0.33536708650E+02 -0.31220011256E+02 -0.18438017428E+02  0.49389881722E+02  0.00000000000E+00 0. -1.
        -11    1    3    3    0    0 -0.23566426345E+02 -0.90569217479E+01 -0.42758914062E+02  0.49656107519E+02  0.00000000000E+00 0.  1.
         11    1    3    3    0    0  0.73395819504E+02 -0.15329500876E+02 -0.31439758581E+03  0.32321476123E+03  0.00000000000E+00 0. -1.
         -1    1    1    2    0  502 -0.54832119140E+02  0.56379914137E+02 -0.16113322783E+03  0.17930190495E+03  0.00000000000E+00 0.  1.
<scales pt_clust_5="13000.00000" pt_clust_6="13000.00000" pt_clust_7="13000.00000" pt_clust_8="13000.00000" pt_clust_9="78.64644"></scales>
<clustering>
<clus scale="   78.646">  1  9  2 -1</clus>
<clus scale="   84.827">  5  6 -1 -1</clus>
<clus scale="   91.371">  1  5  2 -1</clus>
<clus scale="   91.620">  7  8 -1 -1</clus>
<clus scale="   78.646">  1  5  2 -1</clus>
</clustering>
</event>
<event>
 9    1  0.1445593E-005  0.1084394E+03  0.7546771E-02  0.1263836E+00
          2   -1    0    0  502    0 -0.00000000000E+00  0.00000000000E+00  0.62115828487E+03  0.62115828487E+03  0.00000000000E+00 0. -1.
         21   -1    0    0  501  502  0.00000000000E+00 -0.00000000000E+00 -0.29044906073E+02  0.29044906073E+02  0.00000000000E+00 0.  1.
         23    2    1    2    0    0  0.33968982688E+02 -0.48422228532E+02  0.43630759880E+03  0.44980856668E+03  0.92004466671E+02 0.  0.
         23    2    1    2    0    0 -0.13207095686E+02  0.47732226350E+02  0.13083432975E+03  0.16791223854E+03  0.92866060546E+02 0.  0.
        -11    1    4    4    0    0 -0.12844742951E+02 -0.19182411613E+02  0.25522691087E+01  0.23226416305E+02  0.00000000000E+00 0.  1.
         11    1    4    4    0    0 -0.36235273527E+00  0.66914637963E+02  0.12828206064E+03  0.14468582223E+03  0.00000000000E+00 0. -1.
        -11    1    3    3    0    0  0.23832840308E+02 -0.74640857266E+02  0.36150244176E+03  0.36989630607E+03  0.00000000000E+00 0.  1.
         11    1    3    3    0    0  0.10136142380E+02  0.26218628734E+02  0.74805157041E+02  0.79912260605E+02  0.00000000000E+00 0. -1.
          2    1    1    2  501    0 -0.20761887002E+02  0.69000218243E+00  0.24971450248E+02  0.32482385725E+02  0.00000000000E+00 0. -1.
<scales pt_clust_5="13000.00000" pt_clust_6="13000.00000" pt_clust_7="13000.00000" pt_clust_8="13000.00000" pt_clust_9="20.77335"></scales>
<clustering>
<clus scale="   20.773">  2  9  1 -1</clus>
<clus scale="   92.004">  7  8 -1 -1</clus>
<clus scale="   92.866">  5  6 -1 -1</clus>
<clus scale="  107.702">  1  7  2 -1</clus>
<clus scale="   20.773">  2  5  1 -1</clus>
</clustering>
</event>
<event>
 9    1  0.1445593E-005  0.9810632E+02  0.7546771E-02  0.1285132E+00
         -2   -1    0    0    0  501 -0.00000000000E+00  0.00000000000E+00  0.75334240955E+02  0.75334240955E+02  0.00000000000E+00 0.  1.
         21   -1    0    0  501  502  0.00000000000E+00 -0.00000000000E+00 -0.22153646368E+03  0.22153646368E+03  0.00000000000E+00 0.  1.
         23    2    1    2    0    0  0.12796315198E+02 -0.18344256164E+02 -0.20287082805E+02  0.95558796786E+02  0.90662343327E+02 0.  0.
         23    2    1    2    0    0 -0.48738720308E+02  0.20042986419E+02 -0.50222952903E+02  0.11750230610E+03  0.92234824113E+02 0.  0.
        -11    1    4    4    0    0 -0.20491623762E+02  0.56501157028E+02 -0.27823231980E+02  0.66230050790E+02  0.00000000000E+00 0.  1.
         11    1    4    4    0    0 -0.28247096546E+02 -0.36458170608E+02 -0.22399720924E+02  0.51272255312E+02  0.00000000000E+00 0. -1.
        -13    1    3    3    0    0 -0.29681093807E+02  0.57016611686E+01 -0.33372073114E+02  0.45024121686E+02  0.00000000000E+00 0. -1.
         13    1    3    3    0    0  0.42477409005E+02 -0.24045917332E+02  0.13084990309E+02  0.50534675100E+02  0.00000000000E+00 0.  1.
         -2    1    1    2    0  502  0.35942405110E+02 -0.16987302555E+01 -0.75692187015E+02  0.83809601745E+02  0.00000000000E+00 0.  1.
<scales pt_clust_5="13000.00000" pt_clust_6="13000.00000" pt_clust_7="13000.00000" pt_clust_8="13000.00000" pt_clust_9="35.98253"></scales>
<clustering>
<clus scale="   35.983">  2  9  1 -1</clus>
<clus scale="   90.662">  7  8 -1 -1</clus>
<clus scale="   92.235">  5  6 -1 -1</clus>
<clus scale="   96.629">  1  7  2 -1</clus>
<clus scale="   35.983">  2  5  1 -1</clus>
</clustering>
</event>
<event>
 9    1  0.1445593E-005  0.9855519E+02  0.7546771E-02  0.1284998E+00
          1   -1    0    0  502    0 -0.00000000000E+00  0.00000000000E+00  0.13207592535E+03  0.13207592535E+03  0.00000000000E+00 0. -1.
         21   -1    0    0  501  502  0.00000000000E+00 -0.00000000000E+00 -0.12736443814E+03  0.12736443814E+03  0.00000000000E+00 0. -1.
         23    2    1    2    0    0 -0.21228102838E+02  0.14242770170E+02  0.48117527065E+02  0.10847421987E+03  0.93796967508E+02 0.  0.
         23    2    1    2    0    0  0.40565167110E+02 -0.19590242655E+02 -0.65934441740E+02  0.12079916817E+03  0.90640929122E+02 0.  0.
        -11    1    4    4    0    0  0.20101820796E+02 -0.55784523692E+02 -0.43614382351E+02  0.73608495642E+02  0.00000000000E+00 0. -1.
         11    1    4    4    0    0  0.20463346314E+02  0.36194281037E+02 -0.22320059389E+02  0.47190672524E+02  0.00000000000E+00 0.  1.
        -13    1    3    3    0    0  0.29531548874E+01 -0.37962270310E+02  0.28947505602E+02  0.47831090009E+02  0.00000000000E+00 0.  1.
         13    1    3    3    0    0 -0.24181257725E+02  0.52205040479E+02  0.19170021462E+02  0.60643129862E+02  0.00000000000E+00 0. -1.
          1    1    1    2  501    0 -0.19337064272E+02  0.53474724854E+01  0.22528401885E+02  0.30166975456E+02  0.00000000000E+00 0. -1.
<scales pt_clust_5="13000.00000" pt_clust_6="13000.00000" pt_clust_7="13000.00000" pt_clust_8="13000.00000" pt_clust_9="20.06285"></scales>
<clustering>
<clus scale="   20.063">  2  9  1 -1</clus>
<clus scale="   90.641">  5  6 -1 -1</clus>
<clus scale="   93.797">  7  8 -1 -1</clus>
<clus scale="   95.556">  2  5  1 -1</clus>
<clus scale="   20.063">  2  5  1 -1</clus>
</clustering>
</event>
<event>
 9    1  0.1445593E-005  0.1788992E+03  0.7546771E-02  0.1168888E+00
         21   -1    0    0  501  502  0.00000000000E+00  0.00000000000E+00  0.16681344783E+03  0.16681344783E+03  0.00000000000E+00 0. -1.
          2   -1    0    0  502    0 -0.00000000000E+00 -0.00000000000E+00 -0.34044948140E+03  0.34044948140E+03  0.00000000000E+00 0. -1.
         23    2    1    2    0    0  0.14934343459E+03 -0.10137434321E+03 -0.18279273240E+03  0.27248369079E+03  0.90851306069E+02 0.  0.
         23    2    1    2    0    0 -0.62661626654E+02  0.98426070704E+02  0.30684188101E+01  0.14783388036E+03  0.90726347543E+02 0.  0.
        -11    1    4    4    0    0 -0.12759293322E+02  0.45580051739E+02  0.43822741854E+02  0.64504057130E+02  0.00000000000E+00 0. -1.
         11    1    4    4    0    0 -0.49902333332E+02  0.52846018965E+02 -0.40754323044E+02  0.83329823228E+02  0.00000000000E+00 0.  1.
        -11    1    3    3    0    0  0.80928341204E+01 -0.51483880625E+02 -0.42560674842E+02  0.67286662655E+02  0.00000000000E+00 0.  1.
         11    1    3    3    0    0  0.14125060047E+03 -0.49890462580E+02 -0.14023205756E+03  0.20519702814E+03  0.00000000000E+00 0. -1.
          2    1    1    2  501    0 -0.86681807934E+02  0.29482725010E+01  0.60882800231E+01  0.86945358076E+02  0.00000000000E+00 0. -1.
<scales pt_clust_5="13000.00000" pt_clust_6="13000.00000" pt_clust_7="13000.00000" pt_clust_8="13000.00000" pt_clust_9="86.73193"></scales>
<clustering>
<clus scale="   86.732">  1  9  2 -1</clus>
<clus scale="   90.726">  5  6 -1 -1</clus>
<clus scale="   90.851">  7  8 -1 -1</clus>
<clus scale="  178.836">  1  5  2 -1</clus>
<clus scale="   86.732">  1  5  2 -1</clus>
</clustering>
</event>
<event>
 9    1  0.1445593E-005  0.1207832E+03  0.7546771E-02  0.1246875E+00
         -1   -1    0    0    0  501 -0.00000000000E+00  0.00000000000E+00  0.49437804672E+03  0.49437804672E+03  0.00000000000E+00 0.  1.
         21   -1    0    0  501  502  0.00000000000E+00 -0.00000000000E+00 -0.46470507980E+02  0.46470507980E+02  0.00000000000E+00 0. -1.
         23    2    1    2    0    0  0.40215549661E+02  0.39445459893E+02  0.28741879816E+03  0.30598498332E+03  0.88566414279E+02 0.  0.
         23    2    1    2    0    0 -0.67098993352E+02 -0.48836189862E+02  0.15856374585E+03  0.20632218111E+03  0.10266027746E+03 0.  0.
        -11    1    3    3    0    0  0.62268536253E+02  0.45545892816E+02  0.25419500299E+03  0.26564430824E+03  0.00000000000E+00 0.  1.
         11    1    3    3    0    0 -0.22052986592E+02 -0.61004329233E+01  0.33223795176E+02  0.40340675074E+02  0.00000000000E+00 0. -1.
        -13    1    4    4    0    0 -0.30526260916E+02  0.13799409922E+02  0.17491525063E+01  0.33546025907E+02  0.00000000000E+00 0.  1.
         13    1    4    4    0    0 -0.36572732436E+02 -0.62635599784E+02  0.15681459335E+03  0.17277615520E+03  0.00000000000E+00 0. -1.
         -1    1    1    2    0  502  0.26883443692E+02  0.93907299692E+01  0.19249947213E+01  0.28541390274E+02  0.00000000000E+00 0.  1.
<scales pt_clust_5="13000.00000" pt_clust_6="13000.00000" pt_clust_7="13000.00000" pt_clust_8="13000.00000" pt_clust_9="28.47640"></scales>
<clustering>
<clus scale="   28.476">  2  9  1 -1</clus>
<clus scale="   88.566">  5  6 -1 -1</clus>
<clus scale="  102.660">  7  8 -1 -1</clus>
<clus scale="  109.057">  1  5  2 -1</clus>
<clus scale="   28.476">  2  5  1 -1</clus>
</clustering>
</event>
<event>
 9    1  0.1445593E-005  0.3465881E+03  0.7546771E-02  0.1093811E+00
         21   -1    0    0  501  502  0.00000000000E+00  0.00000000000E+00  0.86634765709E+02  0.86634765709E+02  0.00000000000E+00 0. -1.
          1   -1    0    0  502    0 -0.00000000000E+00 -0.00000000000E+00 -0.21957541210E+04  0.21957541210E+04  0.00000000000E+00 0. -1.
         23    2    1    2    0    0  0.11730226421E+03 -0.34508711728E+02 -0.22780994667E+03  0.27558656935E+03  0.95393464300E+02 0.  0.
         23    2    1    2    0    0  0.21467666730E+03 -0.15827564297E+03 -0.11094234122E+04  0.11447212249E+04  0.91810264836E+02 0.  0.
        -11    1    4    4    0    0  0.12534781718E+03 -0.87535312979E+02 -0.81096975230E+03  0.82525538195E+03  0.00000000000E+00 0. -1.
         11    1    4    4    0    0  0.89328850126E+02 -0.70740329994E+02 -0.29845365986E+03  0.31946584299E+03  0.00000000000E+00 0.  1.
        -13    1    3    3    0    0  0.22387334939E+02  0.31978070150E+02 -0.62984534507E+02  0.74100211357E+02  0.00000000000E+00 0.  1.
         13    1    3    3    0    0  0.94914929268E+02 -0.66486781877E+02 -0.16482541216E+03  0.20148635799E+03  0.00000000000E+00 0. -1.
          1    1    1    2  501    0 -0.33197893151E+03  0.19278435470E+03 -0.77188599649E+03  0.86208109245E+03  0.00000000000E+00 0. -1.
<scales pt_clust_5="13000.00000" pt_clust_6="13000.00000" pt_clust_7="13000.00000" pt_clust_8="13000.00000" pt_clust_9="334.20685"></scales>
<clustering>
<clus scale="   91.810">  5  6 -1 -1</clus>
<clus scale="   95.393">  7  8 -1 -1</clus>
<clus scale="  155.083">  2  7  1 -1</clus>
<clus scale="  334.207">  1  9  2 -1</clus>
<clus scale="  334.207">  1  5  2 -1</clus>
</clustering>
</event>
<event>
 9    1  0.1445593E-005  0.1440317E+03  0.7546771E-02  0.1208474E+00
         -4   -1    0    0    0  501 -0.00000000000E+00  0.00000000000E+00  0.14721899632E+03  0.14721899632E+03  0.00000000000E+00 0.  1.
         21   -1    0    0  501  502  0.00000000000E+00 -0.00000000000E+00 -0.23609738248E+03  0.23609738248E+03  0.00000000000E+00 0.  1.
         23    2    1    2    0    0  0.72268615159E+02  0.58897848223E+02  0.45498781452E+01  0.13035966631E+03  0.91001274428E+02 0.  0.
         23    2    1    2    0    0 -0.97583308043E+02 -0.90495570508E+02 -0.13128873547E+02  0.16302761883E+03  0.93239942574E+02 0.  0.
        -11    1    4    4    0    0 -0.37630017195E+02 -0.90832916783E+02  0.98704933981E+01  0.98813276462E+02  0.00000000000E+00 0.  1.
         11    1    4    4    0    0 -0.59953290849E+02  0.33734627464E+00 -0.22999366945E+02  0.64214342369E+02  0.00000000000E+00 0. -1.
        -11    1    3    3    0    0  0.71605292841E+02  0.80972029085E+02  0.18148433743E+01  0.10810680420E+03  0.00000000000E+00 0. -1.
         11    1    3    3    0    0  0.66332231809E+00 -0.22074180861E+02  0.27350347709E+01  0.22252862117E+02  0.00000000000E+00 0.  1.
         -4    1    1    2    0  502  0.25314692885E+02  0.31597722285E+02 -0.80299390763E+02  0.89929093659E+02  0.00000000000E+00 0.  1.
<scales pt_clust_5="13000.00000" pt_clust_6="13000.00000" pt_clust_7="13000.00000" pt_clust_8="13000.00000" pt_clust_9="40.48765"></scales>
<clustering>
<clus scale="   40.488">  2  9  1 -1</clus>
<clus scale="   91.001">  7  8 -1 -1</clus>
<clus scale="   93.240">  5  6 -1 -1</clus>
<clus scale="  142.593">  1  7  2 -1</clus>
<clus scale="   40.488">  2  5  1 -1</clus>
</clustering>
</event>
<event>
 9    1  0.1445593E-005  0.9126074E+02  0.7546771E-02  0.1300408E+00
         21   -1    0    0  501  502  0.00000000000E+00  0.00000000000E+00  0.14371511240E+03  0.14371511240E+03  0.00000000000E+00 0.  1.
         -1   -1    0    0    0  501 -0.00000000000E+00 -0.00000000000E+00 -0.11924823151E+03  0.11924823151E+03  0.00000000000E+00 0.  1.
         23    2    1    2    0    0 -0.19989952761E+02  0.15275646212E+02 -0.15383751642E+02  0.94964961516E+02  0.90270374556E+02 0.  0.
         23    2    1    2    0    0 -0.25066573869E+02  0.22966175156E+02  0.11886973534E+01  0.97377757046E+02  0.91242732527E+02 0.  0.
        -11    1    4    4    0    0 -0.55372420193E+02  0.27139431683E+02 -0.13981903737E+02  0.63230904645E+02  0.00000000000E+00 0.  1.
         11    1    4    4    0    0  0.30305846324E+02 -0.41732565275E+01  0.15170601090E+02  0.34146852401E+02  0.00000000000E+00 0. -1.
        -13    1    3    3    0    0  0.12012039525E+02  0.33614130115E+02 -0.37649489552E+02  0.51881431173E+02  0.00000000000E+00 0.  1.
         13    1    3    3    0    0 -0.32001992286E+02 -0.18338483903E+02  0.22265737910E+02  0.43083530343E+02  0.00000000000E+00 0. -1.
         -1    1    1    2    0  502  0.45056526631E+02 -0.38241821368E+02  0.38661935177E+02  0.70620625353E+02  0.00000000000E+00 0.  1.
<scales pt_clust_5="13000.00000" pt_clust_6="13000.00000" pt_clust_7="13000.00000" pt_clust_8="13000.00000" pt_clust_9="59.09761"></scales>
<clustering>
<clus scale="   59.098">  1  9  2 -1</clus>
<clus scale="   90.270">  7  8 -1 -1</clus>
<clus scale="   90.289">  2  7  1 -1</clus>
<clus scale="   91.243">  5  6 -1 -1</clus>
<clus scale="   59.098">  1  5  2 -1</clus>
</clustering>
</event>
<event>
 9    1  0.1445593E-005  0.2016529E+03  0.7546771E-02  0.1167990E+00
          1   -1    0    0  502    0 -0.00000000000E+00  0.00000000000E+00  0.29467631175E+03  0.29467631175E+03  0.00000000000E+00 0. -1.
         21   -1    0    0  501  502  0.00000000000E+00 -0.00000000000E+00 -0.42187895669E+03  0.42187895669E+03  0.00000000000E+00 0. -1.
         23    2    1    2    0    0 -0.43290238597E+02  0.75074373269E+01  0.17143977972E+03  0.21363724489E+03  0.11966147234E+03 0.  0.
         23    2    1    2    0    0 -0.55859629437E+02  0.16297334494E+03 -0.21204211699E+03  0.28752534322E+03  0.89601084000E+02 0.  0.
        -11    1    4    4    0    0  0.21956304094E+02  0.47807292848E+02 -0.80440531641E+02  0.96116053131E+02  0.00000000000E+00 0.  1.
         11    1    4    4    0    0 -0.77815933530E+02  0.11516605209E+03 -0.13160158535E+03  0.19140929009E+03  0.00000000000E+00 0. -1.
        -13    1    3    3    0    0  0.12764750502E+01  0.46539459175E+02  0.19352598233E+02  0.50418981616E+02  0.00000000000E+00 0. -1.
         13    1    3    3    0    0 -0.44566713647E+02 -0.39032021848E+02  0.15208718148E+03  0.16321826327E+03  0.00000000000E+00 0.  1.
          1    1    1    2  501    0  0.99149868034E+02 -0.17048078226E+03 -0.86600307664E+02  0.21539268033E+03  0.00000000000E+00 0. -1.
<scales pt_clust_5="13000.00000" pt_clust_6="13000.00000" pt_clust_7="13000.00000" pt_clust_8="13000.00000" pt_clust_9="180.65313"></scales>
<clustering>
<clus scale="   89.601">  5  6 -1 -1</clus>
<clus scale="  119.661">  7  8 -1 -1</clus>
<clus scale="  127.473">  1  7  2 -1</clus>
<clus scale="  180.653">  2  9  1 -1</clus>
<clus scale="  180.653">  2  5  1 -1</clus>
</clustering>
</event>
<event>
 9    1  0.1445593E-005  0.1617625E+03  0.7546771E-02  0.1187570E+00
          1   -1    0    0  502    0 -0.00000000000E+00  0.00000000000E+00  0.94345936984E+02  0.94345936984E+02  0.00000000000E+00 0. -1.
         21   -1    0    0  501  502  0.00000000000E+00 -0.00000000000E+00 -0.36993122674E+03  0.36993122674E+03  0.00000000000E+00 0. -1.
         23    2    1    2    0    0  0.14712111890E+03  0.33235320427E+02 -0.11577100819E+03  0.21220161125E+03  0.94219888187E+02 0.  0.
         23    2    1    2    0    0 -0.99350198381E+02 -0.31315732893E+02 -0.13861823239E+03  0.19977815135E+03  0.99222771380E+02 0.  0.
        -11    1    4    4    0    0 -0.35960228823E+02  0.28090121000E+02 -0.13742496558E+02  0.47655526085E+02  0.00000000000E+00 0.  1.
         11    1    4    4    0    0 -0.63389969559E+02 -0.59405853893E+02 -0.12487573583E+03  0.15212262527E+03  0.00000000000E+00 0. -1.
        -13    1    3    3    0    0  0.81387508168E+02  0.27147159559E+02 -0.11830242254E+03  0.14613814676E+03  0.00000000000E+00 0.  1.
         13    1    3    3    0    0  0.65733610733E+02  0.60881608679E+01  0.25314143499E+01  0.66063464497E+02  0.00000000000E+00 0. -1.
          1    1    1    2  501    0 -0.47770920519E+02 -0.19195875343E+01 -0.21196049173E+02  0.52297401122E+02  0.00000000000E+00 0. -1.
<scales pt_clust_5="13000.00000" pt_clust_6="13000.00000" pt_clust_7="13000.00000" pt_clust_8="13000.00000" pt_clust_9="47.80950"></scales>
<clustering>
<clus scale="   47.809">  2  9  1 -1</clus>
<clus scale="   94.220">  7  8 -1 -1</clus>
<clus scale="   99.223">  5  6 -1 -1</clus>
<clus scale="  158.743">  1  7  2 -1</clus>
<clus scale="   47.809">  2  5  1 -1</clus>
</clustering>
</event>
<event>
 9    1  0.1445593E-005  0.9532539E+02  0.7546771E-02  0.1303135E+00
         21   -1    0    0  501  502  0.00000000000E+00  0.00000000000E+00  0.42942429652E+02  0.42942429652E+02  0.00000000000E+00 0. -1.
          2   -1    0    0  502    0 -0.00000000000E+00 -0.00000000000E+00 -0.55166400832E+03  0.55166400832E+03  0.00000000000E+00 0. -1.
         23    2    1    2    0    0  0.19211812494E+02  0.67867025000E+01 -0.39694039571E+03  0.40779793513E+03  0.91226778321E+02 0.  0.
         23    2    1    2    0    0 -0.39971313744E+02 -0.17272170816E+02 -0.13221332427E+03  0.15585088122E+03  0.70093510781E+02 0.  0.
        -11    1    3    3    0    0  0.17320146654E+02 -0.41393549993E+02 -0.17289473559E+03  0.17862251554E+03  0.00000000000E+00 0.  1.
         11    1    3    3    0    0  0.18916658406E+01  0.48180252493E+02 -0.22404566012E+03  0.22917541960E+03  0.00000000000E+00 0. -1.
        -11    1    4    4    0    0 -0.13982436187E+02  0.26220895475E+02 -0.32722275375E+02  0.44201710227E+02  0.00000000000E+00 0. -1.
         11    1    4    4    0    0 -0.25988877557E+02 -0.43493066291E+02 -0.99491048898E+02  0.11164917099E+03  0.00000000000E+00 0.  1.
          2    1    1    2  501    0  0.20759501249E+02  0.10485468316E+02  0.20432141313E+02  0.30957621623E+02  0.00000000000E+00 0. -1.
<scales pt_clust_5="13000.00000" pt_clust_6="13000.00000" pt_clust_7="13000.00000" pt_clust_8="13000.00000" pt_clust_9="23.25730"></scales>
<clustering>
<clus scale="   23.257">  1  9  2 -1</clus>
<clus scale="   70.094">  7  8 -1 -1</clus>
<clus scale="   75.351">  1  7  2 -1</clus>
<clus scale="   91.227">  5  6 -1 -1</clus>
<clus scale="   23.257">  1  5  2 -1</clus>
</clustering>
</event>
<event>
 9    1  0.1445593E-005  0.1589190E+03  0.7546771E-02  0.1191342E+00
         -2   -1    0    0    0  501 -0.00000000000E+00  0.00000000000E+00  0.10938047735E+03  0.10938047735E+03  0.00000000000E+00 0.  1.
         21   -1    0    0  501  502  0.00000000000E+00 -0.00000000000E+00 -0.53507664506E+03  0.53507664506E+03  0.00000000000E+00 0.  1.
         23    2    1    2    0    0 -0.13399353224E+03  0.11530369732E+02 -0.62752771435E+02  0.17122869663E+03  0.85405738210E+02 0.  0.
         23    2    1    2    0    0  0.10690294432E+03  0.10841854269E+03 -0.18951858084E+03  0.26063066438E+03  0.93958665502E+02 0.  0.
        -11    1    3    3    0    0 -0.98196007865E+02  0.46465091830E+02 -0.35623925854E+02  0.11432639596E+03  0.00000000000E+00 0.  1.
         11    1    3    3    0    0 -0.35797524372E+02 -0.34934722098E+02 -0.27128845582E+02  0.56902300673E+02  0.00000000000E+00 0. -1.
        -13    1    4    4    0    0  0.25204857809E+02 -0.11268267199E+02 -0.87798656345E+01  0.28971447037E+02  0.00000000000E+00 0. -1.
         13    1    4    4    0    0  0.81698086512E+02  0.11968680989E+03 -0.18073871521E+03  0.23165921734E+03  0.00000000000E+00 0.  1.
         -2    1    1    2    0  502  0.27090587917E+02 -0.11994891243E+03 -0.17342481543E+03  0.21259776140E+03  0.00000000000E+00 0.  1.
<scales pt_clust_5="13000.00000" pt_clust_6="13000.00000" pt_clust_7="13000.00000" pt_clust_8="13000.00000" pt_clust_9="122.97008"></scales>
<clustering>
<clus scale="   85.406">  5  6 -1 -1</clus>
<clus scale="   93.959">  7  8 -1 -1</clus>
<clus scale="  122.970">  2  9  1 -1</clus>
<clus scale="  154.017">  1  5  2 -1</clus>
<clus scale="  122.970">  2  5  1 -1</clus>
</clustering>
</event>
<event>
 9    1  0.1445593E-005  0.1049939E+03  0.7546771E-02  0.1270484E+00
         21   -1    0    0  501  502  0.00000000000E+00  0.00000000000E+00  0.11098307074E+03  0.11098307074E+03  0.00000000000E+00 0. -1.
          2   -1    0    0  502    0 -0.00000000000E+00 -0.00000000000E+00 -0.24531714489E+03  0.24531714489E+03  0.00000000000E+00 0. -1.
         23    2    1    2    0    0  0.15026948245E+02  0.35865618021E+02 -0.74480038468E+02  0.12359204951E+03  0.90639764128E+02 0.  0.
         23    2    1    2    0    0  0.43608084697E+02 -0.92205214272E+02 -0.10076125267E+02  0.13736637278E+03  0.91457779771E+02 0.  0.
        -13    1    4    4    0    0  0.33581319317E+01 -0.86100695026E+02  0.17853674537E+02  0.87996365996E+02  0.00000000000E+00 0. -1.
         13    1    4    4    0    0  0.40249952766E+02 -0.61045192464E+01 -0.27929799804E+02  0.49370006785E+02  0.00000000000E+00 0.  1.
        -13    1    3    3    0    0  0.10413863204E+02 -0.26293279031E+02 -0.25224146302E+01  0.28392739294E+02  0.00000000000E+00 0. -1.
         13    1    3    3    0    0  0.46130850411E+01  0.62158897052E+02 -0.71957623838E+02  0.95199310212E+02  0.00000000000E+00 0.  1.
          2    1    1    2  501    0 -0.58635032943E+02  0.56339596251E+02 -0.49777910410E+02  0.95341793347E+02  0.00000000000E+00 0. -1.
<scales pt_clust_5="13000.00000" pt_clust_6="13000.00000" pt_clust_7="13000.00000" pt_clust_8="13000.00000" pt_clust_9="81.31558"></scales>
<clustering>
<clus scale="   81.316">  1  9  2 -1</clus>
<clus scale="   90.640">  7  8 -1 -1</clus>
<clus scale="   91.458">  5  6 -1 -1</clus>
<clus scale="  104.282">  2  7  1 -1</clus>
<clus scale="   81.316">  1  5  2 -1</clus>
</clustering>
</event>
<event>
 9    1  0.1445593E-005  0.9995214E+02  0.7546771E-02  0.1281172E+00
          2   -1    0    0  502    0 -0.00000000000E+00  0.00000000000E+00  0.91345414910E+02  0.91345414910E+02  0.00000000000E+00 0. -1.
         21   -1    0    0  501  502  0.00000000000E+00 -0.00000000000E+00 -0.24901517669E+03  0.24901517669E+03  0.00000000000E+00 0. -1.
         23    2    1    2    0    0 -0.13394420863E+02 -0.36031146185E+02  0.49448476774E+00  0.99224017199E+02  0.91474078669E+02 0.  0.
         23    2    1    2    0    0 -0.48826169691E+02  0.47125950006E+02 -0.69788154745E+02  0.13248653914E+03  0.89874615432E+02 0.  0.
        -13    1    3    3    0    0 -0.14596334132E+02  0.29384501823E+02 -0.64222778694E+01  0.33432732022E+02  0.00000000000E+00 0.  1.
         13    1    3    3    0    0  0.12019132684E+01 -0.65415648008E+02  0.69167626371E+01  0.65791285177E+02  0.00000000000E+00 0. -1.
        -13    1    4    4    0    0  0.25159899017E+02  0.52188984856E+00 -0.16323568095E+02  0.29995862430E+02  0.00000000000E+00 0.  1.
         13    1    4    4    0    0 -0.73986068708E+02  0.46604060157E+02 -0.53464586649E+02  0.10249067671E+03  0.00000000000E+00 0. -1.
          2    1    1    2  501    0  0.62220590554E+02 -0.11094803820E+02 -0.88376091808E+02  0.10865003527E+03  0.00000000000E+00 0. -1.
<scales pt_clust_5="13000.00000" pt_clust_6="13000.00000" pt_clust_7="13000.00000" pt_clust_8="13000.00000" pt_clust_9="63.20203"></scales>
<clustering>
<clus scale="   63.202">  2  9  1 -1</clus>
<clus scale="   89.875">  7  8 -1 -1</clus>
<clus scale="   91.474">  5  6 -1 -1</clus>
<clus scale="   98.490">  2  7  1 -1</clus>
<clus scale="   63.202">  2  5  1 -1</clus>
</clustering>
</event>
<event>
 9    1  0.1445593E-005  0.1073942E+03  0.7546771E-02  0.1267768E+00
         21   -1    0    0  501  502  0.00000000000E+00  0.00000000000E+00  0.83796576509E+02  0.83796576509E+02  0.00000000000E+00 0.  1.
         -1   -1    0    0    0  501 -0.00000000000E+00 -0.00000000000E+00 -0.26348631600E+03  0.26348631600E+03  0.00000000000E+00 0.  1.
         23    2    1    2    0    0  0.30372131130E+02 -0.14120181814E+02 -0.93259133176E+02  0.13607202298E+03  0.93254938918E+02 0.  0.
         23    2    1    2    0    0 -0.84356888510E+02 -0.40821212393E+01 -0.93804879271E+02  0.15376474026E+03  0.87815099042E+02 0.  0.
        -13    1    4    4    0    0 -0.36269247351E+02  0.11665843243E+02 -0.95827732097E+02  0.10312373364E+03  0.00000000000E+00 0. -1.
         13    1    4    4    0    0 -0.48087641160E+02 -0.15747964482E+02  0.20228528262E+01  0.50641006617E+02  0.00000000000E+00 0.  1.
        -13    1    3    3    0    0  0.34750333825E+02 -0.51127001158E+02 -0.58764339817E+02  0.85292459118E+02  0.00000000000E+00 0.  1.
         13    1    3    3    0    0 -0.43782026946E+01  0.37006819344E+02 -0.34494793359E+02  0.50779563859E+02  0.00000000000E+00 0. -1.
         -1    1    1    2    0  502  0.53984757380E+02  0.18202303053E+02  0.73742729602E+01  0.57446129265E+02  0.00000000000E+00 0.  1.
<scales pt_clust_5="13000.00000" pt_clust_6="13000.00000" pt_clust_7="13000.00000" pt_clust_8="13000.00000" pt_clust_9="56.97085"></scales>
<clustering>
<clus scale="   56.971">  1  9  2 -1</clus>
<clus scale="   87.815">  5  6 -1 -1</clus>
<clus scale="   93.255">  7  8 -1 -1</clus>
<clus scale="  102.706">  1  5  2 -1</clus>
<clus scale="   56.971">  1  5  2 -1</clus>
</clustering>
</event>
<event>
 9    1  0.1445593E-005  0.1158790E+03  0.7546771E-02  0.1251185E+00
         21   -1    0    0  501  502  0.00000000000E+00  0.00000000000E+00  0.64630710201E+03  0.64630710201E+03  0.00000000000E+00 0.  1.
          2   -1    0    0  502    0 -0.00000000000E+00 -0.00000000000E+00 -0.56509219315E+02  0.56509219315E+02  0.00000000000E+00 0. -1.
         23    2    1    2    0    0 -0.14058243755E+02 -0.68671570760E+02  0.33839440192E+02  0.11998354186E+03  0.91310041926E+02 0.  0.
         23    2    1    2    0    0  0.62723185210E+02  0.63596816075E+02  0.37703925707E+03  0.39734395344E+03  0.88004903217E+02 0.  0.
        -11    1    4    4    0    0  0.40772674637E+02  0.61065841943E+02  0.36473627127E+03  0.37205375368E+03  0.00000000000E+00 0.  1.
         11    1    4    4    0    0  0.21950510573E+02  0.25309741312E+01  0.12302985799E+02  0.25290199763E+02  0.00000000000E+00 0. -1.
        -13    1    3    3    0    0  0.33448370760E+02 -0.41804647543E+02  0.37371133297E+02  0.65291834609E+02  0.00000000000E+00 0.  1.
         13    1    3    3    0    0 -0.47506614515E+02 -0.26866923217E+02 -0.35316931053E+01  0.54691707251E+02  0.00000000000E+00 0. -1.
          2    1    1    2  501    0 -0.48664941455E+02  0.50747546855E+01  0.17891918544E+03  0.18548882603E+03  0.00000000000E+00 0. -1.
<scales pt_clust_5="13000.00000" pt_clust_6="13000.00000" pt_clust_7="13000.00000" pt_clust_8="13000.00000" pt_clust_9="48.92882"></scales>
<clustering>
<clus scale="   48.929">  1  9  2 -1</clus>
<clus scale="   88.005">  5  6 -1 -1</clus>
<clus scale="   91.310">  7  8 -1 -1</clus>
<clus scale="  113.293">  1  5  2 -1</clus>
<clus scale="   48.929">  1  5  2 -1</clus>
</clustering>
</event>
<event>
 9    1  0.1445593E-005  0.9560525E+02  0.7546771E-02  0.1290567E+00
          2   -1    0    0  502    0 -0.00000000000E+00  0.00000000000E+00  0.16190717247E+03  0.16190717247E+03  0.00000000000E+00 0. -1.
         21   -1    0    0  501  502  0.00000000000E+00 -0.00000000000E+00 -0.94181856220E+02  0.94181856220E+02  0.00000000000E+00 0. -1.
         23    2    1    2    0    0  0.30763755242E+02 -0.29148500142E+02  0.52167618192E+02  0.11368594427E+03  0.91689638668E+02 0.  0.
         23    2    1    2    0    0  0.15776013645E+02  0.19452984980E+02  0.14692123501E+02  0.94856240974E+02  0.90302528910E+02 0.  0.
        -11    1    3    3    0    0  0.71778980465E+01  0.31895523521E+02  0.51303109356E+01  0.33093303421E+02  0.00000000000E+00 0.  1.
         11    1    3    3    0    0  0.23585857196E+02 -0.61044023663E+02  0.47037307256E+02  0.80592640846E+02  0.00000000000E+00 0. -1.
        -13    1    4    4    0    0 -0.20704271945E+02  0.43673224599E+02  0.16387460201E+02  0.51034951508E+02  0.00000000000E+00 0.  1.
         13    1    4    4    0    0  0.36480285590E+02 -0.24220239618E+02 -0.16953367006E+01  0.43821289465E+02  0.00000000000E+00 0. -1.
          2    1    1    2  501    0 -0.46539768887E+02  0.96955151623E+01  0.86557455426E+00  0.47546843446E+02  0.00000000000E+00 0. -1.
<scales pt_clust_5="13000.00000" pt_clust_6="13000.00000" pt_clust_7="13000.00000" pt_clust_8="13000.00000" pt_clust_9="47.53896"></scales>
<clustering>
<clus scale="   47.539">  2  9  1 -1</clus>
<clus scale="   90.303">  7  8 -1 -1</clus>
<clus scale="   91.690">  5  6 -1 -1</clus>
<clus scale="   94.276">  2  7  1 -1</clus>
<clus scale="   47.539">  2  5  1 -1</clus>
</clustering>
</event>
<event>
 9    1  0.1445593E-005  0.9635662E+02  0.7546771E-02  0.1288263E+00
         21   -1    0    0  501  502  0.00000000000E+00  0.00000000000E+00  0.58502148164E+02  0.58502148164E+02  0.00000000000E+00 0. -1.
         -1   -1    0    0    0  501 -0.00000000000E+00 -0.00000000000E+00 -0.32237531532E+03  0.32237531532E+03  0.00000000000E+00 0.  1.
         23    2    1    2    0    0 -0.16821120693E+02  0.20029833253E+02 -0.13761789268E+03  0.16765022891E+03  0.92107385952E+02 0.  0.
         23    2    1    2    0    0  0.38751621105E+02  0.74993162075E+01 -0.14279756466E+03  0.17433702651E+03  0.91893016372E+02 0.  0.
        -11    1    4    4    0    0  0.36736319922E+01 -0.28132246932E+02 -0.64283973437E+01  0.29090259227E+02  0.00000000000E+00 0. -1.
         11    1    4    4    0    0  0.35077989113E+02  0.35631563139E+02 -0.13636916732E+03  0.14524676729E+03  0.00000000000E+00 0.  1.
        -11    1    3    3    0    0 -0.16403853762E+02  0.56616003276E+02 -0.79364889094E+02  0.98859718117E+02  0.00000000000E+00 0.  1.
         11    1    3    3    0    0 -0.41726693142E+00 -0.36586170024E+02 -0.58253003583E+02  0.68790510793E+02  0.00000000000E+00 0. -1.
         -1    1    1    2    0  502 -0.21930500412E+02 -0.27529149460E+02  0.16542290186E+02  0.38890208059E+02  0.00000000000E+00 0.  1.
<scales pt_clust_5="13000.00000" pt_clust_6="13000.00000" pt_clust_7="13000.00000" pt_clust_8="13000.00000" pt_clust_9="35.19660"></scales>
<clustering>
<clus scale="   35.197">  1  9  2 -1</clus>
<clus scale="   91.893">  5  6 -1 -1</clus>
<clus scale="   92.107">  7  8 -1 -1</clus>
<clus scale="   96.152">  1  5  2 -1</clus>
<clus scale="   35.197">  1  5  2 -1</clus>
</clustering>
</event>
<event>
 9    1  0.1445593E-005  0.1156896E+03  0.7546771E-02  0.1251562E+00
          3   -1    0    0  502    0 -0.00000000000E+00  0.00000000000E+00  0.16325136274E+03  0.16325136274E+03  0.00000000000E+00 0. -1.
         21   -1    0    0  501  502  0.00000000000E+00 -0.00000000000E+00 -0.97282096912E+02  0.97282096912E+02  0.00000000000E+00 0.  1.
         23    2    1    2    0    0  0.47765254993E+02 -0.48804174086E+02  0.48178089785E+02  0.12570478202E+03  0.93899930218E+02 0.  0.
         23    2    1    2    0    0 -0.59963192954E+02  0.32787516793E+02  0.13667324211E+02  0.11427802909E+03  0.90565260532E+02 0.  0.
        -11    1    3    3    0    0  0.43897573772E+02 -0.72934228064E+02  0.18238495935E+02  0.87057689725E+02  0.00000000000E+00 0.  1.
         11    1    3    3    0    0  0.38676812209E+01  0.24130053978E+02  0.29939593850E+02  0.38647092295E+02  0.00000000000E+00 0. -1.
        -11    1    4    4    0    0 -0.42482729087E+02 -0.23995102366E+02  0.23335497168E+02  0.54084125548E+02  0.00000000000E+00 0.  1.
         11    1    4    4    0    0 -0.17480463868E+02  0.56782619159E+02 -0.96681729562E+01  0.60193903544E+02  0.00000000000E+00 0. -1.
          3    1    1    2  501    0  0.12197937962E+02  0.16016657293E+02  0.41238518298E+01  0.20550648537E+02  0.00000000000E+00 0. -1.
<scales pt_clust_5="13000.00000" pt_clust_6="13000.00000" pt_clust_7="13000.00000" pt_clust_8="13000.00000" pt_clust_9="20.13264"></scales>
<clustering>
<clus scale="   20.133">  2  9  1 -1</clus>
<clus scale="   90.565">  7  8 -1 -1</clus>
<clus scale="   93.900">  5  6 -1 -1</clus>
<clus scale="  113.000">  2  7  1 -1</clus>
<clus scale="   20.133">  2  5  1 -1</clus>
</clustering>
</event>
<event>
 9    1  0.1445593E-005  0.1129734E+03  0.7546771E-02  0.1256366E+00
         21   -1    0    0  501  502  0.00000000000E+00  0.00000000000E+00  0.21714613268E+03  0.21714613268E+03  0.00000000000E+00 0. -1.
          1   -1    0    0  502    0 -0.00000000000E+00 -0.00000000000E+00 -0.16013983989E+03  0.16013983989E+03  0.00000000000E+00 0. -1.
         23    2    1    2    0    0  0.57070628811E+02  0.52043497089E+02 -0.96681843602E+02  0.15570732502E+03  0.94508253183E+02 0.  0.
         23    2    1    2    0    0 -0.44555486798E+01 -0.12722264726E+02  0.73941678905E+02  0.11826357869E+03  0.91308237480E+02 0.  0.
        -11    1    3    3    0    0  0.48081928117E+02  0.77801915279E+02 -0.57745819152E+02  0.10816464053E+03  0.00000000000E+00 0. -1.
         11    1    3    3    0    0  0.89887006942E+01 -0.25758418190E+02 -0.38936024450E+02  0.47542684482E+02  0.00000000000E+00 0.  1.
        -11    1    4    4    0    0 -0.10959833908E+02 -0.50915231621E+02  0.52642131604E+02  0.74051825029E+02  0.00000000000E+00 0.  1.
         11    1    4    4    0    0  0.65042852284E+01  0.38192966896E+02  0.21299547301E+02  0.44211753662E+02  0.00000000000E+00 0. -1.
          1    1    1    2  501    0 -0.52615080131E+02 -0.39321232363E+02  0.79746457484E+02  0.10331506886E+03  0.00000000000E+00 0. -1.
<scales pt_clust_5="13000.00000" pt_clust_6="13000.00000" pt_clust_7="13000.00000" pt_clust_8="13000.00000" pt_clust_9="65.68490"></scales>
<clustering>
<clus scale="   65.685">  1  9  2 -1</clus>
<clus scale="   91.308">  7  8 -1 -1</clus>
<clus scale="   94.508">  5  6 -1 -1</clus>
<clus scale="  110.310">  1  7  2 -1</clus>
<clus scale="   65.685">  1  5  2 -1</clus>
</clustering>
</event>
<event>
 9    1  0.1445593E-005  0.9860322E+02  0.7546771E-02  0.1284798E+00
         21   -1    0    0  501  502  0.00000000000E+00  0.00000000000E+00  0.35260685554E+02  0.35260685554E+02  0.00000000000E+00 0.  1.
          1   -1    0    0  502    0 -0.00000000000E+00 -0.00000000000E+00 -0.57828526500E+03  0.57828526500E+03  0.00000000000E+00 0. -1.
         23    2    1    2    0    0  0.47653558910E+02  0.75719457763E+01 -0.31261493977E+03  0.32971630545E+03  0.93040558215E+02 0.  0.
         23    2    1    2    0    0 -0.16662252697E+02 -0.30169051228E+01 -0.23494652498E+03  0.25217853479E+03  0.90041165187E+02 0.  0.
        -11    1    4    4    0    0  0.23480287009E+02  0.31840857836E+01 -0.13984532994E+02  0.27514168048E+02  0.00000000000E+00 0.  1.
         11    1    4    4    0    0 -0.40142539706E+02 -0.62009909064E+01 -0.22096199198E+03  0.22466436674E+03  0.00000000000E+00 0. -1.
        -13    1    3    3    0    0  0.67622997441E+02  0.25193023706E+02 -0.17074607418E+03  0.18536930726E+03  0.00000000000E+00 0.  1.
         13    1    3    3    0    0 -0.19969438532E+02 -0.17621077929E+02 -0.14186886559E+03  0.14434699819E+03  0.00000000000E+00 0. -1.
          1    1    1    2  501    0 -0.30991306212E+02 -0.45550406534E+01  0.45368852988E+01  0.31651110317E+02  0.00000000000E+00 0. -1.
<scales pt_clust_5="13000.00000" pt_clust_6="13000.00000" pt_clust_7="13000.00000" pt_clust_8="13000.00000" pt_clust_9="31.32426"></scales>
<clustering>
<clus scale="   31.324">  1  9  2 -1</clus>
<clus scale="   90.041">  5  6 -1 -1</clus>
<clus scale="   93.041">  7  8 -1 -1</clus>
<clus scale="   95.778">  1  5  2 -1</clus>
<clus scale="   31.324">  1  5  2 -1</clus>
</clustering>
</event>
<event>
 9    1  0.1445593E-005  0.1042705E+03  0.7546771E-02  0.1271989E+00
         21   -1    0    0  501  502  0.00000000000E+00  0.00000000000E+00  0.19089629024E+03  0.19089629024E+03  0.00000000000E+00 0.  1.
          2   -1    0    0  502    0 -0.00000000000E+00 -0.00000000000E+00 -0.11462632809E+03  0.11462632809E+03  0.00000000000E+00 0. -1.
         23    2    1    2    0    0  0.54358374584E+02 -0.28185980736E+01 -0.42703788840E+02  0.11345178300E+03  0.89916161522E+02 0.  0.
         23    2    1    2    0    0 -0.46035138695E+02 -0.38495079150E+02  0.73341264537E+02  0.12995465386E+03  0.88927868870E+02 0.  0.
        -11    1    4    4    0    0 -0.82097470407E+01 -0.62115772735E+02  0.41315369616E+02  0.75051508549E+02  0.00000000000E+00 0.  1.
         11    1    4    4    0    0 -0.37825391655E+02  0.23620693585E+02  0.32025894921E+02  0.54903145308E+02  0.00000000000E+00 0. -1.
        -11    1    3    3    0    0 -0.25219076462E+02 -0.71351217784E+00 -0.68344621512E+01  0.26138492499E+02  0.00000000000E+00 0.  1.
         11    1    3    3    0    0  0.79577451046E+02 -0.21050858958E+01 -0.35869326689E+02  0.87313290505E+02  0.00000000000E+00 0. -1.
          2    1    1    2  501    0 -0.83232358890E+01  0.41313677223E+02  0.45632486451E+02  0.62116181476E+02  0.00000000000E+00 0. -1.
<scales pt_clust_5="13000.00000" pt_clust_6="13000.00000" pt_clust_7="13000.00000" pt_clust_8="13000.00000" pt_clust_9="42.14376"></scales>
<clustering>
<clus scale="   42.144">  1  9  2 -1</clus>
<clus scale="   88.928">  5  6 -1 -1</clus>
<clus scale="   89.916">  7  8 -1 -1</clus>
<clus scale="  103.419">  1  5  2 -1</clus>
<clus scale="   42.144">  1  5  2 -1</clus>
</clustering>
</event>
<event>
 9    1  0.1445593E-005  0.1803499E+03  0.7546771E-02  0.1168089E+00
         21   -1    0    0  501  502  0.00000000000E+00  0.00000000000E+00  0.58955476817E+02  0.58955476817E+02  0.00000000000E+00 0. -1.
          1   -1    0    0  502    0 -0.00000000000E+00 -0.00000000000E+00 -0.15230878157E+04  0.15230878157E+04  0.00000000000E+00 0. -1.
         23    2    1    2    0    0  0.13586497016E+03 -0.56475480353E+02 -0.10065501286E+04  0.10212601531E+04  0.90445391260E+02 0.  0.
         23    2    1    2    0    0 -0.14481644767E+03  0.88436221426E+02 -0.48183865764E+03  0.51967361313E+03  0.95390793085E+02 0.  0.
        -11    1    4    4    0    0 -0.37138873900E+02 -0.93356750020E+01 -0.44106287165E+02  0.58410746869E+02  0.00000000000E+00 0.  1.
         11    1    4    4    0    0 -0.10767757377E+03  0.97771896428E+02 -0.43773237048E+03  0.46126286626E+03  0.00000000000E+00 0. -1.
        -13    1    3    3    0    0 -0.93426816517E+01 -0.21146350991E+02 -0.12101323045E+03  0.12320168751E+03  0.00000000000E+00 0.  1.
         13    1    3    3    0    0  0.14520765181E+03 -0.35329129363E+02 -0.88553689817E+03  0.89805846555E+03  0.00000000000E+00 0. -1.
          1    1    1    2  501    0  0.89514775147E+01 -0.31960741073E+02  0.24256447351E+02  0.41109526362E+02  0.00000000000E+00 0. -1.
<scales pt_clust_5="13000.00000" pt_clust_6="13000.00000" pt_clust_7="13000.00000" pt_clust_8="13000.00000" pt_clust_9="33.19063"></scales>
<clustering>
<clus scale="   33.191">  1  9  2 -1</clus>
<clus scale="   90.445">  7  8 -1 -1</clus>
<clus scale="   95.391">  5  6 -1 -1</clus>
<clus scale="  177.784">  2  7  1 -1</clus>
<clus scale="   33.191">  1  5  2 -1</clus>
</clustering>
</event>
<event>
 9    1  0.1445593E-005  0.9584583E+02  0.7546771E-02  0.1294813E+00
         21   -1    0    0  501  502  0.00000000000E+00  0.00000000000E+00  0.11859564658E+03  0.11859564658E+03  0.00000000000E+00 0.  1.
          2   -1    0    0  502    0 -0.00000000000E+00 -0.00000000000E+00 -0.16903468642E+03  0.16903468642E+03  0.00000000000E+00 0. -1.
         23    2    1    2    0    0  0.25461104975E+01  0.33903092553E+01 -0.86434348865E+02  0.12222735208E+03  0.86317159696E+02 0.  0.
         23    2    1    2    0    0  0.16203512027E+02  0.18267763818E+02 -0.21551309828E+02  0.10112052752E+03  0.95732111294E+02 0.  0.
        -11    1    4    4    0    0 -0.21993168907E+02  0.76527970961E+01  0.28799201412E+02  0.37035912084E+02  0.00000000000E+00 0.  1.
         11    1    4    4    0    0  0.38196680934E+02  0.10614966721E+02 -0.50350511240E+02  0.64084615431E+02  0.00000000000E+00 0. -1.
        -13    1    3    3    0    0  0.34789889447E+02 -0.17656774238E+02 -0.70460125323E+02  0.80540221906E+02  0.00000000000E+00 0. -1.
         13    1    3    3    0    0 -0.32243778950E+02  0.21047083493E+02 -0.15974223542E+02  0.41687130176E+02  0.00000000000E+00 0.  1.
          2    1    1    2  501    0 -0.18749622525E+02 -0.21658073073E+02  0.57546618850E+02  0.64282453400E+02  0.00000000000E+00 0. -1.
<scales pt_clust_5="13000.00000" pt_clust_6="13000.00000" pt_clust_7="13000.00000" pt_clust_8="13000.00000" pt_clust_9="28.64647"></scales>
<clustering>
<clus scale="   28.646">  1  9  2 -1</clus>
<clus scale="   86.317">  7  8 -1 -1</clus>
<clus scale="   86.443">  2  7  1 -1</clus>
<clus scale="   95.732">  5  6 -1 -1</clus>
<clus scale="   28.646">  1  5  2 -1</clus>
</clustering>
</event>
<event>
 9    1  0.1445593E-005  0.1349142E+03  0.7546771E-02  0.1231133E+00
         21   -1    0    0  501  502  0.00000000000E+00  0.00000000000E+00  0.85637386031E+03  0.85637386031E+03  0.00000000000E+00 0. -1.
          2   -1    0    0  502    0 -0.00000000000E+00 -0.00000000000E+00 -0.57247343073E+02  0.57247343073E+02  0.00000000000E+00 0. -1.
         23    2    1    2    0    0  0.49989383385E+02  0.29116495540E+02  0.40294100936E+02  0.11507766155E+03  0.90953531291E+02 0.  0.
         23    2    1    2    0    0 -0.28307717983E+02  0.79921152149E+02  0.26812367495E+03  0.29539905755E+03  0.90452090479E+02 0.  0.
        -11    1    4    4    0    0 -0.26667566998E+02  0.10007493516E+03  0.23009319530E+03  0.25232722862E+03  0.00000000000E+00 0.  1.
         11    1    4    4    0    0 -0.16401509853E+01 -0.20153783013E+02  0.38030479648E+02  0.43071828928E+02  0.00000000000E+00 0. -1.
        -13    1    3    3    0    0  0.38345631733E+02 -0.29201315422E+02  0.20800240838E+02  0.52495278972E+02  0.00000000000E+00 0. -1.
         13    1    3    3    0    0  0.11643751651E+02  0.58317810962E+02  0.19493860098E+02  0.62582382580E+02  0.00000000000E+00 0.  1.
          2    1    1    2  501    0 -0.21681665402E+02 -0.10903764769E+03  0.49070874135E+03  0.50314448428E+03  0.00000000000E+00 0. -1.
<scales pt_clust_5="13000.00000" pt_clust_6="13000.00000" pt_clust_7="13000.00000" pt_clust_8="13000.00000" pt_clust_9="100.10129"></scales>
<clustering>
<clus scale="   90.452">  5  6 -1 -1</clus>
<clus scale="   90.954">  7  8 -1 -1</clus>
<clus scale="  107.793">  2  7  1 -1</clus>
<clus scale="  100.101">  1  9  2 -1</clus>
<clus scale="  100.101">  1  5  2 -1</clus>
</clustering>
</event>
<event>
 9    1  0.1445593E-005  0.9910027E+02  0.7546771E-02  0.1283128E+00
          1   -1    0    0  502    0 -0.00000000000E+00  0.00000000000E+00  0.25160189055E+03  0.25160189055E+03  0.00000000000E+00 0. -1.
         21   -1    0    0  501  502  0.00000000000E+00 -0.00000000000E+00 -0.16430040736E+03  0.16430040736E+03  0.00000000000E+00 0.  1.
         23    2    1    2    0    0 -0.32692990017E+02 -0.53260345880E+01  0.16400724795E+03  0.19065810831E+03  0.91405353482E+02 0.  0.
         23    2    1    2    0    0  0.27927860578E+02  0.49932699072E+02 -0.12036055317E+03  0.16264865041E+03  0.93245272740E+02 0.  0.
        -11    1    3    3    0    0  0.28742569710E+02 -0.17160386571E+02  0.71903865696E+02  0.79314438048E+02  0.00000000000E+00 0.  1.
         11    1    3    3    0    0 -0.61435559727E+02  0.11834351984E+02  0.92103382254E+02  0.11134367027E+03  0.00000000000E+00 0. -1.
        -11    1    4    4    0    0  0.32627429051E+02  0.74937793948E+02 -0.10450098256E+03  0.13266754480E+03  0.00000000000E+00 0.  1.
         11    1    4    4    0    0 -0.46995684724E+01 -0.25005094877E+02 -0.15859570616E+02  0.29981105612E+02  0.00000000000E+00 0. -1.
          1    1    1    2  501    0  0.47651294390E+01 -0.44606664484E+02  0.43654788410E+02  0.62595539187E+02  0.00000000000E+00 0. -1.
<scales pt_clust_5="13000.00000" pt_clust_6="13000.00000" pt_clust_7="13000.00000" pt_clust_8="13000.00000" pt_clust_9="44.86048"></scales>
<clustering>
<clus scale="   44.860">  2  9  1 -1</clus>
<clus scale="   91.405">  5  6 -1 -1</clus>
<clus scale="   93.245">  7  8 -1 -1</clus>
<clus scale="   97.371">  1  5  2 -1</clus>
<clus scale="   44.860">  2  5  1 -1</clus>
</clustering>
</event>
<event>
 9    1  0.1445593E-005  0.9346431E+02  0.7546771E-02  0.1295659E+00
         21   -1    0    0  501  502  0.00000000000E+00  0.00000000000E+00  0.39761372363E+03  0.39761372363E+03  0.00000000000E+00 0.  1.
          1   -1    0    0  502    0 -0.00000000000E+00 -0.00000000000E+00 -0.44368122015E+02  0.44368122015E+02  0.00000000000E+00 0. -1.
         23    2    1    2    0    0 -0.16055285121E+02  0.26710854043E+01  0.67592577395E+02  0.11506604344E+03  0.91687136262E+02 0.  0.
         23    2    1    2    0    0 -0.18019315169E+02  0.11894232872E+02  0.10363312388E+03  0.14116201085E+03  0.93384797739E+02 0.  0.
        -11    1    4    4    0    0 -0.49280709111E+02  0.31437803370E+02  0.70617904123E+02  0.91672308545E+02  0.00000000000E+00 0.  1.
         11    1    4    4    0    0  0.31261393943E+02 -0.19543570498E+02  0.33015219752E+02  0.49489702306E+02  0.00000000000E+00 0. -1.
        -13    1    3    3    0    0  0.29879443893E+02 -0.56688480143E+01 -0.28626270297E+01  0.30546876087E+02  0.00000000000E+00 0. -1.
         13    1    3    3    0    0 -0.45934729015E+02  0.83399334186E+01  0.70455204424E+02  0.84519167350E+02  0.00000000000E+00 0.  1.
          1    1    1    2  501    0  0.34074600290E+02 -0.14565318276E+02  0.18201990035E+03  0.18575379136E+03  0.00000000000E+00 0. -1.
<scales pt_clust_5="13000.00000" pt_clust_6="13000.00000" pt_clust_7="13000.00000" pt_clust_8="13000.00000" pt_clust_9="37.05708"></scales>
<clustering>
<clus scale="   37.057">  1  9  2 -1</clus>
<clus scale="   91.687">  7  8 -1 -1</clus>
<clus scale="   91.768">  2  7  1 -1</clus>
<clus scale="   93.385">  5  6 -1 -1</clus>
<clus scale="   37.057">  1  5  2 -1</clus>
</clustering>
</event>
<event>
 9    1  0.1617658E-005  0.4046812E+03  0.7546771E-02  0.1071408E+00
          2   -1    0    0  502    0 -0.00000000000E+00  0.00000000000E+00  0.10721389682E+04  0.10721389682E+04  0.00000000000E+00 0. -1.
         21   -1    0    0  501  502  0.00000000000E+00 -0.00000000000E+00 -0.34210034105E+03  0.34210034105E+03  0.00000000000E+00 0.  1.
         23    2    1    2    0    0  0.64598757678E+00 -0.15124256299E+03 -0.12397279095E+02  0.17805260738E+03  0.93135966761E+02 0.  0.
         23    2    1    2    0    0 -0.21425963667E+03  0.45371397261E+03  0.69794664394E+03  0.86322686602E+03  0.79167819100E+02 0.  0.
        -13    1    3    3    0    0 -0.71179479046E+01 -0.84815130848E+02 -0.52565900490E+02  0.10003722056E+03  0.00000000000E+00 0. -1.
         13    1    3    3    0    0  0.77639354814E+01 -0.66427432144E+02  0.40168621395E+02  0.78015386817E+02  0.00000000000E+00 0.  1.
        -13    1    4    4    0    0 -0.20841879541E+03  0.40447933451E+03  0.65556043542E+03  0.79799837770E+03  0.00000000000E+00 0.  1.
         13    1    4    4    0    0 -0.58408412671E+01  0.49234638099E+02  0.42386208513E+02  0.65228488313E+02  0.00000000000E+00 0. -1.
          2    1    1    2  501    0  0.21361364910E+03 -0.30247140962E+03  0.44489262321E+02  0.37295983588E+03  0.00000000000E+00 0. -1.
<scales pt_clust_5="13000.00000" pt_clust_6="13000.00000" pt_clust_7="13000.00000" pt_clust_8="13000.00000" pt_clust_9="396.86189"></scales>
<clustering>
<clus scale="   79.168">  7  8 -1 -1</clus>
<clus scale="   93.136">  5  6 -1 -1</clus>
<clus scale="  177.621">  1  5  2 -1</clus>
<clus scale="  396.862">  2  9  1 -1</clus>
<clus scale="  396.862">  2  5  1 -1</clus>
</clustering>
</event>
<event>
 9    1  0.1445593E-005  0.1119640E+03  0.7546771E-02  0.1257031E+00
         21   -1    0    0  501  502  0.00000000000E+00  0.00000000000E+00  0.21417185118E+03  0.21417185118E+03  0.00000000000E+00 0.  1.
          3   -1    0    0  502    0 -0.00000000000E+00 -0.00000000000E+00 -0.12976416943E+03  0.12976416943E+03  0.00000000000E+00 0. -1.
         23    2    1    2    0    0  0.55692739309E+02  0.22702752265E+02 -0.37759572254E+02  0.11591836230E+03  0.91619786339E+02 0.  0.
         23    2    1    2    0    0 -0.84910987027E+02  0.29736489362E+02  0.60129690676E+02  0.14169130472E+03  0.91469730588E+02 0.  0.
        -11    1    4    4    0    0 -0.39411409623E+02 -0.22285098163E+02 -0.64420465981E+01  0.45731660509E+02  0.00000000000E+00 0. -1.
         11    1    4    4    0    0 -0.45499577404E+02  0.52021587525E+02  0.66571737274E+02  0.95959644206E+02  0.00000000000E+00 0.  1.
        -13    1    3    3    0    0  0.29306784373E+02  0.55495783622E+02 -0.57161061652E+01  0.63018596301E+02  0.00000000000E+00 0. -1.
         13    1    3    3    0    0  0.26385954937E+02 -0.32793031357E+02 -0.32043466089E+02  0.52899765997E+02  0.00000000000E+00 0.  1.
          3    1    1    2  501    0  0.29218247717E+02 -0.52439241627E+02  0.62037563330E+02  0.86326353601E+02  0.00000000000E+00 0. -1.
<scales pt_clust_5="13000.00000" pt_clust_6="13000.00000" pt_clust_7="13000.00000" pt_clust_8="13000.00000" pt_clust_9="60.02983"></scales>
<clustering>
<clus scale="   60.030">  1  9  2 -1</clus>
<clus scale="   91.470">  5  6 -1 -1</clus>
<clus scale="   91.620">  7  8 -1 -1</clus>
<clus scale="  111.841">  1  5  2 -1</clus>
<clus scale="   60.030">  1  5  2 -1</clus>
</clustering>
</event>
<event>
 9    1  0.1445593E-005  0.1823058E+03  0.7546771E-02  0.1165659E+00
         -1   -1    0    0    0  501 -0.00000000000E+00  0.00000000000E+00  0.23441013832E+03  0.23441013832E+03  0.00000000000E+00 0.  1.
         21   -1    0    0  501  502  0.00000000000E+00 -0.00000000000E+00 -0.16353685936E+03  0.16353685936E+03  0.00000000000E+00 0. -1.
         23    2    1    2    0    0  0.14104855886E+03 -0.56568834006E+02  0.48025846869E+02  0.17982216949E+03  0.83275456998E+02 0.  0.
         23    2    1    2    0    0 -0.16165099737E+03  0.66664813115E+02  0.21587796559E+02  0.19514710095E+03  0.83911356763E+02 0.  0.
        -11    1    4    4    0    0 -0.84449936821E+01  0.31292913235E+02  0.19640550256E+02  0.37898753955E+02  0.00000000000E+00 0.  1.
         11    1    4    4    0    0 -0.15320600368E+03  0.35371899880E+02  0.19472463026E+01  0.15724834700E+03  0.00000000000E+00 0. -1.
        -13    1    3    3    0    0  0.90088007254E+02 -0.62986133494E+02  0.62512646572E+02  0.12645526104E+03  0.00000000000E+00 0.  1.
         13    1    3    3    0    0  0.50960551601E+02  0.64172994880E+01 -0.14486799703E+02  0.53366908454E+02  0.00000000000E+00 0. -1.
         -1    1    1    2    0  502  0.20602438511E+02 -0.10095979109E+02  0.12596355326E+01  0.22977727225E+02  0.00000000000E+00 0.  1.
<scales pt_clust_5="13000.00000" pt_clust_6="13000.00000" pt_clust_7="13000.00000" pt_clust_8="13000.00000" pt_clust_9="22.94317"></scales>
<clustering>
<clus scale="   22.943">  2  9  1 -1</clus>
<clus scale="   83.275">  7  8 -1 -1</clus>
<clus scale="   83.911">  5  6 -1 -1</clus>
<clus scale="  182.014">  1  7  2 -1</clus>
<clus scale="   22.943">  2  5  1 -1</clus>
</clustering>
</event>
<event>
 9    1  0.1445593E-005  0.9686031E+02  0.7546771E-02  0.1287783E+00
         21   -1    0    0  501  502  0.00000000000E+00  0.00000000000E+00  0.17515283990E+03  0.17515283990E+03  0.00000000000E+00 0.  1.
          3   -1    0    0  502    0 -0.00000000000E+00 -0.00000000000E+00 -0.96855878362E+02  0.96855878362E+02  0.00000000000E+00 0. -1.
         23    2    1    2    0    0  0.52414233266E+01 -0.24027077197E+02 -0.14913170381E+02  0.96320428120E+02  0.91926325203E+02 0.  0.
         23    2    1    2    0    0 -0.24109290234E+02  0.33456380310E+02  0.22601360950E+02  0.10199631842E+03  0.90508785183E+02 0.  0.
        -13    1    4    4    0    0  0.69036303873E+01 -0.28241387425E+02  0.14441446618E+02  0.32462154220E+02  0.00000000000E+00 0.  1.
         13    1    4    4    0    0 -0.31012920621E+02  0.61697767735E+02  0.81599143328E+01  0.69534164199E+02  0.00000000000E+00 0. -1.
        -13    1    3    3    0    0  0.26677568693E+02 -0.52492418855E+02 -0.38486297572E+01  0.59008123674E+02  0.00000000000E+00 0.  1.
         13    1    3    3    0    0 -0.21436145366E+02  0.28465341658E+02 -0.11064540623E+02  0.37312304446E+02  0.00000000000E+00 0. -1.
          3    1    1    2  501    0  0.18867866907E+02 -0.94293031132E+01  0.70608770972E+02  0.73691971727E+02  0.00000000000E+00 0. -1.
<scales pt_clust_5="13000.00000" pt_clust_6="13000.00000" pt_clust_7="13000.00000" pt_clust_8="13000.00000" pt_clust_9="21.09285"></scales>
<clustering>
<clus scale="   21.093">  1  9  2 -1</clus>
<clus scale="   90.509">  5  6 -1 -1</clus>
<clus scale="   91.926">  7  8 -1 -1</clus>
<clus scale="   95.516">  1  5  2 -1</clus>
<clus scale="   21.093">  1  5  2 -1</clus>
</clustering>
</event>
<event>
 9    1  0.1445593E-005  0.1025914E+03  0.7546771E-02  0.1278124E+00
         21   -1    0    0  501  502  0.00000000000E+00  0.00000000000E+00  0.46298558715E+02  0.46298558715E+02  0.00000000000E+00 0.  1.
          2   -1    0    0  502    0 -0.00000000000E+00 -0.00000000000E+00 -0.30358536505E+03  0.30358536505E+03  0.00000000000E+00 0. -1.
         23    2    1    2    0    0  0.22772891973E+01  0.42447800009E+02 -0.16880617619E+03  0.19371708976E+03  0.84992846595E+02 0.  0.
         23    2    1    2    0    0  0.16327919747E+02 -0.52947304910E+02 -0.71776749277E+02  0.12904833406E+03  0.91823486795E+02 0.  0.
        -11    1    3    3    0    0 -0.27690563102E+02 -0.10277634205E+02 -0.87037397684E+02  0.91912489061E+02  0.00000000000E+00 0.  1.
         11    1    3    3    0    0  0.29967852300E+02  0.52725434215E+02 -0.81768778509E+02  0.10180460070E+03  0.00000000000E+00 0. -1.
        -11    1    4    4    0    0 -0.85552210184E+01 -0.60448316157E+02 -0.97859291112E+01  0.61830050472E+02  0.00000000000E+00 0.  1.
         11    1    4    4    0    0  0.24883140766E+02  0.75010112463E+01 -0.61990820166E+02  0.67218283591E+02  0.00000000000E+00 0. -1.
          2    1    1    2  501    0 -0.18605208945E+02  0.10499504901E+02 -0.16703880861E+02  0.27118499937E+02  0.00000000000E+00 0. -1.
<scales pt_clust_5="13000.00000" pt_clust_6="13000.00000" pt_clust_7="13000.00000" pt_clust_8="13000.00000" pt_clust_9="21.36337"></scales>
<clustering>
<clus scale="   21.363">  1  9  2 -1</clus>
<clus scale="   84.993">  5  6 -1 -1</clus>
<clus scale="   91.823">  7  8 -1 -1</clus>
<clus scale="   96.526">  2  5  1 -1</clus>
<clus scale="   21.363">  1  5  2 -1</clus>
</clustering>
</event>
<event>
 9    1  0.1445593E-005  0.1389022E+03  0.7546771E-02  0.1233442E+00
         21   -1    0    0  501  502  0.00000000000E+00  0.00000000000E+00  0.14653728490E+03  0.14653728490E+03  0.00000000000E+00 0. -1.
         -1   -1    0    0    0  501 -0.00000000000E+00 -0.00000000000E+00 -0.33783607275E+03  0.33783607275E+03  0.00000000000E+00 0.  1.
         23    2    1    2    0    0  0.76205686564E+01  0.21336970578E+02 -0.21791465818E+03  0.23739955810E+03  0.91424354288E+02 0.  0.
         23    2    1    2    0    0  0.33973658588E+02 -0.11016524282E+03  0.26686226340E+02  0.14888941425E+03  0.90362120359E+02 0.  0.
        -11    1    3    3    0    0  0.99030295283E+01 -0.24222287433E+02 -0.16618389344E+02  0.30999355908E+02  0.00000000000E+00 0. -1.
         11    1    3    3    0    0 -0.22824608719E+01  0.45559258011E+02 -0.20129626883E+03  0.20640020219E+03  0.00000000000E+00 0.  1.
        -11    1    4    4    0    0 -0.17378303378E+02 -0.52149321173E+02 -0.19928024652E+02  0.58469507383E+02  0.00000000000E+00 0.  1.
         11    1    4    4    0    0  0.51351961966E+02 -0.58015921651E+02  0.46614250992E+02  0.90419906870E+02  0.00000000000E+00 0. -1.
         -1    1    1    2    0  502 -0.41594227244E+02  0.88828272247E+02 -0.70356007765E-01  0.98084385303E+02  0.00000000000E+00 0.  1.
<scales pt_clust_5="13000.00000" pt_clust_6="13000.00000" pt_clust_7="13000.00000" pt_clust_8="13000.00000" pt_clust_9="105.49174"></scales>
<clustering>
<clus scale="   90.362">  7  8 -1 -1</clus>
<clus scale="   91.424">  5  6 -1 -1</clus>
<clus scale="   94.190">  2  5  1 -1</clus>
<clus scale="  105.492">  1  9  2 -1</clus>
<clus scale="  105.492">  1  5  2 -1</clus>
</clustering>
</event>
<event>
 9    1  0.1445593E-005  0.1018394E+03  0.7546771E-02  0.1276993E+00
         21   -1    0    0  501  502  0.00000000000E+00  0.00000000000E+00  0.19560892297E+02  0.19560892297E+02  0.00000000000E+00 0.  1.
          3   -1    0    0  502    0 -0.00000000000E+00 -0.00000000000E+00 -0.80604047101E+03  0.80604047101E+03  0.00000000000E+00 0. -1.
         23    2    1    2    0    0  0.40481924137E+02 -0.48526903103E+01 -0.46862741056E+03  0.47899793979E+03  0.90360619765E+02 0.  0.
         23    2    1    2    0    0 -0.46945990544E+02  0.34034082438E+02 -0.24668438922E+03  0.26941410717E+03  0.91479661457E+02 0.  0.
        -11    1    3    3    0    0 -0.28486573261E+02 -0.92539626957E+01 -0.13342390393E+03  0.13674450198E+03  0.00000000000E+00 0.  1.
         11    1    3    3    0    0  0.68968497399E+02  0.44012723854E+01 -0.33520350663E+03  0.34225343780E+03  0.00000000000E+00 0. -1.
        -13    1    4    4    0    0  0.80126788227E+01  0.30365322201E+02 -0.18094199762E+03  0.18364711355E+03  0.00000000000E+00 0. -1.
         13    1    4    4    0    0 -0.54958669367E+02  0.36687602369E+01 -0.65742391607E+02  0.85766993619E+02  0.00000000000E+00 0.  1.
          3    1    1    2  501    0  0.64640664068E+01 -0.29181392128E+02 -0.71167778933E+02  0.77189316355E+02  0.00000000000E+00 0. -1.
<scales pt_clust_5="13000.00000" pt_clust_6="13000.00000" pt_clust_7="13000.00000" pt_clust_8="13000.00000" pt_clust_9="29.88876"></scales>
<clustering>
<clus scale="   29.889">  1  9  2 -1</clus>
<clus scale="   90.361">  5  6 -1 -1</clus>
<clus scale="   91.480">  7  8 -1 -1</clus>
<clus scale="  100.835">  2  5  1 -1</clus>
<clus scale="   29.889">  1  5  2 -1</clus>
</clustering>
</event>
<event>
 9    1  0.1445593E-005  0.1076002E+03  0.7546771E-02  0.1265533E+00
         -3   -1    0    0    0  501 -0.00000000000E+00  0.00000000000E+00  0.32469254742E+03  0.32469254742E+03  0.00000000000E+00 0.  1.
         21   -1    0    0  501  502  0.00000000000E+00 -0.00000000000E+00 -0.17653281870E+03  0.17653281870E+03  0.00000000000E+00 0.  1.
         23    2    1    2    0    0 -0.18805739691E+02 -0.63782316051E+02  0.23323441628E+03  0.25809744140E+03  0.88284520924E+02 0.  0.
         23    2    1    2    0    0  0.34399256652E+02  0.32277617263E+02  0.43329551691E+02  0.10999884272E+03  0.89426740497E+02 0.  0.
        -11    1    3    3    0    0  0.21719657953E+02 -0.66081044664E+02  0.15734861824E+03  0.17203789021E+03  0.00000000000E+00 0.  1.
         11    1    3    3    0    0 -0.40525397644E+02  0.22987286130E+01  0.75885798038E+02  0.86059551192E+02  0.00000000000E+00 0. -1.
        -13    1    4    4    0    0  0.31458343611E+02  0.11055695588E+01  0.64795330043E+02  0.72036688306E+02  0.00000000000E+00 0.  1.
         13    1    4    4    0    0  0.29409130414E+01  0.31172047705E+02 -0.21465778352E+02  0.37962154415E+02  0.00000000000E+00 0. -1.
         -3    1    1    2    0  502 -0.15593516961E+02  0.31504698788E+02 -0.12840423925E+03  0.13312908200E+03  0.00000000000E+00 0.  1.
<scales pt_clust_5="13000.00000" pt_clust_6="13000.00000" pt_clust_7="13000.00000" pt_clust_8="13000.00000" pt_clust_9="35.15258"></scales>
<clustering>
<clus scale="   35.153">  2  9  1 -1</clus>
<clus scale="   88.285">  5  6 -1 -1</clus>
<clus scale="   89.427">  7  8 -1 -1</clus>
<clus scale="  106.653">  1  5  2 -1</clus>
<clus scale="   35.153">  2  5  1 -1</clus>
</clustering>
</event>
<event>
 9    1  0.1445593E-005  0.9661770E+02  0.7546771E-02  0.1288216E+00
         -4   -1    0    0    0  501 -0.00000000000E+00  0.00000000000E+00  0.34713750813E+02  0.34713750813E+02  0.00000000000E+00 0.  1.
         21   -1    0    0  501  502  0.00000000000E+00 -0.00000000000E+00 -0.61732841214E+03  0.61732841214E+03  0.00000000000E+00 0.  1.
         23    2    1    2    0    0  0.32830434367E+02 -0.92711477841E+01 -0.10531185986E+03  0.14296075428E+03  0.90462134808E+02 0.  0.
         23    2    1    2    0    0 -0.22234561213E+02 -0.40694354961E+02 -0.17861416983E+03  0.20605711483E+03  0.91684822461E+02 0.  0.
        -13    1    3    3    0    0  0.91346075507E+01 -0.49051143760E+02 -0.61738791529E+02  0.79379683413E+02  0.00000000000E+00 0.  1.
         13    1    3    3    0    0  0.23695826816E+02  0.39779995976E+02 -0.43573068332E+02  0.63581070864E+02  0.00000000000E+00 0. -1.
        -13    1    4    4    0    0 -0.54738635716E+02 -0.32246235060E+02 -0.14608769866E+03  0.15930396610E+03  0.00000000000E+00 0.  1.
         13    1    4    4    0    0  0.32504074503E+02 -0.84481199006E+01 -0.32526471164E+02  0.46753148723E+02  0.00000000000E+00 0. -1.
         -4    1    1    2    0  502 -0.10595873153E+02  0.49965502745E+02 -0.29868863164E+03  0.30302429385E+03  0.00000000000E+00 0.  1.
<scales pt_clust_5="13000.00000" pt_clust_6="13000.00000" pt_clust_7="13000.00000" pt_clust_8="13000.00000" pt_clust_9="51.07665"></scales>
<clustering>
<clus scale="   51.077">  2  9  1 -1</clus>
<clus scale="   90.462">  5  6 -1 -1</clus>
<clus scale="   91.685">  7  8 -1 -1</clus>
<clus scale="   95.458">  1  5  2 -1</clus>
<clus scale="   51.077">  2  5  1 -1</clus>
</clustering>
</event>
<event>
 9    1  0.1445593E-005  0.1187743E+03  0.7546771E-02  0.1245427E+00
         21   -1    0    0  501  502  0.00000000000E+00  0.00000000000E+00  0.24171231875E+02  0.24171231875E+02  0.00000000000E+00 0.  1.
          2   -1    0    0  502    0 -0.00000000000E+00 -0.00000000000E+00 -0.93231899023E+03  0.93231899023E+03  0.00000000000E+00 0. -1.
         23    2    1    2    0    0  0.42191560900E+02  0.79780342993E+02 -0.59209938016E+03  0.60577963136E+03  0.90786864939E+02 0.  0.
         23    2    1    2    0    0 -0.26051861705E+02 -0.37872258660E+02 -0.17680678154E+03  0.20440611487E+03  0.91696315754E+02 0.  0.
        -11    1    3    3    0    0 -0.23554436875E+02  0.17286085266E+02 -0.69897283923E+02  0.75757841443E+02  0.00000000000E+00 0.  1.
         11    1    3    3    0    0  0.65745997775E+02  0.62494257726E+02 -0.52220209624E+03  0.53002178992E+03  0.00000000000E+00 0. -1.
        -13    1    4    4    0    0 -0.25895894800E+02 -0.67254955343E+02 -0.13849572166E+03  0.15612460185E+03  0.00000000000E+00 0.  1.
         13    1    4    4    0    0 -0.15596690507E+00  0.29382696683E+02 -0.38311059887E+02  0.48281513022E+02  0.00000000000E+00 0. -1.
          2    1    1    2  501    0 -0.16139699195E+02 -0.41908084332E+02 -0.13924159666E+03  0.14630447588E+03  0.00000000000E+00 0. -1.
<scales pt_clust_5="13000.00000" pt_clust_6="13000.00000" pt_clust_7="13000.00000" pt_clust_8="13000.00000" pt_clust_9="44.90857"></scales>
<clustering>
<clus scale="   44.909">  1  9  2 -1</clus>
<clus scale="   90.787">  5  6 -1 -1</clus>
<clus scale="   91.696">  7  8 -1 -1</clus>
<clus scale="  118.074">  2  5  1 -1</clus>
<clus scale="   44.909">  1  5  2 -1</clus>
</clustering>
</event>
<event>
 9    1  0.1445593E-005  0.9515988E+02  0.7546771E-02  0.1291233E+00
          1   -1    0    0  502    0 -0.00000000000E+00  0.00000000000E+00  0.13537102436E+03  0.13537102436E+03  0.00000000000E+00 0. -1.
         21   -1    0    0  501  502  0.00000000000E+00 -0.00000000000E+00 -0.13901703652E+03  0.13901703652E+03  0.00000000000E+00 0. -1.
         23    2    1    2    0    0 -0.28989488508E+02  0.14080735932E+02  0.74966620916E+02  0.12175620770E+03  0.90365492828E+02 0.  0.
         23    2    1    2    0    0  0.18060629417E+02  0.66754759000E+01 -0.28681473128E+02  0.97465006021E+02  0.91137545416E+02 0.  0.
        -11    1    4    4    0    0 -0.32553165786E+02  0.13164889988E+02  0.61953106391E+01  0.35656763804E+02  0.00000000000E+00 0.  1.
         11    1    4    4    0    0  0.50613795203E+02 -0.64894140880E+01 -0.34876783768E+02  0.61808242217E+02  0.00000000000E+00 0. -1.
        -13    1    3    3    0    0 -0.60032285977E+02 -0.34741238278E+01  0.43793225826E+02  0.74389458422E+02  0.00000000000E+00 0.  1.
         13    1    3    3    0    0  0.31042797469E+02  0.17554859759E+02  0.31173395090E+02  0.47366749280E+02  0.00000000000E+00 0. -1.
          1    1    1    2  501    0  0.10928859091E+02 -0.20756211831E+02 -0.49931159951E+02  0.55166847152E+02  0.00000000000E+00 0. -1.
<scales pt_clust_5="13000.00000" pt_clust_6="13000.00000" pt_clust_7="13000.00000" pt_clust_8="13000.00000" pt_clust_9="23.45763"></scales>
<clustering>
<clus scale="   23.458">  2  9  1 -1</clus>
<clus scale="   90.365">  7  8 -1 -1</clus>
<clus scale="   91.138">  5  6 -1 -1</clus>
<clus scale="   94.421">  1  7  2 -1</clus>
<clus scale="   23.458">  2  5  1 -1</clus>
</clustering>
</event>
<event>
 9    1  0.1445593E-005  0.2697582E+03  0.7546771E-02  0.1101731E+00
         -1   -1    0    0    0  501 -0.00000000000E+00  0.00000000000E+00  0.32005071071E+03  0.32005071071E+03  0.00000000000E+00 0.  1.
         21   -1    0    0  501  502  0.00000000000E+00 -0.00000000000E+00 -0.32198071079E+03  0.32198071079E+03  0.00000000000E+00 0.  1.
         23    2    1    2    0    0  0.62127785284E+02 -0.24447458552E+03  0.13565762085E+03  0.30246724693E+03  0.97240735806E+02 0.  0.
         23    2    1    2    0    0 -0.10011285951E+03  0.23168506993E+03 -0.10580181583E+03  0.28840975170E+03  0.91025295270E+02 0.  0.
        -11    1    3    3    0    0  0.24155040929E+01 -0.17292447709E+03  0.11291429984E+03  0.20653897585E+03  0.00000000000E+00 0.  1.
         11    1    3    3    0    0  0.59712281191E+02 -0.71550108429E+02  0.22743321009E+02  0.95928271077E+02  0.00000000000E+00 0. -1.
        -11    1    4    4    0    0 -0.49627555972E+02  0.94917605154E+02 -0.93370959393E+02  0.14209286449E+03  0.00000000000E+00 0. -1.
         11    1    4    4    0    0 -0.50485303537E+02  0.13676746477E+03 -0.12430856439E+02  0.14631688722E+03  0.00000000000E+00 0.  1.
         -1    1    1    2    0  502  0.37985074225E+02  0.12789515597E+02 -0.31785805103E+02  0.51154422870E+02  0.00000000000E+00 0.  1.
<scales pt_clust_5="13000.00000" pt_clust_6="13000.00000" pt_clust_7="13000.00000" pt_clust_8="13000.00000" pt_clust_9="40.08039"></scales>
<clustering>
<clus scale="   40.080">  2  9  1 -1</clus>
<clus scale="   91.025">  7  8 -1 -1</clus>
<clus scale="   97.241">  5  6 -1 -1</clus>
<clus scale="  267.581">  2  7  1 -1</clus>
<clus scale="   40.080">  2  5  1 -1</clus>
</clustering>
</event>
<event>
 9    1  0.1445593E-005  0.9448600E+02  0.7546771E-02  0.1293466E+00
         -2   -1    0    0    0  501 -0.00000000000E+00  0.00000000000E+00  0.20675014821E+03  0.20675014821E+03  0.00000000000E+00 0.  1.
         21   -1    0    0  501  502  0.00000000000E+00 -0.00000000000E+00 -0.10760012299E+03  0.10760012299E+03  0.00000000000E+00 0.  1.
         23    2    1    2    0    0  0.45514086175E+01 -0.32234092200E+01  0.14019111202E+03  0.16878478984E+03  0.93827776843E+02 0.  0.
         23    2    1    2    0    0 -0.39129525035E+02 -0.11234422071E+02 -0.19511206064E+02  0.10234267737E+03  0.91847724411E+02 0.  0.
        -11    1    3    3    0    0 -0.44553158146E+02 -0.45233560252E+01  0.63185842067E+02  0.77446079877E+02  0.00000000000E+00 0. -1.
         11    1    3    3    0    0  0.49104566764E+02  0.12999468052E+01  0.77005269948E+02  0.91338709968E+02  0.00000000000E+00 0.  1.
        -11    1    4    4    0    0 -0.66132824272E+02 -0.15175094102E+02  0.15530903024E+01  0.67869330456E+02  0.00000000000E+00 0.  1.
         11    1    4    4    0    0  0.27003299236E+02  0.39406720309E+01 -0.21064296366E+02  0.34473346909E+02  0.00000000000E+00 0. -1.
         -2    1    1    2    0  502  0.34578116418E+02  0.14457831291E+02 -0.21529880731E+02  0.43222803992E+02  0.00000000000E+00 0.  1.
<scales pt_clust_5="13000.00000" pt_clust_6="13000.00000" pt_clust_7="13000.00000" pt_clust_8="13000.00000" pt_clust_9="37.47899"></scales>
<clustering>
<clus scale="   37.479">  2  9  1 -1</clus>
<clus scale="   91.848">  7  8 -1 -1</clus>
<clus scale="   92.520">  2  7  1 -1</clus>
<clus scale="   93.828">  5  6 -1 -1</clus>
<clus scale="   37.479">  2  5  1 -1</clus>
</clustering>
</event>
<event>
 9    1  0.1445593E-005  0.2411642E+03  0.7546771E-02  0.1120306E+00
          1   -1    0    0  502    0 -0.00000000000E+00  0.00000000000E+00  0.61014086603E+03  0.61014086603E+03  0.00000000000E+00 0. -1.
         21   -1    0    0  501  502  0.00000000000E+00 -0.00000000000E+00 -0.15518336246E+03  0.15518336246E+03  0.00000000000E+00 0. -1.
         23    2    1    2    0    0 -0.20933353425E+03 -0.87776720265E+02  0.39995317820E+03  0.46898943138E+03  0.91995982598E+02 0.  0.
         23    2    1    2    0    0  0.21478109285E+03  0.34415792464E+02  0.73007238014E+02  0.23975591965E+03  0.69551991978E+02 0.  0.
        -11    1    4    4    0    0  0.18150839238E+03  0.49645801836E+02  0.44489513487E+02  0.19336317890E+03  0.00000000000E+00 0. -1.
         11    1    4    4    0    0  0.33272700467E+02 -0.15230009371E+02  0.28517724527E+02  0.46392740747E+02  0.00000000000E+00 0.  1.
        -13    1    3    3    0    0 -0.11140216350E+03 -0.15668950844E+02  0.12400593469E+03  0.16743186642E+03  0.00000000000E+00 0.  1.
         13    1    3    3    0    0 -0.97931370750E+02 -0.72107769421E+02  0.27594724351E+03  0.30155756497E+03  0.00000000000E+00 0. -1.
          1    1    1    2  501    0 -0.54475585970E+01  0.53360927800E+02 -0.18002912649E+02  0.56578877456E+02  0.00000000000E+00 0. -1.
<scales pt_clust_5="13000.00000" pt_clust_6="13000.00000" pt_clust_7="13000.00000" pt_clust_8="13000.00000" pt_clust_9="53.63827"></scales>
<clustering>
<clus scale="   53.638">  2  9  1 -1</clus>
<clus scale="   69.552">  5  6 -1 -1</clus>
<clus scale="   91.996">  7  8 -1 -1</clus>
<clus scale="  233.526">  2  5  1 -1</clus>
<clus scale="   53.638">  2  5  1 -1</clus>
</clustering>
</event>
<event>
 9    1  0.1445593E-005  0.9690724E+02  0.7546771E-02  0.1292054E+00
         21   -1    0    0  501  502  0.00000000000E+00  0.00000000000E+00  0.23386764717E+03  0.23386764717E+03  0.00000000000E+00 0.  1.
         -1   -1    0    0    0  501 -0.00000000000E+00 -0.00000000000E+00 -0.80029974952E+02  0.80029974952E+02  0.00000000000E+00 0.  1.
         23    2    1    2    0    0  0.52846692898E+01 -0.39553489445E+02 -0.54112393626E+01  0.91717536098E+02  0.82403996625E+02 0.  0.
         23    2    1    2    0    0  0.10128609757E+02  0.16380163486E+02  0.43997929404E+02  0.10361634325E+03  0.91813018172E+02 0.  0.
        -13    1    3    3    0    0 -0.83774995690E+01 -0.59105604694E+02  0.13587788875E+02  0.61223222815E+02  0.00000000000E+00 0.  1.
         13    1    3    3    0    0  0.13662168859E+02  0.19552115249E+02 -0.18999028238E+02  0.30494313284E+02  0.00000000000E+00 0. -1.
        -13    1    4    4    0    0 -0.25771748177E+02  0.37226121956E+02  0.31659153107E+01  0.45387114688E+02  0.00000000000E+00 0. -1.
         13    1    4    4    0    0  0.35900357935E+02 -0.20845958469E+02  0.40832014093E+02  0.58229228565E+02  0.00000000000E+00 0.  1.
         -1    1    1    2    0  502 -0.15413279047E+02  0.23173325959E+02  0.11525098217E+03  0.11856374277E+03  0.00000000000E+00 0.  1.
<scales pt_clust_5="13000.00000" pt_clust_6="13000.00000" pt_clust_7="13000.00000" pt_clust_8="13000.00000" pt_clust_9="27.83114"></scales>
<clustering>
<clus scale="   27.831">  1  9  2 -1</clus>
<clus scale="   82.404">  5  6 -1 -1</clus>
<clus scale="   88.044">  2  5  1 -1</clus>
<clus scale="   91.813">  7  8 -1 -1</clus>
<clus scale="   27.831">  1  5  2 -1</clus>
</clustering>
</event>
<event>
 9    1  0.1445593E-005  0.9479870E+02  0.7546771E-02  0.1292177E+00
         21   -1    0    0  501  502  0.00000000000E+00  0.00000000000E+00  0.48917749271E+03  0.48917749271E+03  0.00000000000E+00 0.  1.
          3   -1    0    0  502    0 -0.00000000000E+00 -0.00000000000E+00 -0.33515345123E+02  0.33515345123E+02  0.00000000000E+00 0. -1.
         23    2    1    2    0    0 -0.26080552515E+02 -0.56296659497E-01  0.74392627895E+02  0.11943316884E+03  0.89720791040E+02 0.  0.
         23    2    1    2    0    0  0.40638018891E+02 -0.14591624629E+02  0.22560980941E+03  0.24623601845E+03  0.88701897335E+02 0.  0.
        -11    1    3    3    0    0 -0.55050018517E+02 -0.16698695195E+02  0.33289369797E+02  0.66464525135E+02  0.00000000000E+00 0. -1.
         11    1    3    3    0    0  0.28969466002E+02  0.16642398536E+02  0.41103258098E+02  0.52968643703E+02  0.00000000000E+00 0.  1.
        -13    1    4    4    0    0  0.25645775734E+02  0.26259283785E+02  0.17796236997E+03  0.18170817517E+03  0.00000000000E+00 0.  1.
         13    1    4    4    0    0  0.14992243157E+02 -0.40850908414E+02  0.47647439439E+02  0.64527843279E+02  0.00000000000E+00 0. -1.
          3    1    1    2  501    0 -0.14557466376E+02  0.14647921288E+02  0.15565971028E+03  0.15702365054E+03  0.00000000000E+00 0. -1.
<scales pt_clust_5="13000.00000" pt_clust_6="13000.00000" pt_clust_7="13000.00000" pt_clust_8="13000.00000" pt_clust_9="20.65143"></scales>
<clustering>
<clus scale="   20.651">  1  9  2 -1</clus>
<clus scale="   88.702">  7  8 -1 -1</clus>
<clus scale="   89.721">  5  6 -1 -1</clus>
<clus scale="   93.835">  1  7  2 -1</clus>
<clus scale="   20.651">  1  5  2 -1</clus>
</clustering>
</event>
<event>
 9    1  0.1445593E-005  0.9377737E+02  0.7546771E-02  0.1294502E+00
          2   -1    0    0  502    0 -0.00000000000E+00  0.00000000000E+00  0.29694297448E+02  0.29694297448E+02  0.00000000000E+00 0. -1.
         21   -1    0    0  501  502  0.00000000000E+00 -0.00000000000E+00 -0.54396444922E+03  0.54396444922E+03  0.00000000000E+00 0. -1.
         23    2    1    2    0    0 -0.10854847630E+02 -0.63700499212E+01 -0.13415424631E+03  0.16351752000E+03  0.92640230399E+02 0.  0.
         23    2    1    2    0    0  0.13139692875E+02 -0.24554840905E+02 -0.15029423121E+03  0.17823699785E+03  0.91675949559E+02 0.  0.
        -13    1    3    3    0    0  0.19898750092E+02 -0.15339894873E+02  0.47475413440E+00  0.25129624379E+02  0.00000000000E+00 0. -1.
         13    1    3    3    0    0 -0.30753597723E+02  0.89698449518E+01 -0.13462900045E+03  0.13838789562E+03  0.00000000000E+00 0.  1.
        -13    1    4    4    0    0  0.41531988060E+02  0.11765750040E+02 -0.10536077017E+03  0.11386057613E+03  0.00000000000E+00 0.  1.
         13    1    4    4    0    0 -0.28392295185E+02 -0.36320590945E+02 -0.44933461040E+02  0.64376421720E+02  0.00000000000E+00 0. -1.
          2    1    1    2  501    0 -0.22848452449E+01  0.30924890826E+02 -0.22982167425E+03  0.23190422882E+03  0.00000000000E+00 0. -1.
<scales pt_clust_5="13000.00000" pt_clust_6="13000.00000" pt_clust_7="13000.00000" pt_clust_8="13000.00000" pt_clust_9="31.00918"></scales>
<clustering>
<clus scale="   31.009">  2  9  1 -1</clus>
<clus scale="   91.676">  7  8 -1 -1</clus>
<clus scale="   92.640">  5  6 -1 -1</clus>
<clus scale="   92.825">  2  7  1 -1</clus>
<clus scale="   31.009">  2  5  1 -1</clus>
</clustering>
</event>
<event>
 9    1  0.1445593E-005  0.1196388E+03  0.7546771E-02  0.1243724E+00
          1   -1    0    0  502    0 -0.00000000000E+00  0.00000000000E+00  0.16241272644E+03  0.16241272644E+03  0.00000000000E+00 0. -1.
         21   -1    0    0  501  502  0.00000000000E+00 -0.00000000000E+00 -0.38732217564E+03  0.38732217564E+03  0.00000000000E+00 0. -1.
         23    2    1    2    0    0  0.65962505591E+02  0.87300038576E+01  0.43578576722E+02  0.12042401136E+03  0.90418941883E+02 0.  0.
         23    2    1    2    0    0 -0.84696908486E+02 -0.55568312663E+02  0.19233287901E+02  0.13720070697E+03  0.90513595382E+02 0.  0.
        -11    1    3    3    0    0 -0.33766388250E+01  0.30726256689E+02 -0.71637875793E+01  0.31730496252E+02  0.00000000000E+00 0.  1.
         11    1    3    3    0    0  0.69339144416E+02 -0.21996252832E+02  0.50742364301E+02  0.88693515106E+02  0.00000000000E+00 0. -1.
        -13    1    4    4    0    0 -0.61775632291E+02 -0.59271195373E+02 -0.23315200062E+02  0.88729374503E+02  0.00000000000E+00 0.  1.
         13    1    4    4    0    0 -0.22921276195E+02  0.37028827092E+01  0.42548487962E+02  0.48471332462E+02  0.00000000000E+00 0. -1.
          1    1    1    2  501    0  0.18734402894E+02  0.46838308806E+02 -0.28772131382E+03  0.29211018375E+03  0.00000000000E+00 0. -1.
<scales pt_clust_5="13000.00000" pt_clust_6="13000.00000" pt_clust_7="13000.00000" pt_clust_8="13000.00000" pt_clust_9="50.44606"></scales>
<clustering>
<clus scale="   50.446">  2  9  1 -1</clus>
<clus scale="   90.419">  5  6 -1 -1</clus>
<clus scale="   90.514">  7  8 -1 -1</clus>
<clus scale="  119.567">  1  5  2 -1</clus>
<clus scale="   50.446">  2  5  1 -1</clus>
</clustering>
</event>
<event>
 9    1  0.1445593E-005  0.1601970E+03  0.7546771E-02  0.1189682E+00
          1   -1    0    0  502    0 -0.00000000000E+00  0.00000000000E+00  0.35856733348E+03  0.35856733348E+03  0.00000000000E+00 0. -1.
         21   -1    0    0  501  502  0.00000000000E+00 -0.00000000000E+00 -0.81447173146E+02  0.81447173146E+02  0.00000000000E+00 0.  1.
         23    2    1    2    0    0 -0.11963205685E+03  0.68524423974E+02  0.15281664101E+03  0.22527434950E+03  0.91587013644E+02 0.  0.
         23    2    1    2    0    0  0.96604402745E+02 -0.60031090929E+02  0.10545794488E+03  0.18379560613E+03  0.98606816128E+02 0.  0.
        -11    1    3    3    0    0 -0.19219815176E+01  0.42827803870E+02  0.57079426427E+02  0.71386103119E+02  0.00000000000E+00 0. -1.
         11    1    3    3    0    0 -0.11771007533E+03  0.25696620104E+02  0.95737214581E+02  0.15388824639E+03  0.00000000000E+00 0.  1.
        -13    1    4    4    0    0  0.54143564744E+02 -0.15943154852E+02 -0.58735829818E+01  0.56746883323E+02  0.00000000000E+00 0.  1.
         13    1    4    4    0    0  0.42460838001E+02 -0.44087936077E+02  0.11133152786E+03  0.12704872281E+03  0.00000000000E+00 0. -1.
          1    1    1    2  501    0  0.23027654107E+02 -0.84933330449E+01  0.18845574453E+02  0.30944550996E+02  0.00000000000E+00 0. -1.
<scales pt_clust_5="13000.00000" pt_clust_6="13000.00000" pt_clust_7="13000.00000" pt_clust_8="13000.00000" pt_clust_9="24.54403"></scales>
<clustering>
<clus scale="   24.544">  2  9  1 -1</clus>
<clus scale="   91.587">  5  6 -1 -1</clus>
<clus scale="   98.607">  7  8 -1 -1</clus>
<clus scale="  155.974">  1  5  2 -1</clus>
<clus scale="   24.544">  2  5  1 -1</clus>
</clustering>
</event>
<event>
 9    1  0.1445593E-005  0.1732599E+03  0.7546771E-02  0.1174581E+00
         -1   -1    0    0    0  501 -0.00000000000E+00  0.00000000000E+00  0.42250943815E+03  0.42250943815E+03  0.00000000000E+00 0.  1.
         21   -1    0    0  501  502  0.00000000000E+00 -0.00000000000E+00 -0.21251204521E+03  0.21251204521E+03  0.00000000000E+00 0. -1.
         23    2    1    2    0    0  0.72030961833E+02 -0.11514510099E+03  0.20544612288E+03  0.26101976601E+03  0.86465918691E+02 0.  0.
         23    2    1    2    0    0 -0.15521534771E+03  0.11182805563E+03  0.11231027776E+03  0.23783032320E+03  0.85745821764E+02 0.  0.
        -13    1    4    4    0    0 -0.11677774670E+03  0.64591561723E+02  0.11599976113E+03  0.17681927653E+03  0.00000000000E+00 0.  1.
         13    1    4    4    0    0 -0.38437601013E+02  0.47236493903E+02 -0.36894833689E+01  0.61011046667E+02  0.00000000000E+00 0. -1.
        -13    1    3    3    0    0  0.42990736984E+02 -0.31095682365E+02  0.14253810045E+03  0.15209291571E+03  0.00000000000E+00 0. -1.
         13    1    3    3    0    0  0.29040224849E+02 -0.84049418621E+02  0.62908022431E+02  0.10892685030E+03  0.00000000000E+00 0.  1.
         -1    1    1    2    0  502  0.83184385879E+02  0.33170453610E+01 -0.10775900770E+03  0.13617139415E+03  0.00000000000E+00 0.  1.
<scales pt_clust_5="13000.00000" pt_clust_6="13000.00000" pt_clust_7="13000.00000" pt_clust_8="13000.00000" pt_clust_9="83.25049"></scales>
<clustering>
<clus scale="   83.250">  2  9  1 -1</clus>
<clus scale="   85.746">  5  6 -1 -1</clus>
<clus scale="   86.466">  7  8 -1 -1</clus>
<clus scale="  172.902">  2  5  1 -1</clus>
<clus scale="   83.250">  2  5  1 -1</clus>
</clustering>
</event>
<event>
 9    1  0.1445593E-005  0.2695850E+03  0.7546771E-02  0.1101577E+00
         21   -1    0    0  501  502  0.00000000000E+00  0.00000000000E+00  0.16116601827E+03  0.16116601827E+03  0.00000000000E+00 0.  1.
         -1   -1    0    0    0  501 -0.00000000000E+00 -0.00000000000E+00 -0.92990447745E+03  0.92990447745E+03  0.00000000000E+00 0.  1.
         23    2    1    2    0    0 -0.15345451496E+02  0.23930164203E+03 -0.60579023459E+03  0.65779060014E+03  0.90586458986E+02 0.  0.
         23    2    1    2    0    0  0.20022988588E+02 -0.31281876821E+03 -0.11978750740E+03  0.34790135786E+03  0.91813975260E+02 0.  0.
        -11    1    4    4    0    0 -0.98897527147E+00 -0.17992715092E+03 -0.11446552793E+03  0.21325363958E+03  0.00000000000E+00 0. -1.
         11    1    4    4    0    0  0.21011963859E+02 -0.13289161730E+03 -0.53219794714E+01  0.13464771828E+03  0.00000000000E+00 0.  1.
        -11    1    3    3    0    0  0.37150613078E+02  0.75441506599E+02 -0.21047739700E+03  0.22665463512E+03  0.00000000000E+00 0.  1.
         11    1    3    3    0    0 -0.52496064574E+02  0.16386013543E+03 -0.39531283758E+03  0.43113596502E+03  0.00000000000E+00 0. -1.
         -1    1    1    2    0  502 -0.46775370915E+01  0.73517126183E+02 -0.43160717184E+02  0.85378537720E+02  0.00000000000E+00 0.  1.
<scales pt_clust_5="13000.00000" pt_clust_6="13000.00000" pt_clust_7="13000.00000" pt_clust_8="13000.00000" pt_clust_9="73.66578"></scales>
<clustering>
<clus scale="   73.666">  1  9  2 -1</clus>
<clus scale="   90.586">  7  8 -1 -1</clus>
<clus scale="   91.814">  5  6 -1 -1</clus>
<clus scale="  269.169">  2  7  1 -1</clus>
<clus scale="   73.666">  1  5  2 -1</clus>
</clustering>
</event>
<event>
 9    1  0.1445593E-005  0.1025833E+03  0.7546771E-02  0.1275419E+00
          1   -1    0    0  502    0 -0.00000000000E+00  0.00000000000E+00  0.43793309301E+03  0.43793309301E+03  0.00000000000E+00 0. -1.
         21   -1    0    0  501  502  0.00000000000E+00 -0.00000000000E+00 -0.34299977576E+02  0.34299977576E+02  0.00000000000E+00 0. -1.
         23    2    1    2    0    0  0.26864178862E+02  0.38131225929E+02  0.17140437154E+03  0.19978073677E+03  0.91417775650E+02 0.  0.
         23    2    1    2    0    0  0.72969587752E+01 -0.52897327705E+02  0.17864053182E+03  0.20720880878E+03  0.90397333695E+02 0.  0.
        -11    1    3    3    0    0  0.58026785187E+02  0.40673584481E+02  0.10950621577E+03  0.13043411964E+03  0.00000000000E+00 0. -1.
         11    1    3    3    0    0 -0.31162606324E+02 -0.25423585513E+01  0.61898155772E+02  0.69346617134E+02  0.00000000000E+00 0.  1.
        -11    1    4    4    0    0 -0.94064216076E+01 -0.72056084990E+02  0.15987360489E+03  0.17561358060E+03  0.00000000000E+00 0. -1.
         11    1    4    4    0    0  0.16703380383E+02  0.19158757285E+02  0.18766926933E+02  0.31595228175E+02  0.00000000000E+00 0.  1.
          1    1    1    2  501    0 -0.34161137638E+02  0.14766101776E+02  0.53588212067E+02  0.65243525034E+02  0.00000000000E+00 0. -1.
<scales pt_clust_5="13000.00000" pt_clust_6="13000.00000" pt_clust_7="13000.00000" pt_clust_8="13000.00000" pt_clust_9="37.21587"></scales>
<clustering>
<clus scale="   37.216">  2  9  1 -1</clus>
<clus scale="   90.397">  7  8 -1 -1</clus>
<clus scale="   91.418">  5  6 -1 -1</clus>
<clus scale="  101.675">  2  7  1 -1</clus>
<clus scale="   37.216">  2  5  1 -1</clus>
</clustering>
</event>
<event>
 9    1  0.1445593E-005  0.1546340E+03  0.7546771E-02  0.1195112E+00
         -3   -1    0    0    0  501 -0.00000000000E+00  0.00000000000E+00  0.56450044110E+02  0.56450044110E+02  0.00000000000E+00 0.  1.
         21   -1    0    0  501  502  0.00000000000E+00 -0.00000000000E+00 -0.53957217502E+03  0.53957217502E+03  0.00000000000E+00 0. -1.
         23    2    1    2    0    0 -0.10809087095E+03  0.48738915298E+02 -0.19602367089E+03  0.24708955069E+03  0.92568073680E+02 0.  0.
         23    2    1    2    0    0  0.13107667557E+03 -0.19382935832E+02 -0.22848296421E+03  0.27946399137E+03  0.91317383105E+02 0.  0.
        -13    1    3    3    0    0 -0.61951201580E+02 -0.20365029922E+02 -0.65996766256E+02  0.92780703690E+02  0.00000000000E+00 0.  1.
         13    1    3    3    0    0 -0.46139669367E+02  0.69103945219E+02 -0.13002690463E+03  0.15430884700E+03  0.00000000000E+00 0. -1.
        -13    1    4    4    0    0  0.87787489635E+02 -0.18185534275E+02 -0.21680726641E+03  0.23461190882E+03  0.00000000000E+00 0. -1.
         13    1    4    4    0    0  0.43289185939E+02 -0.11974015568E+01 -0.11675697801E+02  0.44852082548E+02  0.00000000000E+00 0.  1.
         -3    1    1    2    0  502 -0.22985804627E+02 -0.29355979466E+02 -0.58615495819E+02  0.69468677077E+02  0.00000000000E+00 0.  1.
<scales pt_clust_5="13000.00000" pt_clust_6="13000.00000" pt_clust_7="13000.00000" pt_clust_8="13000.00000" pt_clust_9="37.28432"></scales>
<clustering>
<clus scale="   37.284">  2  9  1 -1</clus>
<clus scale="   91.317">  7  8 -1 -1</clus>
<clus scale="   92.568">  5  6 -1 -1</clus>
<clus scale="  153.889">  2  7  1 -1</clus>
<clus scale="   37.284">  2  5  1 -1</clus>
</clustering>
</event>
<event>
 9    1  0.1445593E-005  0.9653895E+02  0.7546771E-02  0.1288888E+00
          2   -1    0    0  502    0 -0.00000000000E+00  0.00000000000E+00  0.58086140817E+03  0.58086140817E+03  0.00000000000E+00 0. -1.
         21   -1    0    0  501  502  0.00000000000E+00 -0.00000000000E+00 -0.42997962622E+02  0.42997962622E+02  0.00000000000E+00 0. -1.
         23    2    1    2    0    0  0.22416131819E+01 -0.33637120000E+02  0.31648800988E+03  0.33144291904E+03  0.92483877058E+02 0.  0.
         23    2    1    2    0    0 -0.97073699062E+01 -0.63152015473E+00  0.26845442122E+02  0.94750077240E+02  0.90345268421E+02 0.  0.
        -13    1    4    4    0    0 -0.92291560489E+01  0.31343566133E+02  0.46784331730E+02  0.57064613857E+02  0.00000000000E+00 0.  1.
         13    1    4    4    0    0 -0.47821385723E+00 -0.31975086288E+02 -0.19938889607E+02  0.37685463383E+02  0.00000000000E+00 0. -1.
        -13    1    3    3    0    0  0.22460743307E+02  0.24480400351E+02  0.71444908851E+02  0.78791814245E+02  0.00000000000E+00 0.  1.
         13    1    3    3    0    0 -0.20219130126E+02 -0.58117520351E+02  0.24504310102E+03  0.25265110480E+03  0.00000000000E+00 0. -1.
          2    1    1    2  501    0  0.74657567242E+01  0.34268640155E+02  0.19452999355E+03  0.19766637451E+03  0.00000000000E+00 0. -1.
<scales pt_clust_5="13000.00000" pt_clust_6="13000.00000" pt_clust_7="13000.00000" pt_clust_8="13000.00000" pt_clust_9="35.07247"></scales>
<clustering>
<clus scale="   35.072">  2  9  1 -1</clus>
<clus scale="   90.345">  5  6 -1 -1</clus>
<clus scale="   92.484">  7  8 -1 -1</clus>
<clus scale="   94.492">  2  5  1 -1</clus>
<clus scale="   35.072">  2  5  1 -1</clus>
</clustering>
</event>
<event>
 9    1  0.1445593E-005  0.9923922E+02  0.7546771E-02  0.1282660E+00
         -3   -1    0    0    0  501 -0.00000000000E+00  0.00000000000E+00  0.31323356692E+02  0.31323356692E+02  0.00000000000E+00 0.  1.
         21   -1    0    0  501  502  0.00000000000E+00 -0.00000000000E+00 -0.53372309506E+03  0.53372309506E+03  0.00000000000E+00 0. -1.
         23    2    1    2    0    0 -0.25346913063E+02  0.34243327359E+02 -0.91482397251E+02  0.13577763387E+03  0.90837576927E+02 0.  0.
         23    2    1    2    0    0  0.18742829174E+02 -0.68218024786E+01 -0.34176740047E+03  0.35458770754E+03  0.92356135034E+02 0.  0.
        -11    1    3    3    0    0  0.15050284652E+02  0.49576334019E+02 -0.27737182613E+02  0.58767978204E+02  0.00000000000E+00 0.  1.
         11    1    3    3    0    0 -0.40397197715E+02 -0.15333006660E+02 -0.63745214638E+02  0.77009655665E+02  0.00000000000E+00 0. -1.
        -13    1    4    4    0    0  0.43256890337E+02  0.27759180069E+02 -0.16562742885E+03  0.17341907573E+03  0.00000000000E+00 0.  1.
         13    1    4    4    0    0 -0.24514061163E+02 -0.34580982548E+02 -0.17613997162E+03  0.18116863181E+03  0.00000000000E+00 0. -1.
         -3    1    1    2    0  502  0.66040838891E+01 -0.27421524880E+02 -0.69149940649E+02  0.74681110346E+02  0.00000000000E+00 0.  1.
<scales pt_clust_5="13000.00000" pt_clust_6="13000.00000" pt_clust_7="13000.00000" pt_clust_8="13000.00000" pt_clust_9="28.20557"></scales>
<clustering>
<clus scale="   28.206">  2  9  1 -1</clus>
<clus scale="   90.838">  5  6 -1 -1</clus>
<clus scale="   92.356">  7  8 -1 -1</clus>
<clus scale="   97.828">  1  5  2 -1</clus>
<clus scale="   28.206">  2  5  1 -1</clus>
</clustering>
</event>
<event>
 9    1  0.1445593E-005  0.1021283E+03  0.7546771E-02  0.1276446E+00
         21   -1    0    0  501  502  0.00000000000E+00  0.00000000000E+00  0.72104410239E+02  0.72104410239E+02  0.00000000000E+00 0. -1.
          2   -1    0    0  502    0 -0.00000000000E+00 -0.00000000000E+00 -0.45057654568E+03  0.45057654568E+03  0.00000000000E+00 0.  1.
         23    2    1    2    0    0 -0.23041632663E+02  0.19594160242E+02 -0.21142560186E+03  0.23234309867E+03  0.91475037184E+02 0.  0.
         23    2    1    2    0    0  0.37301047697E+02 -0.55908573152E+02 -0.20630033741E+03  0.23499412574E+03  0.90251167324E+02 0.  0.
        -13    1    3    3    0    0  0.69946189723E+01  0.51127354818E+02 -0.13260420345E+03  0.14229127126E+03  0.00000000000E+00 0.  1.
         13    1    3    3    0    0 -0.30036251635E+02 -0.31533194576E+02 -0.78821398413E+02  0.90051827412E+02  0.00000000000E+00 0. -1.
        -13    1    4    4    0    0  0.20975565168E+02  0.12824779932E+02 -0.12452726114E+03  0.12693103671E+03  0.00000000000E+00 0.  1.
         13    1    4    4    0    0  0.16325482530E+02 -0.68733353084E+02 -0.81773076271E+02  0.10806308902E+03  0.00000000000E+00 0. -1.
          2    1    1    2  501    0 -0.14259415035E+02  0.36314412910E+02  0.39253803831E+02  0.55343731509E+02  0.00000000000E+00 0.  1.
<scales pt_clust_5="13000.00000" pt_clust_6="13000.00000" pt_clust_7="13000.00000" pt_clust_8="13000.00000" pt_clust_9="39.01368"></scales>
<clustering>
<clus scale="   39.014">  1  9  2 -1</clus>
<clus scale="   90.251">  7  8 -1 -1</clus>
<clus scale="   91.475">  5  6 -1 -1</clus>
<clus scale="  101.034">  1  7  2 -1</clus>
<clus scale="   39.014">  1  5  2 -1</clus>
</clustering>
</event>
<event>
 9    1  0.1445593E-005  0.9036090E+02  0.7546771E-02  0.1303408E+00
         21   -1    0    0  501  502  0.00000000000E+00  0.00000000000E+00  0.42242376020E+02  0.42242376020E+02  0.00000000000E+00 0.  1.
         -3   -1    0    0    0  501 -0.00000000000E+00 -0.00000000000E+00 -0.60309517849E+03  0.60309517849E+03  0.00000000000E+00 0.  1.
         23    2    1    2    0    0 -0.73641303191E+01 -0.26882646413E+02 -0.30043820328E+03  0.31428621802E+03  0.87953429452E+02 0.  0.
         23    2    1    2    0    0 -0.14521101683E+02 -0.27897238340E+02 -0.25437742440E+03  0.27175338852E+03  0.90293476115E+02 0.  0.
        -11    1    4    4    0    0 -0.13933829241E+02 -0.60956468809E+02 -0.16367949660E+03  0.17521649550E+03  0.00000000000E+00 0.  1.
         11    1    4    4    0    0 -0.58727244190E+00  0.33059230469E+02 -0.90697927797E+02  0.96536893025E+02  0.00000000000E+00 0. -1.
        -13    1    3    3    0    0 -0.18803226051E+02 -0.54961978777E+02 -0.23640714814E+03  0.24343935613E+03  0.00000000000E+00 0.  1.
         13    1    3    3    0    0  0.11439095732E+02  0.28079332363E+02 -0.64031055141E+02  0.70846861889E+02  0.00000000000E+00 0. -1.
         -3    1    1    2    0  502  0.21885232002E+02  0.54779884754E+02 -0.60371747878E+01  0.59297947965E+02  0.00000000000E+00 0.  1.
<scales pt_clust_5="13000.00000" pt_clust_6="13000.00000" pt_clust_7="13000.00000" pt_clust_8="13000.00000" pt_clust_9="58.98982"></scales>
<clustering>
<clus scale="   58.990">  1  9  2 -1</clus>
<clus scale="   87.953">  7  8 -1 -1</clus>
<clus scale="   88.023">  2  7  1 -1</clus>
<clus scale="   90.293">  5  6 -1 -1</clus>
<clus scale="   58.990">  1  5  2 -1</clus>
</clustering>
</event>
<event>
 9    1  0.1445593E-005  0.1362493E+03  0.7546771E-02  0.1222762E+00
         21   -1    0    0  501  502  0.00000000000E+00  0.00000000000E+00  0.12381164792E+03  0.12381164792E+03  0.00000000000E+00 0.  1.
          1   -1    0    0  502    0 -0.00000000000E+00 -0.00000000000E+00 -0.17113728381E+03  0.17113728381E+03  0.00000000000E+00 0. -1.
         23    2    1    2    0    0  0.30142022597E+02  0.94673430740E+02 -0.47779851604E+02  0.15042765772E+03  0.10234239578E+03 0.  0.
         23    2    1    2    0    0 -0.26960502646E+02 -0.72895907107E+02  0.16674304809E+02  0.11718130519E+03  0.86097293047E+02 0.  0.
        -11    1    4    4    0    0  0.29059287519E+02 -0.17690181474E+02  0.18063738063E+02  0.38518610366E+02  0.00000000000E+00 0.  1.
         11    1    4    4    0    0 -0.56019790165E+02 -0.55205725633E+02 -0.13894332537E+01  0.78662694827E+02  0.00000000000E+00 0. -1.
        -11    1    3    3    0    0 -0.46211669902E+01 -0.19479733870E+02 -0.19166788481E+02  0.27716078306E+02  0.00000000000E+00 0.  1.
         11    1    3    3    0    0  0.34763189588E+02  0.11415316461E+03 -0.28613063123E+02  0.12271157941E+03  0.00000000000E+00 0. -1.
          1    1    1    2  501    0 -0.31815199516E+01 -0.21777523633E+02 -0.16220089093E+02  0.27339968818E+02  0.00000000000E+00 0. -1.
<scales pt_clust_5="13000.00000" pt_clust_6="13000.00000" pt_clust_7="13000.00000" pt_clust_8="13000.00000" pt_clust_9="22.00870"></scales>
<clustering>
<clus scale="   22.009">  1  9  2 -1</clus>
<clus scale="   86.097">  5  6 -1 -1</clus>
<clus scale="  102.342">  7  8 -1 -1</clus>
<clus scale="  124.510">  1  5  2 -1</clus>
<clus scale="   22.009">  1  5  2 -1</clus>
</clustering>
</event>
<event>
 9    1  0.1445593E-005  0.1298841E+03  0.7546771E-02  0.1235051E+00
         21   -1    0    0  501  502  0.00000000000E+00  0.00000000000E+00  0.67733173551E+02  0.67733173551E+02  0.00000000000E+00 0.  1.
          2   -1    0    0  502    0 -0.00000000000E+00 -0.00000000000E+00 -0.59200581897E+03  0.59200581897E+03  0.00000000000E+00 0. -1.
         23    2    1    2    0    0 -0.41138567979E+02  0.42107854191E+02 -0.45021025312E+03  0.46337796413E+03  0.92544110903E+02 0.  0.
         23    2    1    2    0    0  0.60296319710E+02 -0.53951175610E+02 -0.92148443198E+02  0.16747523689E+03  0.11406245599E+03 0.  0.
        -13    1    3    3    0    0  0.20123005855E+02 -0.13889404437E+02 -0.14671126304E+03  0.14873481644E+03  0.00000000000E+00 0.  1.
         13    1    3    3    0    0 -0.61261573835E+02  0.55997258628E+02 -0.30349899009E+03  0.31464314769E+03  0.00000000000E+00 0. -1.
        -13    1    4    4    0    0  0.14627590829E+02  0.35949986373E+02 -0.29653176528E+02  0.48843411141E+02  0.00000000000E+00 0. -1.
         13    1    4    4    0    0  0.45668728882E+02 -0.89901161983E+02 -0.62495266670E+02  0.11863182575E+03  0.00000000000E+00 0.  1.
          2    1    1    2  501    0 -0.19157751731E+02  0.11843321420E+02  0.18086050902E+02  0.28885791505E+02  0.00000000000E+00 0. -1.
<scales pt_clust_5="13000.00000" pt_clust_6="13000.00000" pt_clust_7="13000.00000" pt_clust_8="13000.00000" pt_clust_9="22.52296"></scales>
<clustering>
<clus scale="   22.523">  1  9  2 -1</clus>
<clus scale="   92.544">  5  6 -1 -1</clus>
<clus scale="  111.463">  2  5  1 -1</clus>
<clus scale="  114.062">  7  8 -1 -1</clus>
<clus scale="   22.523">  1  5  2 -1</clus>
</clustering>
</event>
<event>
 9    1  0.4476141E-005  0.1919580E+03  0.7546771E-02  0.1185195E+00
          3   -1    0    0  502    0 -0.00000000000E+00  0.00000000000E+00  0.11025208457E+03  0.11025208457E+03  0.00000000000E+00 0. -1.
         21   -1    0    0  501  502  0.00000000000E+00 -0.00000000000E+00 -0.90901532219E+03  0.90901532219E+03  0.00000000000E+00 0. -1.
         23    2    1    2    0    0  0.27817988485E+02  0.30299870544E+02 -0.33301389852E+03  0.34774692678E+03  0.91311257982E+02 0.  0.
         23    2    1    2    0    0  0.63615936993E+00 -0.18837366142E+03 -0.40301540459E+02  0.21676473097E+03  0.99386585666E+02 0.  0.
        -11    1    3    3    0    0 -0.43717618941E+01  0.50716103210E+02 -0.10640570083E+03  0.11795511263E+03  0.00000000000E+00 0.  1.
         11    1    3    3    0    0  0.32189750379E+02 -0.20416232666E+02 -0.22660819770E+03  0.22979181415E+03  0.00000000000E+00 0. -1.
        -11    1    4    4    0    0 -0.27904935126E+01 -0.30910678103E+02 -0.50127994349E+02  0.58958228368E+02  0.00000000000E+00 0.  1.
         11    1    4    4    0    0  0.34266528826E+01 -0.15746298332E+03  0.98264538893E+01  0.15780650260E+03  0.00000000000E+00 0. -1.
          3    1    1    2  501    0 -0.28454147855E+02  0.15807379088E+03 -0.42544779864E+03  0.45475574901E+03  0.00000000000E+00 0. -1.
<scales pt_clust_5="13000.00000" pt_clust_6="13000.00000" pt_clust_7="13000.00000" pt_clust_8="13000.00000" pt_clust_9="164.22599"></scales>
<clustering>
<clus scale="   91.311">  5  6 -1 -1</clus>
<clus scale="   99.387">  7  8 -1 -1</clus>
<clus scale="  100.148">  1  5  2 -1</clus>
<clus scale="  164.226">  2  9  1 -1</clus>
<clus scale="  164.226">  2  5  1 -1</clus>
</clustering>
</event>
<event>
 9    1  0.1445593E-005  0.1289688E+03  0.7546771E-02  0.1229601E+00
          3   -1    0    0  502    0 -0.00000000000E+00  0.00000000000E+00  0.16075473409E+03  0.16075473409E+03  0.00000000000E+00 0. -1.
         21   -1    0    0  501  502  0.00000000000E+00 -0.00000000000E+00 -0.36899220722E+03  0.36899220722E+03  0.00000000000E+00 0. -1.
         23    2    1    2    0    0 -0.45583605845E+02  0.85055898593E+02  0.10979275021E+03  0.17335502854E+03  0.93194135620E+02 0.  0.
         23    2    1    2    0    0  0.38357844571E+02 -0.28901153895E+02 -0.18208920174E+03  0.20913184237E+03  0.90956303625E+02 0.  0.
        -13    1    4    4    0    0  0.46288755874E+02  0.21303404014E+02 -0.10623271478E+03  0.11782136323E+03  0.00000000000E+00 0.  1.
         13    1    4    4    0    0 -0.79309113023E+01 -0.50204557909E+02 -0.75856486954E+02  0.91310479146E+02  0.00000000000E+00 0. -1.
        -13    1    3    3    0    0  0.16285410472E+02  0.17611656637E+02 -0.69867900402E+01  0.24984000456E+02  0.00000000000E+00 0.  1.
         13    1    3    3    0    0 -0.61869016317E+02  0.67444241956E+02  0.11677954025E+03  0.14837102809E+03  0.00000000000E+00 0. -1.
          3    1    1    2  501    0  0.72257612731E+01 -0.56154744698E+02 -0.13594102161E+03  0.14726007040E+03  0.00000000000E+00 0. -1.
<scales pt_clust_5="13000.00000" pt_clust_6="13000.00000" pt_clust_7="13000.00000" pt_clust_8="13000.00000" pt_clust_9="56.61773"></scales>
<clustering>
<clus scale="   56.618">  2  9  1 -1</clus>
<clus scale="   90.956">  5  6 -1 -1</clus>
<clus scale="   93.194">  7  8 -1 -1</clus>
<clus scale="  127.361">  2  5  1 -1</clus>
<clus scale="   56.618">  2  5  1 -1</clus>
</clustering>
</event>
<event>
 9    1  0.1445593E-005  0.1026532E+03  0.7546771E-02  0.1276511E+00
         21   -1    0    0  501  502  0.00000000000E+00  0.00000000000E+00  0.22977376405E+03  0.22977376405E+03  0.00000000000E+00 0. -1.
          2   -1    0    0  502    0 -0.00000000000E+00 -0.00000000000E+00 -0.14217030113E+03  0.14217030113E+03  0.00000000000E+00 0. -1.
         23    2    1    2    0    0 -0.23726768896E+02  0.36583819563E+02 -0.78275385436E+02  0.12787501204E+03  0.91234025025E+02 0.  0.
         23    2    1    2    0    0  0.52834606047E+02 -0.32334995185E+02  0.39431334004E+02  0.11424496995E+03  0.87521629023E+02 0.  0.
        -11    1    3    3    0    0 -0.32774216801E+02  0.70362466123E+01 -0.89048860245E+02  0.95149133281E+02  0.00000000000E+00 0. -1.
         11    1    3    3    0    0  0.90474479046E+01  0.29547572951E+02  0.10773474809E+02  0.32725878756E+02  0.00000000000E+00 0.  1.
        -11    1    4    4    0    0  0.37023519007E+02  0.12990418933E+02  0.51503333810E+02  0.64746315241E+02  0.00000000000E+00 0.  1.
         11    1    4    4    0    0  0.15811087040E+02 -0.45325414117E+02 -0.12071999806E+02  0.49498654705E+02  0.00000000000E+00 0. -1.
          2    1    1    2  501    0 -0.29107837151E+02 -0.42488243788E+01  0.12644751435E+03  0.12982408320E+03  0.00000000000E+00 0. -1.
<scales pt_clust_5="13000.00000" pt_clust_6="13000.00000" pt_clust_7="13000.00000" pt_clust_8="13000.00000" pt_clust_9="29.41630"></scales>
<clustering>
<clus scale="   29.416">  1  9  2 -1</clus>
<clus scale="   87.522">  7  8 -1 -1</clus>
<clus scale="   91.234">  5  6 -1 -1</clus>
<clus scale="   99.368">  1  7  2 -1</clus>
<clus scale="   29.416">  1  5  2 -1</clus>
</clustering>
</event>
<event>
 9    1  0.1445593E-005  0.9518664E+02  0.7546771E-02  0.1291317E+00
          1   -1    0    0  502    0 -0.00000000000E+00  0.00000000000E+00  0.51913342257E+03  0.51913342257E+03  0.00000000000E+00 0. -1.
         21   -1    0    0  501  502  0.00000000000E+00 -0.00000000000E+00 -0.43601533500E+02  0.43601533500E+02  0.00000000000E+00 0. -1.
         23    2    1    2    0    0 -0.20762657111E+02  0.18321243285E+02  0.30765281298E+03  0.32256887652E+03  0.92917548816E+02 0.  0.
         23    2    1    2    0    0  0.95280909350E+00 -0.13430123768E+02  0.18912909264E+03  0.21070565980E+03  0.91900953859E+02 0.  0.
        -13    1    4    4    0    0  0.39706069412E+02 -0.10782202961E+02  0.43046078795E+02  0.59546559501E+02  0.00000000000E+00 0.  1.
         13    1    4    4    0    0 -0.38753260318E+02 -0.26479208074E+01  0.14608301384E+03  0.15115910030E+03  0.00000000000E+00 0. -1.
        -13    1    3    3    0    0 -0.18718370245E+02 -0.30025555111E+02  0.55531069919E+02  0.65845357245E+02  0.00000000000E+00 0.  1.
         13    1    3    3    0    0 -0.20442868658E+01  0.48346798397E+02  0.25212174306E+03  0.25672351927E+03  0.00000000000E+00 0. -1.
          1    1    1    2  501    0  0.19809848017E+02 -0.48911195172E+01 -0.21250016549E+02  0.29460419751E+02  0.00000000000E+00 0. -1.
<scales pt_clust_5="13000.00000" pt_clust_6="13000.00000" pt_clust_7="13000.00000" pt_clust_8="13000.00000" pt_clust_9="20.40473"></scales>
<clustering>
<clus scale="   20.405">  2  9  1 -1</clus>
<clus scale="   91.901">  5  6 -1 -1</clus>
<clus scale="   92.918">  7  8 -1 -1</clus>
<clus scale="   94.195">  2  5  1 -1</clus>
<clus scale="   20.405">  2  5  1 -1</clus>
</clustering>
</event>
<event>
 9    1  0.1445593E-005  0.9829175E+02  0.7546771E-02  0.1284225E+00
         21   -1    0    0  501  502  0.00000000000E+00  0.00000000000E+00  0.46600971204E+03  0.46600971204E+03  0.00000000000E+00 0.  1.
         -2   -1    0    0    0  501 -0.00000000000E+00 -0.00000000000E+00 -0.47280971939E+02  0.47280971939E+02  0.00000000000E+00 0.  1.
         23    2    1    2    0    0 -0.32642957897E+02  0.18305378951E+02  0.48727218284E+02  0.10996115826E+03  0.91194654042E+02 0.  0.
         23    2    1    2    0    0 -0.15027635844E+01 -0.56635490772E+02  0.28029245454E+03  0.29997167880E+03  0.90605247618E+02 0.  0.
        -11    1    4    4    0    0  0.43602992557E+02 -0.32086423692E+02  0.11981420127E+03  0.13147700321E+03  0.00000000000E+00 0.  1.
         11    1    4    4    0    0 -0.45105756141E+02 -0.24549067080E+02  0.16047825327E+03  0.16849467559E+03  0.00000000000E+00 0. -1.
        -11    1    3    3    0    0  0.30361588158E+02 -0.44862456804E+01  0.86401111875E+01  0.31884227403E+02  0.00000000000E+00 0. -1.
         11    1    3    3    0    0 -0.63004546055E+02  0.22791624631E+02  0.40087107097E+02  0.78076930859E+02  0.00000000000E+00 0.  1.
         -2    1    1    2    0  502  0.34145721481E+02  0.38330111822E+02  0.89709067277E+02  0.10335784692E+03  0.00000000000E+00 0.  1.
<scales pt_clust_5="13000.00000" pt_clust_6="13000.00000" pt_clust_7="13000.00000" pt_clust_8="13000.00000" pt_clust_9="51.33350"></scales>
<clustering>
<clus scale="   51.333">  1  9  2 -1</clus>
<clus scale="   90.605">  5  6 -1 -1</clus>
<clus scale="   91.195">  7  8 -1 -1</clus>
<clus scale="   97.745">  1  5  2 -1</clus>
<clus scale="   51.333">  1  5  2 -1</clus>
</clustering>
</event>
<event>
 9    1  0.1445593E-005  0.1092726E+03  0.7546771E-02  0.1267241E+00
         21   -1    0    0  501  502  0.00000000000E+00  0.00000000000E+00  0.55929950184E+02  0.55929950184E+02  0.00000000000E+00 0.  1.
          2   -1    0    0  502    0 -0.00000000000E+00 -0.00000000000E+00 -0.39555283200E+03  0.39555283200E+03  0.00000000000E+00 0. -1.
         23    2    1    2    0    0  0.44119918019E+02  0.33440712831E+02 -0.23203269265E+03  0.25693781016E+03  0.95462135888E+02 0.  0.
         23    2    1    2    0    0 -0.62966987634E+02  0.16174639418E+02 -0.90178939014E+02  0.13868759253E+03  0.82918916955E+02 0.  0.
        -13    1    3    3    0    0  0.32769582773E+02  0.54065588841E+02 -0.22289048910E+03  0.23168319659E+03  0.00000000000E+00 0.  1.
         13    1    3    3    0    0  0.11350335246E+02 -0.20624876010E+02 -0.91422035549E+01  0.25254613568E+02  0.00000000000E+00 0. -1.
        -13    1    4    4    0    0 -0.20457407476E+02  0.91794166996E+01  0.13667401546E+02  0.26259571143E+02  0.00000000000E+00 0.  1.
         13    1    4    4    0    0 -0.42509580158E+02  0.69952227180E+01 -0.10384634056E+03  0.11242802139E+03  0.00000000000E+00 0. -1.
          2    1    1    2  501    0  0.18847069615E+02 -0.49615352249E+02 -0.17411250146E+02  0.55857379490E+02  0.00000000000E+00 0. -1.
<scales pt_clust_5="13000.00000" pt_clust_6="13000.00000" pt_clust_7="13000.00000" pt_clust_8="13000.00000" pt_clust_9="53.07443"></scales>
<clustering>
<clus scale="   53.074">  1  9  2 -1</clus>
<clus scale="   82.919">  7  8 -1 -1</clus>
<clus scale="   95.462">  5  6 -1 -1</clus>
<clus scale="   98.504">  1  7  2 -1</clus>
<clus scale="   53.074">  1  5  2 -1</clus>
</clustering>
</event>
<event>
 9    1  0.1445593E-005  0.9802040E+02  0.7546771E-02  0.1285136E+00
         21   -1    0    0  501  502  0.00000000000E+00  0.00000000000E+00  0.17835481497E+03  0.17835481497E+03  0.00000000000E+00 0. -1.
          4   -1    0    0  502    0 -0.00000000000E+00 -0.00000000000E+00 -0.17669686617E+03  0.17669686617E+03  0.00000000000E+00 0. -1.
         23    2    1    2    0    0  0.63182457285E+00 -0.28080446401E+02 -0.12113802023E+03  0.15570529424E+03  0.93705965847E+02 0.  0.
         23    2    1    2    0    0  0.48033247016E+02  0.28865861321E+02  0.89337072415E+02  0.14028367588E+03  0.92509277603E+02 0.  0.
        -11    1    4    4    0    0  0.15554292430E+02 -0.24348444959E+02  0.68840404052E+02  0.74657779333E+02  0.00000000000E+00 0. -1.
         11    1    4    4    0    0  0.32478954586E+02  0.53214306280E+02  0.20496668363E+02  0.65625896549E+02  0.00000000000E+00 0.  1.
        -13    1    3    3    0    0  0.35091010358E+02 -0.74763994523E+01 -0.95699929957E+01  0.37133008533E+02  0.00000000000E+00 0. -1.
         13    1    3    3    0    0 -0.34459185785E+02 -0.20604046948E+02 -0.11156802724E+03  0.11857228571E+03  0.00000000000E+00 0.  1.
          4    1    1    2  501    0 -0.48665071588E+02 -0.78541492049E+00  0.33458896624E+02  0.59062711016E+02  0.00000000000E+00 0. -1.
<scales pt_clust_5="13000.00000" pt_clust_6="13000.00000" pt_clust_7="13000.00000" pt_clust_8="13000.00000" pt_clust_9="48.67141"></scales>
<clustering>
<clus scale="   48.671">  1  9  2 -1</clus>
<clus scale="   92.509">  5  6 -1 -1</clus>
<clus scale="   93.706">  7  8 -1 -1</clus>
<clus scale="   96.877">  1  5  2 -1</clus>
<clus scale="   48.671">  1  5  2 -1</clus>
</clustering>
</event>
<event>
 9    1  0.2671347E-005  0.2555089E+03  0.7546771E-02  0.1109968E+00
          2   -1    0    0  502    0 -0.00000000000E+00  0.00000000000E+00  0.15770656311E+04  0.15770656311E+04  0.00000000000E+00 0. -1.
         21   -1    0    0  501  502  0.00000000000E+00 -0.00000000000E+00 -0.13825584399E+03  0.13825584399E+03  0.00000000000E+00 0. -1.
         23    2    1    2    0    0 -0.22676990063E+02  0.26938908414E+03  0.13491824820E+04  0.13790647275E+04  0.91877246000E+02 0.  0.
         23    2    1    2    0    0  0.12867902979E+02 -0.14308838845E+03  0.11778740343E+03  0.20648357986E+03  0.90120621986E+02 0.  0.
        -11    1    4    4    0    0 -0.30377708529E+02 -0.46564788007E+02  0.11973576647E+02  0.56872235716E+02  0.00000000000E+00 0.  1.
         11    1    4    4    0    0  0.43245611508E+02 -0.96523600446E+02  0.10581382678E+03  0.14961134414E+03  0.00000000000E+00 0. -1.
        -13    1    3    3    0    0 -0.35743123535E+02  0.54756104409E+02  0.21679084932E+03  0.22643779322E+03  0.00000000000E+00 0.  1.
         13    1    3    3    0    0  0.13066133472E+02  0.21463297973E+03  0.11323916327E+04  0.11526269343E+04  0.00000000000E+00 0. -1.
          2    1    1    2  501    0  0.98090870834E+01 -0.12630069569E+03 -0.28160098338E+02  0.12977316772E+03  0.00000000000E+00 0. -1.
<scales pt_clust_5="13000.00000" pt_clust_6="13000.00000" pt_clust_7="13000.00000" pt_clust_8="13000.00000" pt_clust_9="126.68103"></scales>
<clustering>
<clus scale="   90.121">  5  6 -1 -1</clus>
<clus scale="   91.877">  7  8 -1 -1</clus>
<clus scale="  126.681">  2  9  1 -1</clus>
<clus scale="  254.883">  2  5  1 -1</clus>
<clus scale="  126.681">  2  5  1 -1</clus>
</clustering>
</event>
<event>
 9    1  0.1445593E-005  0.1285944E+03  0.7546771E-02  0.1229906E+00
         21   -1    0    0  501  502  0.00000000000E+00  0.00000000000E+00  0.54593096576E+02  0.54593096576E+02  0.00000000000E+00 0. -1.
          2   -1    0    0  502    0 -0.00000000000E+00 -0.00000000000E+00 -0.65903218654E+03  0.65903218654E+03  0.00000000000E+00 0. -1.
         23    2    1    2    0    0 -0.71708923663E+02  0.72274650796E+02 -0.25608154964E+03  0.28981599574E+03  0.89720434881E+02 0.  0.
         23    2    1    2    0    0 -0.24146522394E+02 -0.10326038884E+03 -0.22003029538E+03  0.26066436930E+03  0.91031972914E+02 0.  0.
        -11    1    3    3    0    0 -0.34175088524E+02  0.64219143165E+01 -0.17657975079E+03  0.17997107003E+03  0.00000000000E+00 0.  1.
         11    1    3    3    0    0 -0.37533835139E+02  0.65852736480E+02 -0.79501798858E+02  0.10984492571E+03  0.00000000000E+00 0. -1.
        -13    1    4    4    0    0 -0.51349269732E+02 -0.90476069069E+02 -0.19706095317E+03  0.22283555785E+03  0.00000000000E+00 0. -1.
         13    1    4    4    0    0  0.27202747339E+02 -0.12784319771E+02 -0.22969342209E+02  0.37828811458E+02  0.00000000000E+00 0.  1.
          2    1    1    2  501    0  0.95855446056E+02  0.30985738044E+02 -0.12832724495E+03  0.16314491808E+03  0.00000000000E+00 0. -1.
<scales pt_clust_5="13000.00000" pt_clust_6="13000.00000" pt_clust_7="13000.00000" pt_clust_8="13000.00000" pt_clust_9="100.73918"></scales>
<clustering>
<clus scale="   89.720">  5  6 -1 -1</clus>
<clus scale="   91.032">  7  8 -1 -1</clus>
<clus scale="  100.739">  1  9  2 -1</clus>
<clus scale="  127.669">  2  5  1 -1</clus>
<clus scale="  100.739">  1  5  2 -1</clus>
</clustering>
</event>
<event>
 9    1  0.1445593E-005  0.1995340E+03  0.7546771E-02  0.1151395E+00
          2   -1    0    0  502    0 -0.00000000000E+00  0.00000000000E+00  0.14050121151E+04  0.14050121151E+04  0.00000000000E+00 0. -1.
         21   -1    0    0  501  502  0.00000000000E+00 -0.00000000000E+00 -0.47162037616E+02  0.47162037616E+02  0.00000000000E+00 0.  1.
         23    2    1    2    0    0  0.17522097834E+03 -0.20462814427E+02  0.10843226885E+04  0.11022969762E+04  0.90453374315E+02 0.  0.
         23    2    1    2    0    0 -0.15314911695E+03 -0.39971209683E+01  0.21956829923E+03  0.28665503742E+03  0.10242188951E+03 0.  0.
        -11    1    4    4    0    0 -0.12424400478E+03 -0.14563754532E+02  0.91620752954E+02  0.15505817631E+03  0.00000000000E+00 0.  1.
         11    1    4    4    0    0 -0.28905112172E+02  0.10566633564E+02  0.12794754628E+03  0.13159686111E+03  0.00000000000E+00 0. -1.
        -11    1    3    3    0    0  0.25777087825E+02  0.30827096449E+02  0.23142675860E+03  0.23488957561E+03  0.00000000000E+00 0. -1.
         11    1    3    3    0    0  0.14944389051E+03 -0.51289910877E+02  0.85289592987E+03  0.86740740057E+03  0.00000000000E+00 0.  1.
          2    1    1    2  501    0 -0.22071861389E+02  0.24459935395E+02  0.53959089750E+02  0.63222139092E+02  0.00000000000E+00 0. -1.
<scales pt_clust_5="13000.00000" pt_clust_6="13000.00000" pt_clust_7="13000.00000" pt_clust_8="13000.00000" pt_clust_9="32.94625"></scales>
<clustering>
<clus scale="   32.946">  2  9  1 -1</clus>
<clus scale="   90.453">  7  8 -1 -1</clus>
<clus scale="  102.422">  5  6 -1 -1</clus>
<clus scale="  193.663">  1  7  2 -1</clus>
<clus scale="   32.946">  2  5  1 -1</clus>
</clustering>
</event>
<event>
 9    1  0.1445593E-005  0.1261489E+03  0.7546771E-02  0.1233496E+00
         21   -1    0    0  501  502  0.00000000000E+00  0.00000000000E+00  0.17819340264E+03  0.17819340264E+03  0.00000000000E+00 0. -1.
          1   -1    0    0  502    0 -0.00000000000E+00 -0.00000000000E+00 -0.35244797983E+03  0.35244797983E+03  0.00000000000E+00 0. -1.
         23    2    1    2    0    0  0.66028805772E+02 -0.43373687803E+02 -0.17819570937E+03  0.21519711270E+03  0.91186657410E+02 0.  0.
         23    2    1    2    0    0 -0.85777354509E+02  0.47720554819E+02 -0.12578868523E+03  0.18414794098E+03  0.91938375743E+02 0.  0.
        -11    1    3    3    0    0  0.68489656599E+01  0.25998442041E+02 -0.23907562657E+02  0.35977755229E+02  0.00000000000E+00 0. -1.
         11    1    3    3    0    0  0.59179840112E+02 -0.69372129843E+02 -0.15428814672E+03  0.17921935747E+03  0.00000000000E+00 0.  1.
        -11    1    4    4    0    0  0.48880057112E+01 -0.19764347393E+02 -0.28459455235E+02  0.34992322300E+02  0.00000000000E+00 0.  1.
         11    1    4    4    0    0 -0.90665360221E+02  0.67484902212E+02 -0.97329229999E+02  0.14915561868E+03  0.00000000000E+00 0. -1.
          1    1    1    2  501    0  0.19748548738E+02 -0.43468670166E+01  0.12972981741E+03  0.13129632880E+03  0.00000000000E+00 0. -1.
<scales pt_clust_5="13000.00000" pt_clust_6="13000.00000" pt_clust_7="13000.00000" pt_clust_8="13000.00000" pt_clust_9="20.22129"></scales>
<clustering>
<clus scale="   20.221">  1  9  2 -1</clus>
<clus scale="   91.187">  5  6 -1 -1</clus>
<clus scale="   91.938">  7  8 -1 -1</clus>
<clus scale="  125.602">  2  5  1 -1</clus>
<clus scale="   20.221">  1  5  2 -1</clus>
</clustering>
</event>
<event>
 9    1  0.1445593E-005  0.1110592E+03  0.7546771E-02  0.1258840E+00
         -2   -1    0    0    0  501 -0.00000000000E+00  0.00000000000E+00  0.10878905817E+03  0.10878905817E+03  0.00000000000E+00 0.  1.
         21   -1    0    0  501  502  0.00000000000E+00 -0.00000000000E+00 -0.49140422555E+03  0.49140422555E+03  0.00000000000E+00 0.  1.
         23    2    1    2    0    0 -0.71571874289E+02 -0.13909861617E+02  0.37292275374E+02  0.12186508144E+03  0.90246145798E+02 0.  0.
         23    2    1    2    0    0  0.11016437939E+02  0.72118645531E+02 -0.12152242507E+03  0.16834619931E+03  0.90831063451E+02 0.  0.
        -11    1    3    3    0    0 -0.86826840737E+01  0.31699590819E+02 -0.52633944459E+01  0.33285978758E+02  0.00000000000E+00 0. -1.
         11    1    3    3    0    0 -0.62889190216E+02 -0.45609452435E+02  0.42555669820E+02  0.88579102678E+02  0.00000000000E+00 0.  1.
        -11    1    4    4    0    0 -0.16762699857E+02  0.83248108264E+02 -0.10150721050E+03  0.13234405698E+03  0.00000000000E+00 0.  1.
         11    1    4    4    0    0  0.27779137796E+02 -0.11129462733E+02 -0.20015214577E+02  0.36002142325E+02  0.00000000000E+00 0. -1.
         -2    1    1    2    0  502  0.60555436350E+02 -0.58208783914E+02 -0.29838501768E+03  0.30998200298E+03  0.00000000000E+00 0.  1.
<scales pt_clust_5="13000.00000" pt_clust_6="13000.00000" pt_clust_7="13000.00000" pt_clust_8="13000.00000" pt_clust_9="83.99538"></scales>
<clustering>
<clus scale="   83.995">  2  9  1 -1</clus>
<clus scale="   90.246">  5  6 -1 -1</clus>
<clus scale="   90.831">  7  8 -1 -1</clus>
<clus scale="  110.581">  1  5  2 -1</clus>
<clus scale="   83.995">  2  5  1 -1</clus>
</clustering>
</event>
<event>
 9    1  0.1445593E-005  0.1020911E+03  0.7546771E-02  0.1276788E+00
         21   -1    0    0  501  502  0.00000000000E+00  0.00000000000E+00  0.16747907728E+03  0.16747907728E+03  0.00000000000E+00 0. -1.
          3   -1    0    0  502    0 -0.00000000000E+00 -0.00000000000E+00 -0.14582273689E+03  0.14582273689E+03  0.00000000000E+00 0. -1.
         23    2    1    2    0    0  0.47589986660E+02 -0.11048952375E+02 -0.80788110309E+02  0.13096994918E+03  0.90771816337E+02 0.  0.
         23    2    1    2    0    0 -0.30071076779E+02 -0.22489157028E+02  0.36561847452E+02  0.10635664275E+03  0.92546933631E+02 0.  0.
        -11    1    4    4    0    0  0.11675382080E+02  0.23645804586E+02  0.35379415002E+02  0.44126427763E+02  0.00000000000E+00 0.  1.
         11    1    4    4    0    0 -0.41746458859E+02 -0.46134961614E+02  0.11824324503E+01  0.62230214983E+02  0.00000000000E+00 0. -1.
        -13    1    3    3    0    0 -0.26305635966E+02  0.18012298141E+01 -0.32132887362E+02  0.41566252690E+02  0.00000000000E+00 0.  1.
         13    1    3    3    0    0  0.73895622625E+02 -0.12850182189E+02 -0.48655222947E+02  0.89403696487E+02  0.00000000000E+00 0. -1.
          3    1    1    2  501    0 -0.17518909881E+02  0.33538109403E+02  0.65882603247E+02  0.75975222252E+02  0.00000000000E+00 0. -1.
<scales pt_clust_5="13000.00000" pt_clust_6="13000.00000" pt_clust_7="13000.00000" pt_clust_8="13000.00000" pt_clust_9="37.83804"></scales>
<clustering>
<clus scale="   37.838">  1  9  2 -1</clus>
<clus scale="   90.772">  7  8 -1 -1</clus>
<clus scale="   92.547">  5  6 -1 -1</clus>
<clus scale="  100.485">  2  7  1 -1</clus>
<clus scale="   37.838">  1  5  2 -1</clus>
</clustering>
</event>
<event>
 9    1  0.1445593E-005  0.9681772E+02  0.7546771E-02  0.1287280E+00
         21   -1    0    0  501  502  0.00000000000E+00  0.00000000000E+00  0.19986861475E+03  0.19986861475E+03  0.00000000000E+00 0. -1.
          2   -1    0    0  502    0 -0.00000000000E+00 -0.00000000000E+00 -0.33015517960E+03  0.33015517960E+03  0.00000000000E+00 0. -1.
         23    2    1    2    0    0 -0.32570882695E+02 -0.25684001453E+02 -0.26480283219E+03  0.28337795254E+03  0.91989095664E+02 0.  0.
         23    2    1    2    0    0 -0.25852966716E+02 -0.16317213256E+02  0.29818979073E+01  0.96716730038E+02  0.91709360578E+02 0.  0.
        -11    1    3    3    0    0 -0.59391272624E+02 -0.17390137240E+02 -0.11146949053E+03  0.12749583309E+03  0.00000000000E+00 0. -1.
         11    1    3    3    0    0  0.26820389928E+02 -0.82938642127E+01 -0.15333334166E+03  0.15588211945E+03  0.00000000000E+00 0.  1.
        -11    1    4    4    0    0 -0.58150357222E+02 -0.97272903719E-01 -0.85597792592E+01  0.58777064643E+02  0.00000000000E+00 0. -1.
         11    1    4    4    0    0  0.32297390506E+02 -0.16219940353E+02  0.11541677167E+02  0.37939665396E+02  0.00000000000E+00 0.  1.
          2    1    1    2  501    0  0.58423849412E+02  0.42001214709E+02  0.13153436943E+03  0.14992911178E+03  0.00000000000E+00 0. -1.
<scales pt_clust_5="13000.00000" pt_clust_6="13000.00000" pt_clust_7="13000.00000" pt_clust_8="13000.00000" pt_clust_9="71.95449"></scales>
<clustering>
<clus scale="   71.954">  1  9  2 -1</clus>
<clus scale="   91.709">  7  8 -1 -1</clus>
<clus scale="   91.989">  5  6 -1 -1</clus>
<clus scale="   96.552">  1  7  2 -1</clus>
<clus scale="   71.954">  1  5  2 -1</clus>
</clustering>
</event>
<event>
 9    1  0.1445593E-005  0.1096468E+03  0.7546771E-02  0.1264329E+00
         21   -1    0    0  501  502  0.00000000000E+00  0.00000000000E+00  0.58166754948E+02  0.58166754948E+02  0.00000000000E+00 0. -1.
          2   -1    0    0  502    0 -0.00000000000E+00 -0.00000000000E+00 -0.30496775089E+03  0.30496775089E+03  0.00000000000E+00 0. -1.
         23    2    1    2    0    0  0.21756950280E+02  0.23161334810E+02 -0.11470004644E+03  0.15410759211E+03  0.97894008890E+02 0.  0.
         23    2    1    2    0    0 -0.54535743094E+02 -0.52143329979E+02 -0.90245193556E+02  0.14847685503E+03  0.90598605862E+02 0.  0.
        -13    1    4    4    0    0 -0.15422799087E+02  0.19416651416E+02 -0.53625112221E+02  0.59080637645E+02  0.00000000000E+00 0.  1.
         13    1    4    4    0    0 -0.39112944006E+02 -0.71559981395E+02 -0.36620081335E+02  0.89396217387E+02  0.00000000000E+00 0. -1.
        -13    1    3    3    0    0 -0.36113717686E+02  0.30351818900E+01 -0.68051418864E+02  0.77099990556E+02  0.00000000000E+00 0.  1.
         13    1    3    3    0    0  0.57870667967E+02  0.20126152920E+02 -0.46648627573E+02  0.77007601551E+02  0.00000000000E+00 0. -1.
          2    1    1    2  501    0  0.32778792814E+02  0.28981995169E+02 -0.41855755949E+02  0.60550058698E+02  0.00000000000E+00 0. -1.
<scales pt_clust_5="13000.00000" pt_clust_6="13000.00000" pt_clust_7="13000.00000" pt_clust_8="13000.00000" pt_clust_9="43.75394"></scales>
<clustering>
<clus scale="   43.754">  1  9  2 -1</clus>
<clus scale="   90.599">  5  6 -1 -1</clus>
<clus scale="   97.894">  7  8 -1 -1</clus>
<clus scale="  103.186">  1  5  2 -1</clus>
<clus scale="   43.754">  1  5  2 -1</clus>
</clustering>
</event>
<event>
 9    1  0.1445593E-005  0.1845178E+03  0.7546771E-02  0.1163663E+00
          2   -1    0    0  502    0 -0.00000000000E+00  0.00000000000E+00  0.12024037276E+03  0.12024037276E+03  0.00000000000E+00 0. -1.
         21   -1    0    0  501  502  0.00000000000E+00 -0.00000000000E+00 -0.63393161381E+03  0.63393161381E+03  0.00000000000E+00 0. -1.
         23    2    1    2    0    0  0.14147138602E+03 -0.78846511733E+02  0.14963693436E+02  0.18589548130E+03  0.90012734496E+02 0.  0.
         23    2    1    2    0    0 -0.14446847220E+03  0.49634768551E+02 -0.47216924916E+03  0.50461379161E+03  0.91414053190E+02 0.  0.
        -11    1    4    4    0    0 -0.11868366817E+03  0.51823719560E+02 -0.45615383952E+03  0.47418122728E+03  0.00000000000E+00 0. -1.
         11    1    4    4    0    0 -0.25784804033E+02 -0.21889510087E+01 -0.16015409641E+02  0.30432564327E+02  0.00000000000E+00 0.  1.
        -11    1    3    3    0    0  0.81970183856E+02 -0.54362944738E+02 -0.35033899369E+02  0.10441175656E+03  0.00000000000E+00 0. -1.
         11    1    3    3    0    0  0.59501202161E+02 -0.24483566994E+02  0.49997592806E+02  0.81483724742E+02  0.00000000000E+00 0.  1.
          2    1    1    2  501    0  0.29970861810E+01  0.29211743182E+02 -0.56485685319E+02  0.63662713665E+02  0.00000000000E+00 0. -1.
<scales pt_clust_5="13000.00000" pt_clust_6="13000.00000" pt_clust_7="13000.00000" pt_clust_8="13000.00000" pt_clust_9="29.36509"></scales>
<clustering>
<clus scale="   29.365">  2  9  1 -1</clus>
<clus scale="   90.013">  7  8 -1 -1</clus>
<clus scale="   91.414">  5  6 -1 -1</clus>
<clus scale="  183.828">  1  7  2 -1</clus>
<clus scale="   29.365">  2  5  1 -1</clus>
</clustering>
</event>
<event>
 9    1  0.1445593E-005  0.1746242E+03  0.7546771E-02  0.1173466E+00
         21   -1    0    0  501  502  0.00000000000E+00  0.00000000000E+00  0.46626724256E+03  0.46626724256E+03  0.00000000000E+00 0. -1.
          1   -1    0    0  502    0 -0.00000000000E+00 -0.00000000000E+00 -0.43409927966E+03  0.43409927966E+03  0.00000000000E+00 0. -1.
         23    2    1    2    0    0  0.14987680964E+03 -0.10627260248E+01 -0.36532035399E+03  0.40487441196E+03  0.89443507113E+02 0.  0.
         23    2    1    2    0    0 -0.15127481907E+03 -0.81773697449E+02  0.35136007394E+03  0.40066783973E+03  0.86659146952E+02 0.  0.
        -13    1    3    3    0    0  0.47496854103E+02  0.10177909288E+02 -0.37824942364E+02  0.61565146406E+02  0.00000000000E+00 0.  1.
         13    1    3    3    0    0  0.10237995554E+03 -0.11240635313E+02 -0.32749541162E+03  0.34330926555E+03  0.00000000000E+00 0. -1.
        -13    1    4    4    0    0 -0.15653621184E+03 -0.57341766140E+02  0.31722113744E+03  0.35835863852E+03  0.00000000000E+00 0.  1.
         13    1    4    4    0    0  0.52613927702E+01 -0.24431931309E+02  0.34138936502E+02  0.42309201208E+02  0.00000000000E+00 0. -1.
          1    1    1    2  501    0  0.13980094248E+01  0.82836423473E+02  0.46128242946E+02  0.94824270530E+02  0.00000000000E+00 0. -1.
<scales pt_clust_5="13000.00000" pt_clust_6="13000.00000" pt_clust_7="13000.00000" pt_clust_8="13000.00000" pt_clust_9="82.84822"></scales>
<clustering>
<clus scale="   82.848">  1  9  2 -1</clus>
<clus scale="   86.659">  7  8 -1 -1</clus>
<clus scale="   89.444">  5  6 -1 -1</clus>
<clus scale="  173.215">  1  7  2 -1</clus>
<clus scale="   82.848">  1  5  2 -1</clus>
</clustering>
</event>
<event>
 9    1  0.1445593E-005  0.1197813E+03  0.7546771E-02  0.1245050E+00
         21   -1    0    0  501  502  0.00000000000E+00  0.00000000000E+00  0.52370575464E+03  0.52370575464E+03  0.00000000000E+00 0. -1.
          2   -1    0    0  502    0 -0.00000000000E+00 -0.00000000000E+00 -0.38319077406E+03  0.38319077406E+03  0.00000000000E+00 0. -1.
         23    2    1    2    0    0 -0.28980519799E+02 -0.58432113118E+02 -0.27547666318E+03  0.29721485051E+03  0.90526753140E+02 0.  0.
         23    2    1    2    0    0 -0.17846172906E+02  0.15014484167E+03 -0.24455334774E+01  0.17875983491E+03  0.95326484122E+02 0.  0.
        -11    1    4    4    0    0 -0.29151101473E+02  0.11381971687E+03 -0.41147725770E+02  0.12449036108E+03  0.00000000000E+00 0. -1.
         11    1    4    4    0    0  0.11304928567E+02  0.36325124802E+02  0.38702192292E+02  0.54269473832E+02  0.00000000000E+00 0.  1.
        -13    1    3    3    0    0  0.25791912035E+02  0.28802497823E+01 -0.10188870533E+03  0.10514193663E+03  0.00000000000E+00 0.  1.
         13    1    3    3    0    0 -0.54772431834E+02 -0.61312362900E+02 -0.17358795785E+03  0.19207291387E+03  0.00000000000E+00 0. -1.
          2    1    1    2  501    0  0.46826692705E+02 -0.91712728551E+02  0.41843717724E+03  0.43092184329E+03  0.00000000000E+00 0. -1.
<scales pt_clust_5="13000.00000" pt_clust_6="13000.00000" pt_clust_7="13000.00000" pt_clust_8="13000.00000" pt_clust_9="102.97555"></scales>
<clustering>
<clus scale="   90.527">  7  8 -1 -1</clus>
<clus scale="   95.326">  5  6 -1 -1</clus>
<clus scale="  102.976">  1  9  2 -1</clus>
<clus scale="  115.998">  2  7  1 -1</clus>
<clus scale="  102.976">  1  5  2 -1</clus>
</clustering>
</event>
<event>
 9    1  0.1445593E-005  0.1019991E+03  0.7546771E-02  0.1279765E+00
         21   -1    0    0  501  502  0.00000000000E+00  0.00000000000E+00  0.65413505685E+02  0.65413505685E+02  0.00000000000E+00 0. -1.
          2   -1    0    0  502    0 -0.00000000000E+00 -0.00000000000E+00 -0.60603116356E+03  0.60603116356E+03  0.00000000000E+00 0. -1.
         23    2    1    2    0    0  0.64272496026E+01  0.22294469650E+02 -0.29372641302E+03  0.30659874968E+03  0.84789354768E+02 0.  0.
         23    2    1    2    0    0  0.28057966172E+01 -0.94248010708E+02 -0.25957056372E+03  0.29120268267E+03  0.92366470241E+02 0.  0.
        -11    1    4    4    0    0 -0.23500081593E+02 -0.56158766208E+02 -0.22590760549E+03  0.23396646571E+03  0.00000000000E+00 0. -1.
         11    1    4    4    0    0  0.26305878210E+02 -0.38089244500E+02 -0.33662958230E+02  0.57236216959E+02  0.00000000000E+00 0.  1.
        -13    1    3    3    0    0 -0.21400269055E+02  0.35441185130E+02 -0.24830249865E+03  0.25173037154E+03  0.00000000000E+00 0. -1.
         13    1    3    3    0    0  0.27827518658E+02 -0.13146715480E+02 -0.45423914371E+02  0.54868378137E+02  0.00000000000E+00 0.  1.
          2    1    1    2  501    0 -0.92330462198E+01  0.71953541058E+02  0.12679318875E+02  0.73643236896E+02  0.00000000000E+00 0. -1.
<scales pt_clust_5="13000.00000" pt_clust_6="13000.00000" pt_clust_7="13000.00000" pt_clust_8="13000.00000" pt_clust_9="72.54351"></scales>
<clustering>
<clus scale="   72.544">  1  9  2 -1</clus>
<clus scale="   84.789">  7  8 -1 -1</clus>
<clus scale="   92.366">  5  6 -1 -1</clus>
<clus scale="   95.192">  2  7  1 -1</clus>
<clus scale="   72.544">  1  5  2 -1</clus>
</clustering>
</event>
<event>
 9    1  0.1445593E-005  0.9185115E+02  0.7546771E-02  0.1298727E+00
         -1   -1    0    0    0  501 -0.00000000000E+00  0.00000000000E+00  0.11585398446E+03  0.11585398446E+03  0.00000000000E+00 0.  1.
         21   -1    0    0  501  502  0.00000000000E+00 -0.00000000000E+00 -0.99555702394E+02  0.99555702394E+02  0.00000000000E+00 0. -1.
         23    2    1    2    0    0  0.17051653784E+02 -0.78742872007E+01  0.98462345116E+01  0.92530876215E+02  0.90068037745E+02 0.  0.
         23    2    1    2    0    0 -0.12286416969E+02 -0.16701142684E+02 -0.91689079524E+01  0.93371633770E+02  0.90577640238E+02 0.  0.
        -11    1    4    4    0    0  0.34442807228E+02  0.48185357519E+01 -0.20940336279E+02  0.40595848803E+02  0.00000000000E+00 0. -1.
         11    1    4    4    0    0 -0.46729224197E+02 -0.21519678436E+02  0.11771428327E+02  0.52775784967E+02  0.00000000000E+00 0.  1.
        -13    1    3    3    0    0 -0.16742296503E+02  0.31371336984E+02 -0.10204513154E+02  0.36994558587E+02  0.00000000000E+00 0.  1.
         13    1    3    3    0    0  0.33793950288E+02 -0.39245624184E+02  0.20050747666E+02  0.55536317628E+02  0.00000000000E+00 0. -1.
         -1    1    1    2    0  502 -0.47652368155E+01  0.24575429885E+02  0.15620955512E+02  0.29507176873E+02  0.00000000000E+00 0.  1.
<scales pt_clust_5="13000.00000" pt_clust_6="13000.00000" pt_clust_7="13000.00000" pt_clust_8="13000.00000" pt_clust_9="25.03318"></scales>
<clustering>
<clus scale="   25.033">  2  9  1 -1</clus>
<clus scale="   90.068">  7  8 -1 -1</clus>
<clus scale="   90.578">  5  6 -1 -1</clus>
<clus scale="   91.349">  1  7  2 -1</clus>
<clus scale="   25.033">  2  5  1 -1</clus>
</clustering>
</event>
<event>
 9    1  0.1445593E-005  0.1203322E+03  0.7546771E-02  0.1243333E+00
         21   -1    0    0  501  502  0.00000000000E+00  0.00000000000E+00  0.19119020758E+03  0.19119020758E+03  0.00000000000E+00 0. -1.
          1   -1    0    0  502    0 -0.00000000000E+00 -0.00000000000E+00 -0.23464205927E+03  0.23464205927E+03  0.00000000000E+00 0. -1.
         23    2    1    2    0    0 -0.16575054872E+00  0.65301384077E+02 -0.83702307754E+02  0.14025235868E+03  0.91653420871E+02 0.  0.
         23    2    1    2    0    0  0.10824164046E+01 -0.86547780435E+02 -0.88242612738E+02  0.15533890708E+03  0.94083619337E+02 0.  0.
        -11    1    3    3    0    0 -0.37510625826E+02  0.51489474366E+02 -0.23146583701E+02  0.67778885779E+02  0.00000000000E+00 0.  1.
         11    1    3    3    0    0  0.37344875277E+02  0.13811909711E+02 -0.60555724053E+02  0.72473472905E+02  0.00000000000E+00 0. -1.
        -11    1    4    4    0    0 -0.18757717199E+02 -0.78271228824E+02 -0.10191286510E+03  0.12986327152E+03  0.00000000000E+00 0. -1.
         11    1    4    4    0    0  0.19840133603E+02 -0.82765516114E+01  0.13670252361E+02  0.25475635568E+02  0.00000000000E+00 0.  1.
          1    1    1    2  501    0 -0.91666585586E+00  0.21246396359E+02  0.12849306879E+03  0.13024100108E+03  0.00000000000E+00 0. -1.
<scales pt_clust_5="13000.00000" pt_clust_6="13000.00000" pt_clust_7="13000.00000" pt_clust_8="13000.00000" pt_clust_9="21.26616"></scales>
<clustering>
<clus scale="   21.266">  1  9  2 -1</clus>
<clus scale="   91.653">  5  6 -1 -1</clus>
<clus scale="   94.084">  7  8 -1 -1</clus>
<clus scale="  118.442">  2  5  1 -1</clus>
<clus scale="   21.266">  1  5  2 -1</clus>
</clustering>
</event>
<event>
 9    1  0.1445593E-005  0.9619501E+02  0.7546771E-02  0.1288988E+00
         21   -1    0    0  501  502  0.00000000000E+00  0.00000000000E+00  0.15604952431E+03  0.15604952431E+03  0.00000000000E+00 0.  1.
         -3   -1    0    0    0  501 -0.00000000000E+00 -0.00000000000E+00 -0.17205770895E+03  0.17205770895E+03  0.00000000000E+00 0.  1.
         23    2    1    2    0    0 -0.98023649706E+01 -0.21761179848E+02 -0.10864247616E+03  0.14368030606E+03  0.90946178670E+02 0.  0.
         23    2    1    2    0    0 -0.11066179192E+02  0.63358455134E+02  0.73705621749E+02  0.13418626651E+03  0.91851408721E+02 0.  0.
        -11    1    3    3    0    0 -0.22598300226E+02  0.28289183025E+02 -0.71202455134E+02  0.79879601066E+02  0.00000000000E+00 0. -1.
         11    1    3    3    0    0  0.12795935256E+02 -0.50050362873E+02 -0.37440021030E+02  0.63800704992E+02  0.00000000000E+00 0.  1.
        -13    1    4    4    0    0 -0.40742883462E+02  0.87711129403E+00  0.14880296866E+02  0.43384042133E+02  0.00000000000E+00 0. -1.
         13    1    4    4    0    0  0.29676704270E+02  0.62481343840E+02  0.58825324884E+02  0.90802224378E+02  0.00000000000E+00 0.  1.
         -3    1    1    2    0  502  0.20868544163E+02 -0.41597275286E+02  0.18928669775E+02  0.50240660686E+02  0.00000000000E+00 0.  1.
<scales pt_clust_5="13000.00000" pt_clust_6="13000.00000" pt_clust_7="13000.00000" pt_clust_8="13000.00000" pt_clust_9="46.53847"></scales>
<clustering>
<clus scale="   46.538">  1  9  2 -1</clus>
<clus scale="   90.946">  5  6 -1 -1</clus>
<clus scale="   91.851">  7  8 -1 -1</clus>
<clus scale="   95.331">  2  5  1 -1</clus>
<clus scale="   46.538">  1  5  2 -1</clus>
</clustering>
</event>
<event>
 9    1  0.1445593E-005  0.3210153E+03  0.7546771E-02  0.1075520E+00
         21   -1    0    0  501  502  0.00000000000E+00  0.00000000000E+00  0.67952234759E+02  0.67952234759E+02  0.00000000000E+00 0. -1.
          2   -1    0    0  502    0 -0.00000000000E+00 -0.00000000000E+00 -0.22698802513E+04  0.22698802513E+04  0.00000000000E+00 0. -1.
         23    2    1    2    0    0 -0.26225294580E+03 -0.21404338099E+03 -0.16227056555E+04  0.16598959164E+04  0.86542662832E+02 0.  0.
         23    2    1    2    0    0  0.19005496113E+03  0.15863187217E+03 -0.39020355620E+03  0.46814836003E+03  0.74960740489E+02 0.  0.
        -11    1    4    4    0    0  0.11837057685E+03  0.10150371430E+03 -0.17590367736E+03  0.23506743967E+03  0.00000000000E+00 0. -1.
         11    1    4    4    0    0  0.71684384274E+02  0.57128157871E+02 -0.21429987884E+03  0.23308092037E+03  0.00000000000E+00 0.  1.
        -13    1    3    3    0    0 -0.10612435497E+03 -0.12387671747E+03 -0.92494859473E+03  0.93922187089E+03  0.00000000000E+00 0.  1.
         13    1    3    3    0    0 -0.15612859082E+03 -0.90166663523E+02 -0.69775706072E+03  0.72067404550E+03  0.00000000000E+00 0. -1.
          2    1    1    2  501    0  0.72197984672E+02  0.55411508820E+02 -0.18901880493E+03  0.20978820967E+03  0.00000000000E+00 0. -1.
<scales pt_clust_5="13000.00000" pt_clust_6="13000.00000" pt_clust_7="13000.00000" pt_clust_8="13000.00000" pt_clust_9="91.01090"></scales>
<clustering>
<clus scale="   74.961">  5  6 -1 -1</clus>
<clus scale="   86.543">  7  8 -1 -1</clus>
<clus scale="   91.011">  1  9  2 -1</clus>
<clus scale="  318.089">  1  5  2 -1</clus>
<clus scale="   91.011">  1  5  2 -1</clus>
</clustering>
</event>
<event>
 9    1  0.1445593E-005  0.1571762E+03  0.7546771E-02  0.1192104E+00
         21   -1    0    0  501  502  0.00000000000E+00  0.00000000000E+00  0.11573657905E+03  0.11573657905E+03  0.00000000000E+00 0. -1.
          2   -1    0    0  502    0 -0.00000000000E+00 -0.00000000000E+00 -0.34601511846E+03  0.34601511846E+03  0.00000000000E+00 0. -1.
         23    2    1    2    0    0  0.10892603762E+03  0.11297884739E+02 -0.11236269937E+03  0.18177589272E+03  0.91785484103E+02 0.  0.
         23    2    1    2    0    0 -0.14910815098E+03  0.10717220750E+01 -0.14754457104E+03  0.22854166140E+03  0.90705574665E+02 0.  0.
        -11    1    3    3    0    0  0.78849112118E+02 -0.77068279541E+01 -0.12149588053E+03  0.14504422314E+03  0.00000000000E+00 0.  1.
         11    1    3    3    0    0  0.30076925504E+02  0.19004712693E+02  0.91331811592E+01  0.36731669584E+02  0.00000000000E+00 0. -1.
        -13    1    4    4    0    0 -0.73589054444E+02  0.30719390739E+02 -0.28917301994E+02  0.84824762045E+02  0.00000000000E+00 0.  1.
         13    1    4    4    0    0 -0.75519096532E+02 -0.29647668664E+02 -0.11862726905E+03  0.14371689935E+03  0.00000000000E+00 0. -1.
          2    1    1    2  501    0  0.40182113353E+02 -0.12369606814E+02  0.29628731005E+02  0.51434143399E+02  0.00000000000E+00 0. -1.
<scales pt_clust_5="13000.00000" pt_clust_6="13000.00000" pt_clust_7="13000.00000" pt_clust_8="13000.00000" pt_clust_9="42.04295"></scales>
<clustering>
<clus scale="   42.043">  1  9  2 -1</clus>
<clus scale="   90.706">  7  8 -1 -1</clus>
<clus scale="   91.785">  5  6 -1 -1</clus>
<clus scale="  156.548">  1  7  2 -1</clus>
<clus scale="   42.043">  1  5  2 -1</clus>
</clustering>
</event>
<event>
 9    1  0.1445593E-005  0.9568747E+02  0.7546771E-02  0.1291447E+00
         -2   -1    0    0    0  501 -0.00000000000E+00  0.00000000000E+00  0.14698722077E+03  0.14698722077E+03  0.00000000000E+00 0.  1.
         21   -1    0    0  501  502  0.00000000000E+00 -0.00000000000E+00 -0.10113412456E+03  0.10113412456E+03  0.00000000000E+00 0.  1.
         23    2    1    2    0    0 -0.11351366989E+02  0.13237776285E+01  0.62137658795E+02  0.11035546704E+03  0.90480022910E+02 0.  0.
         23    2    1    2    0    0  0.29699976862E+02 -0.29847797243E+02 -0.14749217999E+02  0.10381520138E+03  0.93739409959E+02 0.  0.
        -11    1    4    4    0    0  0.16714395581E+02  0.29298210620E+02 -0.25536886966E+02  0.42307076962E+02  0.00000000000E+00 0. -1.
         11    1    4    4    0    0  0.12985581282E+02 -0.59146007863E+02  0.10787668966E+02  0.61508124415E+02  0.00000000000E+00 0.  1.
        -11    1    3    3    0    0 -0.34514046915E+02  0.14029810072E+02  0.72868463315E+02  0.81840503120E+02  0.00000000000E+00 0. -1.
         11    1    3    3    0    0  0.23162679926E+02 -0.12706032444E+02 -0.10730804520E+02  0.28514963922E+02  0.00000000000E+00 0.  1.
         -2    1    1    2    0  502 -0.18348609874E+02  0.28524019615E+02 -0.15353445862E+01  0.33950676905E+02  0.00000000000E+00 0.  1.
<scales pt_clust_5="13000.00000" pt_clust_6="13000.00000" pt_clust_7="13000.00000" pt_clust_8="13000.00000" pt_clust_9="33.91594"></scales>
<clustering>
<clus scale="   33.916">  2  9  1 -1</clus>
<clus scale="   90.480">  7  8 -1 -1</clus>
<clus scale="   92.497">  1  7  2 -1</clus>
<clus scale="   93.739">  5  6 -1 -1</clus>
<clus scale="   33.916">  2  5  1 -1</clus>
</clustering>
</event>
<event>
 9    1  0.1445593E-005  0.1072540E+03  0.7546771E-02  0.1266996E+00
         -1   -1    0    0    0  501 -0.00000000000E+00  0.00000000000E+00  0.38259031630E+03  0.38259031630E+03  0.00000000000E+00 0.  1.
         21   -1    0    0  501  502  0.00000000000E+00 -0.00000000000E+00 -0.14426777045E+03  0.14426777045E+03  0.00000000000E+00 0.  1.
         23    2    1    2    0    0 -0.60297409909E+02  0.17733575104E+02  0.31839991058E+03  0.33759803383E+03  0.92971350750E+02 0.  0.
         23    2    1    2    0    0 -0.10375997742E+02 -0.23817410033E+02 -0.18791105328E+02  0.95517057517E+02  0.89974842525E+02 0.  0.
        -11    1    4    4    0    0 -0.36623899514E+02 -0.10664619579E+02  0.22926158394E+02  0.44504526344E+02  0.00000000000E+00 0.  1.
         11    1    4    4    0    0  0.26247901772E+02 -0.13152790454E+02 -0.41717263722E+02  0.51012531173E+02  0.00000000000E+00 0. -1.
        -13    1    3    3    0    0 -0.78346480222E+02  0.31168885242E+02  0.19948590519E+03  0.21657399830E+03  0.00000000000E+00 0.  1.
         13    1    3    3    0    0  0.18049070313E+02 -0.13435310137E+02  0.11891400540E+03  0.12102403553E+03  0.00000000000E+00 0. -1.
         -1    1    1    2    0  502  0.70673407651E+02  0.60838349288E+01 -0.61286259401E+02  0.93742995407E+02  0.00000000000E+00 0.  1.
<scales pt_clust_5="13000.00000" pt_clust_6="13000.00000" pt_clust_7="13000.00000" pt_clust_8="13000.00000" pt_clust_9="70.93478"></scales>
<clustering>
<clus scale="   70.935">  2  9  1 -1</clus>
<clus scale="   89.975">  5  6 -1 -1</clus>
<clus scale="   92.971">  7  8 -1 -1</clus>
<clus scale="  104.667">  2  5  1 -1</clus>
<clus scale="   70.935">  2  5  1 -1</clus>
</clustering>
</event>
<event>
 9    1  0.1445593E-005  0.9586752E+02  0.7546771E-02  0.1290258E+00
         21   -1    0    0  501  502  0.00000000000E+00  0.00000000000E+00  0.18389959192E+03  0.18389959192E+03  0.00000000000E+00 0.  1.
          1   -1    0    0  502    0 -0.00000000000E+00 -0.00000000000E+00 -0.74901861732E+02  0.74901861732E+02  0.00000000000E+00 0. -1.
         23    2    1    2    0    0 -0.16926811674E+02  0.33134865883E+02  0.14081202225E+02  0.99423948987E+02  0.91117534458E+02 0.  0.
         23    2    1    2    0    0  0.26326282282E+02 -0.48986723340E+01  0.50583724850E+02  0.10598246645E+03  0.89199214380E+02 0.  0.
        -13    1    4    4    0    0  0.40960678379E+02 -0.23058924244E+02 -0.34484002581E+01  0.47131545964E+02  0.00000000000E+00 0.  1.
         13    1    4    4    0    0 -0.14634396097E+02  0.18160251910E+02  0.54032125108E+02  0.58850920488E+02  0.00000000000E+00 0. -1.
        -13    1    3    3    0    0 -0.52649716831E+02  0.24448720865E+02  0.21529486204E+02  0.61913257147E+02  0.00000000000E+00 0.  1.
         13    1    3    3    0    0  0.35722905157E+02  0.86861450178E+01 -0.74482839789E+01  0.37510691841E+02  0.00000000000E+00 0. -1.
          1    1    1    2  501    0 -0.93994706081E+01 -0.28236193549E+02  0.44332803113E+02  0.53395038212E+02  0.00000000000E+00 0. -1.
<scales pt_clust_5="13000.00000" pt_clust_6="13000.00000" pt_clust_7="13000.00000" pt_clust_8="13000.00000" pt_clust_9="29.75958"></scales>
<clustering>
<clus scale="   29.760">  1  9  2 -1</clus>
<clus scale="   89.199">  5  6 -1 -1</clus>
<clus scale="   91.118">  7  8 -1 -1</clus>
<clus scale="   94.046">  1  5  2 -1</clus>
<clus scale="   29.760">  1  5  2 -1</clus>
</clustering>
</event>
<event>
 9    1  0.1445593E-005  0.1221966E+03  0.7546771E-02  0.1239897E+00
         21   -1    0    0  501  502  0.00000000000E+00  0.00000000000E+00  0.96350970345E+02  0.96350970345E+02  0.00000000000E+00 0. -1.
          2   -1    0    0  502    0 -0.00000000000E+00 -0.00000000000E+00 -0.54387498588E+03  0.54387498588E+03  0.00000000000E+00 0. -1.
         23    2    1    2    0    0  0.47764289739E+02 -0.75262910984E+02 -0.46655853940E+03  0.48363817121E+03  0.91011410377E+02 0.  0.
         23    2    1    2    0    0 -0.13825241508E+02  0.25927253735E+02  0.20730725709E+02  0.96681665370E+02  0.89745315428E+02 0.  0.
        -11    1    3    3    0    0 -0.23855311610E+02 -0.27268235153E+02 -0.83912050474E+02  0.91399478965E+02  0.00000000000E+00 0.  1.
         11    1    3    3    0    0  0.71619601349E+02 -0.47994675832E+02 -0.38264648892E+03  0.39223869224E+03  0.00000000000E+00 0. -1.
        -13    1    4    4    0    0 -0.47682029017E+02 -0.51986802637E+01  0.57239569112E+01  0.48304925737E+02  0.00000000000E+00 0.  1.
         13    1    4    4    0    0  0.33856787510E+02  0.31125933999E+02  0.15006768798E+02  0.48376739633E+02  0.00000000000E+00 0. -1.
          2    1    1    2  501    0 -0.33939048232E+02  0.49335657249E+02 -0.16962018512E+01  0.59906119652E+02  0.00000000000E+00 0. -1.
<scales pt_clust_5="13000.00000" pt_clust_6="13000.00000" pt_clust_7="13000.00000" pt_clust_8="13000.00000" pt_clust_9="59.88210"></scales>
<clustering>
<clus scale="   59.882">  1  9  2 -1</clus>
<clus scale="   89.745">  7  8 -1 -1</clus>
<clus scale="   91.011">  5  6 -1 -1</clus>
<clus scale="  121.257">  1  7  2 -1</clus>
<clus scale="   59.882">  1  5  2 -1</clus>
</clustering>
</event>
<event>
 9    1  0.1445593E-005  0.1382790E+03  0.7546771E-02  0.1226493E+00
         -4   -1    0    0    0  501 -0.00000000000E+00  0.00000000000E+00  0.96866410085E+03  0.96866410085E+03  0.00000000000E+00 0.  1.
         21   -1    0    0  501  502  0.00000000000E+00 -0.00000000000E+00 -0.34834133631E+02  0.34834133631E+02  0.00000000000E+00 0. -1.
         23    2    1    2    0    0 -0.71752721079E+02 -0.37098769347E+02  0.61164564455E+03  0.62885423029E+03  0.12174759459E+03 0.  0.
         23    2    1    2    0    0  0.39178018356E+02 -0.21952237925E+02  0.94145246530E+02  0.13684166408E+03  0.88574802912E+02 0.  0.
        -11    1    3    3    0    0 -0.11342238667E+02  0.40636858559E+02  0.11382973217E+03  0.12139690514E+03  0.00000000000E+00 0. -1.
         11    1    3    3    0    0 -0.60410482412E+02 -0.77735627906E+02  0.49781591238E+03  0.50745732515E+03  0.00000000000E+00 0.  1.
        -13    1    4    4    0    0 -0.18443040848E+02  0.20615060572E+02  0.27061913232E+02  0.38697204368E+02  0.00000000000E+00 0.  1.
         13    1    4    4    0    0  0.57621059204E+02 -0.42567298497E+02  0.67083333298E+02  0.98144459709E+02  0.00000000000E+00 0. -1.
         -4    1    1    2    0  502  0.32574702723E+02  0.59051007272E+02  0.22803907614E+03  0.23780234012E+03  0.00000000000E+00 0.  1.
<scales pt_clust_5="13000.00000" pt_clust_6="13000.00000" pt_clust_7="13000.00000" pt_clust_8="13000.00000" pt_clust_9="67.43988"></scales>
<clustering>
<clus scale="   67.440">  2  9  1 -1</clus>
<clus scale="   88.575">  7  8 -1 -1</clus>
<clus scale="  110.200">  2  7  1 -1</clus>
<clus scale="  121.748">  5  6 -1 -1</clus>
<clus scale="   67.440">  2  5  1 -1</clus>
</clustering>
</event>
<event>
 9    1  0.1445593E-005  0.1024816E+03  0.7546771E-02  0.1275189E+00
          4   -1    0    0  502    0 -0.00000000000E+00  0.00000000000E+00  0.48696879813E+03  0.48696879813E+03  0.00000000000E+00 0. -1.
         21   -1    0    0  501  502  0.00000000000E+00 -0.00000000000E+00 -0.95579962590E+02  0.95579962590E+02  0.00000000000E+00 0.  1.
         23    2    1    2    0    0 -0.28392666693E+02 -0.35921065978E+02  0.35843828447E+03  0.37221861540E+03  0.89287330426E+02 0.  0.
         23    2    1    2    0    0  0.51041423103E+02  0.44769386801E+02  0.92872271305E+02  0.14566275397E+03  0.89346820033E+02 0.  0.
        -11    1    3    3    0    0 -0.39021571079E+02  0.17117976695E+02  0.11012018376E+03  0.11807693682E+03  0.00000000000E+00 0.  1.
         11    1    3    3    0    0  0.10628904386E+02 -0.53039042673E+02  0.24831810070E+03  0.25414167858E+03  0.00000000000E+00 0. -1.
        -11    1    4    4    0    0 -0.25311490342E+02  0.17403360933E+02  0.20238238302E+02  0.36784980694E+02  0.00000000000E+00 0.  1.
         11    1    4    4    0    0  0.76352913445E+02  0.27366025868E+02  0.72634033004E+02  0.10887777328E+03  0.00000000000E+00 0. -1.
          4    1    1    2  501    0 -0.22648756411E+02 -0.88483208232E+01 -0.59921720233E+02  0.64667391350E+02  0.00000000000E+00 0. -1.
<scales pt_clust_5="13000.00000" pt_clust_6="13000.00000" pt_clust_7="13000.00000" pt_clust_8="13000.00000" pt_clust_9="24.31582"></scales>
<clustering>
<clus scale="   24.316">  2  9  1 -1</clus>
<clus scale="   89.287">  5  6 -1 -1</clus>
<clus scale="   89.347">  7  8 -1 -1</clus>
<clus scale="  102.430">  1  5  2 -1</clus>
<clus scale="   24.316">  2  5  1 -1</clus>
</clustering>
</event>
<event>
 9    1  0.1445593E-005  0.1314464E+03  0.7546771E-02  0.1226336E+00
          3   -1    0    0  502    0 -0.00000000000E+00  0.00000000000E+00  0.15961521638E+03  0.15961521638E+03  0.00000000000E+00 0. -1.
         21   -1    0    0  501  502  0.00000000000E+00 -0.00000000000E+00 -0.44225333661E+03  0.44225333661E+03  0.00000000000E+00 0. -1.
         23    2    1    2    0    0  0.59782932885E+01 -0.10960924212E+03  0.66795060374E+02  0.15494478577E+03  0.86581641229E+02 0.  0.
         23    2    1    2    0    0 -0.41214734387E+02  0.65137970076E+02 -0.30250840893E+02  0.12273760651E+03  0.90596893988E+02 0.  0.
        -11    1    3    3    0    0  0.37121989982E+02 -0.37037389799E+02  0.14754358455E+01  0.52459387094E+02  0.00000000000E+00 0.  1.
         11    1    3    3    0    0 -0.31143696694E+02 -0.72571852317E+02  0.65319624528E+02  0.10248539867E+03  0.00000000000E+00 0. -1.
        -13    1    4    4    0    0  0.23343474847E+02 -0.27144406427E+01  0.22334949697E+01  0.23606662316E+02  0.00000000000E+00 0.  1.
         13    1    4    4    0    0 -0.64558209234E+02  0.67852410718E+02 -0.32484335863E+02  0.99130944191E+02  0.00000000000E+00 0. -1.
          3    1    1    2  501    0  0.35236441098E+02  0.44471272040E+02 -0.31918233971E+03  0.32418616072E+03  0.00000000000E+00 0. -1.
<scales pt_clust_5="13000.00000" pt_clust_6="13000.00000" pt_clust_7="13000.00000" pt_clust_8="13000.00000" pt_clust_9="56.73888"></scales>
<clustering>
<clus scale="   56.739">  2  9  1 -1</clus>
<clus scale="   86.582">  5  6 -1 -1</clus>
<clus scale="   90.597">  7  8 -1 -1</clus>
<clus scale="  128.712">  1  5  2 -1</clus>
<clus scale="   56.739">  2  5  1 -1</clus>
</clustering>
</event>
<event>
 9    1  0.1445593E-005  0.1277456E+03  0.7546771E-02  0.1234019E+00
          1   -1    0    0  502    0 -0.00000000000E+00  0.00000000000E+00  0.54845732878E+03  0.54845732878E+03  0.00000000000E+00 0. -1.
         21   -1    0    0  501  502  0.00000000000E+00 -0.00000000000E+00 -0.11770301004E+03  0.11770301004E+03  0.00000000000E+00 0. -1.
         23    2    1    2    0    0 -0.14391259230E+02  0.94349071321E+02  0.42653354305E+03  0.44611931032E+03  0.89346069261E+02 0.  0.
         23    2    1    2    0    0 -0.27211621037E+01 -0.80425797920E+02  0.82447067776E+02  0.13876344686E+03  0.77343787762E+02 0.  0.
        -11    1    3    3    0    0 -0.46713543793E+02  0.83998472979E+02  0.29415239748E+03  0.30945683315E+03  0.00000000000E+00 0. -1.
         11    1    3    3    0    0  0.32322284563E+02  0.10350598342E+02  0.13238114556E+03  0.13666247717E+03  0.00000000000E+00 0.  1.
        -13    1    4    4    0    0 -0.20364223314E+02 -0.39183555108E+02 -0.83693499548E+00  0.44167330034E+02  0.00000000000E+00 0. -1.
         13    1    4    4    0    0  0.17643061211E+02 -0.41242242811E+02  0.83284002771E+02  0.94596116826E+02  0.00000000000E+00 0.  1.
          1    1    1    2  501    0  0.17112421334E+02 -0.13923273402E+02 -0.78226292079E+02  0.81277581648E+02  0.00000000000E+00 0. -1.
<scales pt_clust_5="13000.00000" pt_clust_6="13000.00000" pt_clust_7="13000.00000" pt_clust_8="13000.00000" pt_clust_9="22.06111"></scales>
<clustering>
<clus scale="   22.061">  2  9  1 -1</clus>
<clus scale="   77.344">  7  8 -1 -1</clus>
<clus scale="   89.346">  5  6 -1 -1</clus>
<clus scale="  119.659">  2  7  1 -1</clus>
<clus scale="   22.061">  2  5  1 -1</clus>
</clustering>
</event>
<event>
 9    1  0.1445593E-005  0.2788615E+03  0.7546771E-02  0.1130612E+00
          1   -1    0    0  502    0 -0.00000000000E+00  0.00000000000E+00  0.96244864431E+03  0.96244864431E+03  0.00000000000E+00 0. -1.
         21   -1    0    0  501  502  0.00000000000E+00 -0.00000000000E+00 -0.12036327089E+03  0.12036327089E+03  0.00000000000E+00 0. -1.
         23    2    1    2    0    0 -0.56006002071E+02 -0.44906168872E+02  0.25082362440E+03  0.27677904649E+03  0.92417064153E+02 0.  0.
         23    2    1    2    0    0  0.28880812205E+03 -0.14925723858E+02  0.27832690979E+03  0.41143827162E+03  0.90458134191E+02 0.  0.
        -11    1    4    4    0    0  0.10768731839E+03  0.28562892358E+02  0.68159373640E+02  0.13060665212E+03  0.00000000000E+00 0.  1.
         11    1    4    4    0    0  0.18112080366E+03 -0.43488616216E+02  0.21016753615E+03  0.28083161950E+03  0.00000000000E+00 0. -1.
        -13    1    3    3    0    0 -0.10862156340E+02 -0.66215591901E+02  0.14435512914E+03  0.15918823563E+03  0.00000000000E+00 0.  1.
         13    1    3    3    0    0 -0.45143845732E+02  0.21309423029E+02  0.10646849526E+03  0.11759081086E+03  0.00000000000E+00 0. -1.
          1    1    1    2  501    0 -0.23280211998E+03  0.59831892730E+02  0.31293483923E+03  0.39459459710E+03  0.00000000000E+00 0. -1.
<scales pt_clust_5="13000.00000" pt_clust_6="13000.00000" pt_clust_7="13000.00000" pt_clust_8="13000.00000" pt_clust_9="263.78234"></scales>
<clustering>
<clus scale="   90.458">  5  6 -1 -1</clus>
<clus scale="   92.417">  7  8 -1 -1</clus>
<clus scale="  117.022">  1  7  2 -1</clus>
<clus scale="  263.782">  2  9  1 -1</clus>
<clus scale="  263.782">  2  5  1 -1</clus>
</clustering>
</event>
<event>
 9    1  0.1445593E-005  0.1479231E+03  0.7546771E-02  0.1203829E+00
         -1   -1    0    0    0  501 -0.00000000000E+00  0.00000000000E+00  0.48173809758E+03  0.48173809758E+03  0.00000000000E+00 0.  1.
         21   -1    0    0  501  502  0.00000000000E+00 -0.00000000000E+00 -0.87934001440E+02  0.87934001440E+02  0.00000000000E+00 0.  1.
         23    2    1    2    0    0 -0.69162154257E+00 -0.78280846860E+02  0.13483635351E+03  0.18243446581E+03  0.94726568417E+02 0.  0.
         23    2    1    2    0    0 -0.17986917094E+02  0.16416498976E+03  0.22375603908E+03  0.29255480543E+03  0.90817818219E+02 0.  0.
        -11    1    4    4    0    0 -0.14176959597E+02  0.22680257698E+02 -0.12043013464E+01  0.26773692581E+02  0.00000000000E+00 0. -1.
         11    1    4    4    0    0 -0.38099574970E+01  0.14148473207E+03  0.22496034043E+03  0.26578111285E+03  0.00000000000E+00 0.  1.
        -13    1    3    3    0    0 -0.15799139190E+02 -0.21933138247E+02 -0.79620208942E+01  0.28179232232E+02  0.00000000000E+00 0. -1.
         13    1    3    3    0    0  0.15107517647E+02 -0.56347708613E+02  0.14279837440E+03  0.15425523358E+03  0.00000000000E+00 0.  1.
         -1    1    1    2    0  502  0.18678538636E+02 -0.85884142904E+02  0.35211703548E+02  0.94682827771E+02  0.00000000000E+00 0.  1.
<scales pt_clust_5="13000.00000" pt_clust_6="13000.00000" pt_clust_7="13000.00000" pt_clust_8="13000.00000" pt_clust_9="87.89183"></scales>
<clustering>
<clus scale="   87.892">  2  9  1 -1</clus>
<clus scale="   90.818">  5  6 -1 -1</clus>
<clus scale="   94.727">  7  8 -1 -1</clus>
<clus scale="  145.451">  2  5  1 -1</clus>
<clus scale="   87.892">  2  5  1 -1</clus>
</clustering>
</event>
<event>
 9    1  0.1445593E-005  0.1441556E+03  0.7546771E-02  0.1207900E+00
         21   -1    0    0  501  502  0.00000000000E+00  0.00000000000E+00  0.14525263330E+03  0.14525263330E+03  0.00000000000E+00 0.  1.
          2   -1    0    0  502    0 -0.00000000000E+00 -0.00000000000E+00 -0.25859450343E+03  0.25859450343E+03  0.00000000000E+00 0. -1.
         23    2    1    2    0    0  0.44078999838E+02 -0.10112949441E+03 -0.13585689541E+03  0.19693737407E+03  0.90316667403E+02 0.  0.
         23    2    1    2    0    0 -0.27079309762E+02  0.11375782540E+03 -0.29422392294E+02  0.15082090859E+03  0.90593252738E+02 0.  0.
        -13    1    3    3    0    0  0.64834443171E+02 -0.70928380252E+02 -0.61638471113E+02  0.11416497391E+03  0.00000000000E+00 0. -1.
         13    1    3    3    0    0 -0.20755443333E+02 -0.30201114160E+02 -0.74218424293E+02  0.82772400164E+02  0.00000000000E+00 0.  1.
        -13    1    4    4    0    0  0.10412550591E+02  0.67565326343E+02 -0.53330140764E+02  0.86704085530E+02  0.00000000000E+00 0. -1.
         13    1    4    4    0    0 -0.37491860354E+02  0.46192499059E+02  0.23907748471E+02  0.64116823058E+02  0.00000000000E+00 0.  1.
          2    1    1    2  501    0 -0.16999690075E+02 -0.12628330990E+02  0.51937417575E+02  0.56088854067E+02  0.00000000000E+00 0. -1.
<scales pt_clust_5="13000.00000" pt_clust_6="13000.00000" pt_clust_7="13000.00000" pt_clust_8="13000.00000" pt_clust_9="21.17697"></scales>
<clustering>
<clus scale="   21.177">  1  9  2 -1</clus>
<clus scale="   90.317">  5  6 -1 -1</clus>
<clus scale="   90.593">  7  8 -1 -1</clus>
<clus scale="  143.982">  2  5  1 -1</clus>
<clus scale="   21.177">  1  5  2 -1</clus>
</clustering>
</event>
<event>
 9    1  0.1445593E-005  0.2200758E+03  0.7546771E-02  0.1148661E+00
          1   -1    0    0  502    0 -0.00000000000E+00  0.00000000000E+00  0.30752372370E+03  0.30752372370E+03  0.00000000000E+00 0. -1.
         21   -1    0    0  501  502  0.00000000000E+00 -0.00000000000E+00 -0.36918284120E+03  0.36918284120E+03  0.00000000000E+00 0. -1.
         23    2    1    2    0    0 -0.40875668421E+00 -0.12467158816E+03  0.12064096014E+03  0.19562514794E+03  0.90397927339E+02 0.  0.
         23    2    1    2    0    0 -0.19920369258E+03  0.27642188511E+02 -0.11977725604E+03  0.25049751136E+03  0.89197591935E+02 0.  0.
        -11    1    3    3    0    0 -0.27987271559E+02 -0.14062295203E+02  0.57075271949E+02  0.65104701703E+02  0.00000000000E+00 0.  1.
         11    1    3    3    0    0  0.27578514875E+02 -0.11060929296E+03  0.63565688188E+02  0.13052044624E+03  0.00000000000E+00 0. -1.
        -11    1    4    4    0    0 -0.94452333946E+02 -0.18866557565E+02 -0.90593114644E+02  0.13222822242E+03  0.00000000000E+00 0. -1.
         11    1    4    4    0    0 -0.10475135864E+03  0.46508746076E+02 -0.29184141401E+02  0.11826928894E+03  0.00000000000E+00 0.  1.
          1    1    1    2  501    0  0.19961244927E+03  0.97029399650E+02 -0.62522821593E+02  0.23058390560E+03  0.00000000000E+00 0. -1.
<scales pt_clust_5="13000.00000" pt_clust_6="13000.00000" pt_clust_7="13000.00000" pt_clust_8="13000.00000" pt_clust_9="201.18948"></scales>
<clustering>
<clus scale="   89.198">  7  8 -1 -1</clus>
<clus scale="   90.398">  5  6 -1 -1</clus>
<clus scale="  153.997">  1  5  2 -1</clus>
<clus scale="  201.189">  2  9  1 -1</clus>
<clus scale="  201.189">  2  5  1 -1</clus>
</clustering>
</event>
<event>
 9    1  0.1445593E-005  0.1000976E+03  0.7546771E-02  0.1280665E+00
         21   -1    0    0  501  502  0.00000000000E+00  0.00000000000E+00  0.22963359379E+03  0.22963359379E+03  0.00000000000E+00 0.  1.
         -1   -1    0    0    0  501 -0.00000000000E+00 -0.00000000000E+00 -0.11087401051E+03  0.11087401051E+03  0.00000000000E+00 0.  1.
         23    2    1    2    0    0  0.43899818319E+02  0.41788615490E+00 -0.62461561008E+02  0.11880048532E+03  0.91020547310E+02 0.  0.
         23    2    1    2    0    0 -0.14635275774E+02 -0.13211680382E+02  0.11956121045E+03  0.15226619400E+03  0.92202879545E+02 0.  0.
        -11    1    4    4    0    0  0.16189484760E+02 -0.33995496594E+02  0.10633782018E+03  0.11280746964E+03  0.00000000000E+00 0.  1.
         11    1    4    4    0    0 -0.30824760534E+02  0.20783816212E+02  0.13223390271E+02  0.39458724366E+02  0.00000000000E+00 0. -1.
        -13    1    3    3    0    0  0.71637443803E+02 -0.73160718229E+01 -0.40784094006E+02  0.82757420123E+02  0.00000000000E+00 0.  1.
         13    1    3    3    0    0 -0.27737625484E+02  0.77339579778E+01 -0.21677467002E+02  0.36043065201E+02  0.00000000000E+00 0. -1.
         -1    1    1    2    0  502 -0.29264542545E+02  0.12793794227E+02  0.61659933837E+02  0.69440924979E+02  0.00000000000E+00 0.  1.
<scales pt_clust_5="13000.00000" pt_clust_6="13000.00000" pt_clust_7="13000.00000" pt_clust_8="13000.00000" pt_clust_9="31.93892"></scales>
<clustering>
<clus scale="   31.939">  1  9  2 -1</clus>
<clus scale="   91.021">  7  8 -1 -1</clus>
<clus scale="   92.203">  5  6 -1 -1</clus>
<clus scale="   99.010">  2  7  1 -1</clus>
<clus scale="   31.939">  1  5  2 -1</clus>
</clustering>
</event>
<event>
 9    1  0.1445593E-005  0.1209179E+03  0.7546771E-02  0.1242002E+00
          1   -1    0    0  502    0 -0.00000000000E+00  0.00000000000E+00  0.20935015301E+03  0.20935015301E+03  0.00000000000E+00 0. -1.
         21   -1    0    0  501  502  0.00000000000E+00 -0.00000000000E+00 -0.13015281912E+03  0.13015281912E+03  0.00000000000E+00 0. -1.
         23    2    1    2    0    0 -0.47652460182E+02 -0.10576504339E+02  0.25557474640E+02  0.10669028909E+03  0.91361993583E+02 0.  0.
         23    2    1    2    0    0  0.12036667894E+03  0.19423433143E+02  0.32302130381E+02  0.15651770002E+03  0.92676618609E+02 0.  0.
        -11    1    3    3    0    0  0.19552390799E+02  0.18232826254E+02 -0.54219538850E+01  0.27278737564E+02  0.00000000000E+00 0.  1.
         11    1    3    3    0    0 -0.67204850981E+02 -0.28809330592E+02  0.30979428525E+02  0.79411551529E+02  0.00000000000E+00 0. -1.
        -13    1    4    4    0    0  0.19724824966E+02 -0.33399688423E+02  0.14795924559E+02  0.41515386187E+02  0.00000000000E+00 0.  1.
         13    1    4    4    0    0  0.10064185398E+03  0.52823121567E+02  0.17506205822E+02  0.11500231383E+03  0.00000000000E+00 0. -1.
          1    1    1    2  501    0 -0.72714218763E+02 -0.88469288047E+01  0.21337728870E+02  0.76294983012E+02  0.00000000000E+00 0. -1.
<scales pt_clust_5="13000.00000" pt_clust_6="13000.00000" pt_clust_7="13000.00000" pt_clust_8="13000.00000" pt_clust_9="73.25047"></scales>
<clustering>
<clus scale="   73.250">  2  9  1 -1</clus>
<clus scale="   91.362">  5  6 -1 -1</clus>
<clus scale="   92.677">  7  8 -1 -1</clus>
<clus scale="  119.913">  1  5  2 -1</clus>
<clus scale="   73.250">  2  5  1 -1</clus>
</clustering>
</event>
<event>
 9    1  0.1445593E-005  0.1003662E+03  0.7546771E-02  0.1285327E+00
         21   -1    0    0  501  502  0.00000000000E+00  0.00000000000E+00  0.36153586204E+02  0.36153586204E+02  0.00000000000E+00 0.  1.
          1   -1    0    0  502    0 -0.00000000000E+00 -0.00000000000E+00 -0.56976491791E+03  0.56976491791E+03  0.00000000000E+00 0. -1.
         23    2    1    2    0    0  0.32279688995E+00  0.31863189156E+01 -0.42670469429E+03  0.43833168312E+03  0.10023727585E+03 0.  0.
         23    2    1    2    0    0 -0.20641097020E+02  0.23926286067E+02 -0.78109124013E+02  0.12312084021E+03  0.89772958003E+02 0.  0.
        -13    1    3    3    0    0  0.10628607193E+02 -0.46857309853E+02 -0.23998315039E+03  0.24474576043E+03  0.00000000000E+00 0. -1.
         13    1    3    3    0    0 -0.10305810303E+02  0.50043628768E+02 -0.18672154390E+03  0.19358592269E+03  0.00000000000E+00 0.  1.
        -13    1    4    4    0    0 -0.18780820972E+02  0.51703089457E+02 -0.77796925525E+02  0.95280062537E+02  0.00000000000E+00 0.  1.
         13    1    4    4    0    0 -0.18602760482E+01 -0.27776803390E+02 -0.31219848786E+00  0.27840777673E+02  0.00000000000E+00 0. -1.
          1    1    1    2  501    0  0.20318300130E+02 -0.27112604983E+02 -0.28797513404E+02  0.44465980788E+02  0.00000000000E+00 0. -1.
<scales pt_clust_5="13000.00000" pt_clust_6="13000.00000" pt_clust_7="13000.00000" pt_clust_8="13000.00000" pt_clust_9="33.88107"></scales>
<clustering>
<clus scale="   33.881">  1  9  2 -1</clus>
<clus scale="   89.773">  7  8 -1 -1</clus>
<clus scale="   89.917">  1  7  2 -1</clus>
<clus scale="  100.237">  5  6 -1 -1</clus>
<clus scale="   33.881">  1  5  2 -1</clus>
</clustering>
</event>
<event>
 9    1  0.1445593E-005  0.1307050E+03  0.7546771E-02  0.1226647E+00
         21   -1    0    0  501  502  0.00000000000E+00  0.00000000000E+00  0.96863579159E+02  0.96863579159E+02  0.00000000000E+00 0. -1.
         -1   -1    0    0    0  501 -0.00000000000E+00 -0.00000000000E+00 -0.36301788670E+03  0.36301788670E+03  0.00000000000E+00 0.  1.
         23    2    1    2    0    0  0.78551295742E+02  0.46504152160E+02 -0.20083850578E+03  0.23873950272E+03  0.91255150687E+02 0.  0.
         23    2    1    2    0    0 -0.95338862075E+02 -0.27954744176E+02 -0.10755346782E+03  0.17205099295E+03  0.90348377917E+02 0.  0.
        -11    1    3    3    0    0  0.29780160881E+02  0.45475939319E+02 -0.17558794023E+03  0.18380980331E+03  0.00000000000E+00 0.  1.
         11    1    3    3    0    0  0.48771134860E+02  0.10282128410E+01 -0.25250565550E+02  0.54929699415E+02  0.00000000000E+00 0. -1.
        -13    1    4    4    0    0 -0.78612715582E+02 -0.57484133850E+02 -0.62781345067E+02  0.11587010824E+03  0.00000000000E+00 0. -1.
         13    1    4    4    0    0 -0.16726146493E+02  0.29529389674E+02 -0.44772122755E+02  0.56180884712E+02  0.00000000000E+00 0.  1.
         -1    1    1    2    0  502  0.16787566334E+02 -0.18549407984E+02  0.42237666055E+02  0.49090970185E+02  0.00000000000E+00 0.  1.
<scales pt_clust_5="13000.00000" pt_clust_6="13000.00000" pt_clust_7="13000.00000" pt_clust_8="13000.00000" pt_clust_9="25.01805"></scales>
<clustering>
<clus scale="   25.018">  1  9  2 -1</clus>
<clus scale="   90.348">  7  8 -1 -1</clus>
<clus scale="   91.255">  5  6 -1 -1</clus>
<clus scale="  130.074">  1  7  2 -1</clus>
<clus scale="   25.018">  1  5  2 -1</clus>
</clustering>
</event>
<event>
 9    1  0.1445593E-005  0.9200405E+02  0.7546771E-02  0.1298582E+00
          1   -1    0    0  502    0 -0.00000000000E+00  0.00000000000E+00  0.41123934310E+03  0.41123934310E+03  0.00000000000E+00 0. -1.
         21   -1    0    0  501  502  0.00000000000E+00 -0.00000000000E+00 -0.36256093103E+03  0.36256093103E+03  0.00000000000E+00 0. -1.
         23    2    1    2    0    0 -0.11429309520E+02  0.13763377584E+01  0.31457742603E+03  0.32792747921E+03  0.91896415751E+02 0.  0.
         23    2    1    2    0    0 -0.32364126559E+02 -0.12216166746E+02  0.61634721069E+02  0.11524654896E+03  0.91028878874E+02 0.  0.
        -13    1    3    3    0    0 -0.32022824487E+02 -0.37071845071E+02  0.16387891045E+03  0.17104408869E+03  0.00000000000E+00 0. -1.
         13    1    3    3    0    0  0.20593514967E+02  0.38448182830E+02  0.15069851558E+03  0.15688339052E+03  0.00000000000E+00 0.  1.
        -13    1    4    4    0    0 -0.38412849196E+02 -0.47684170313E+02  0.42067196166E+02  0.74289811382E+02  0.00000000000E+00 0. -1.
         13    1    4    4    0    0  0.60487226378E+01  0.35468003567E+02  0.19567524902E+02  0.40956737582E+02  0.00000000000E+00 0.  1.
          1    1    1    2  501    0  0.43793436079E+02  0.10839828987E+02 -0.32753373503E+03  0.33062624596E+03  0.00000000000E+00 0. -1.
<scales pt_clust_5="13000.00000" pt_clust_6="13000.00000" pt_clust_7="13000.00000" pt_clust_8="13000.00000" pt_clust_9="45.11504"></scales>
<clustering>
<clus scale="   45.115">  2  9  1 -1</clus>
<clus scale="   91.029">  7  8 -1 -1</clus>
<clus scale="   91.138">  2  7  1 -1</clus>
<clus scale="   91.896">  5  6 -1 -1</clus>
<clus scale="   45.115">  2  5  1 -1</clus>
</clustering>
</event>
<event>
 9    1  0.1445593E-005  0.1770235E+03  0.7546771E-02  0.1171003E+00
         21   -1    0    0  501  502  0.00000000000E+00  0.00000000000E+00  0.15480722343E+03  0.15480722343E+03  0.00000000000E+00 0. -1.
          1   -1    0    0  502    0 -0.00000000000E+00 -0.00000000000E+00 -0.31836279307E+03  0.31836279307E+03  0.00000000000E+00 0. -1.
         23    2    1    2    0    0 -0.12434512932E+03  0.11884906058E+03 -0.11890131357E+03  0.22824705858E+03  0.91500748595E+02 0.  0.
         23    2    1    2    0    0  0.12775061767E+03 -0.39801496356E+02 -0.20132669214E+02  0.16208925112E+03  0.89236884368E+02 0.  0.
        -13    1    3    3    0    0  0.12151114113E+02  0.20914242985E+02 -0.28816765332E+02  0.37622614184E+02  0.00000000000E+00 0.  1.
         13    1    3    3    0    0 -0.13649624343E+03  0.97934817595E+02 -0.90084548241E+02  0.19062444439E+03  0.00000000000E+00 0. -1.
        -13    1    4    4    0    0  0.67683927100E+02  0.10631960002E+00  0.30230701733E+02  0.74128406288E+02  0.00000000000E+00 0.  1.
         13    1    4    4    0    0  0.60066690575E+02 -0.39907815956E+02 -0.50363370947E+02  0.87960844835E+02  0.00000000000E+00 0. -1.
          1    1    1    2  501    0 -0.34054883578E+01 -0.79047564224E+02 -0.24521586846E+02  0.82833706800E+02  0.00000000000E+00 0. -1.
<scales pt_clust_5="13000.00000" pt_clust_6="13000.00000" pt_clust_7="13000.00000" pt_clust_8="13000.00000" pt_clust_9="79.12089"></scales>
<clustering>
<clus scale="   79.121">  1  9  2 -1</clus>
<clus scale="   89.237">  7  8 -1 -1</clus>
<clus scale="   91.501">  5  6 -1 -1</clus>
<clus scale="  175.864">  1  7  2 -1</clus>
<clus scale="   79.121">  1  5  2 -1</clus>
</clustering>
</event>
<event>
 9    1  0.1445593E-005  0.9197239E+02  0.7546771E-02  0.1298209E+00
         21   -1    0    0  501  502  0.00000000000E+00  0.00000000000E+00  0.36375535985E+03  0.36375535985E+03  0.00000000000E+00 0. -1.
          3   -1    0    0  502    0 -0.00000000000E+00 -0.00000000000E+00 -0.10108941840E+03  0.10108941840E+03  0.00000000000E+00 0. -1.
         23    2    1    2    0    0  0.29251845136E+01  0.13338154086E+02 -0.27500079379E+02  0.93663105408E+02  0.88487625632E+02 0.  0.
         23    2    1    2    0    0 -0.47369554090E+02 -0.29286280890E+02  0.32751413074E+02  0.10947205319E+03  0.88373720460E+02 0.  0.
        -13    1    4    4    0    0  0.21931069288E+02  0.72558397785E+01 -0.31120660787E+01  0.23308881704E+02  0.00000000000E+00 0.  1.
         13    1    4    4    0    0 -0.69300623377E+02 -0.36542120668E+02  0.35863479153E+02  0.86163171485E+02  0.00000000000E+00 0. -1.
        -13    1    3    3    0    0  0.22784970777E+02  0.17918791014E+02  0.24409720470E+02  0.37895546152E+02  0.00000000000E+00 0.  1.
         13    1    3    3    0    0 -0.19859786263E+02 -0.45806369286E+01 -0.51909799849E+02  0.55767559257E+02  0.00000000000E+00 0. -1.
          3    1    1    2  501    0  0.44444369576E+02  0.15948126804E+02  0.25741460775E+03  0.26170961965E+03  0.00000000000E+00 0. -1.
<scales pt_clust_5="13000.00000" pt_clust_6="13000.00000" pt_clust_7="13000.00000" pt_clust_8="13000.00000" pt_clust_9="47.21911"></scales>
<clustering>
<clus scale="   47.219">  1  9  2 -1</clus>
<clus scale="   88.374">  5  6 -1 -1</clus>
<clus scale="   88.488">  7  8 -1 -1</clus>
<clus scale="   91.863">  1  5  2 -1</clus>
<clus scale="   47.219">  1  5  2 -1</clus>
</clustering>
</event>
<event>
 9    1  0.1445593E-005  0.1442379E+03  0.7546771E-02  0.1207791E+00
          1   -1    0    0  502    0 -0.00000000000E+00  0.00000000000E+00  0.44126665472E+03  0.44126665472E+03  0.00000000000E+00 0. -1.
         21   -1    0    0  501  502  0.00000000000E+00 -0.00000000000E+00 -0.10387012586E+03  0.10387012586E+03  0.00000000000E+00 0. -1.
         23    2    1    2    0    0  0.77838925628E+02  0.58978648367E+02  0.24952432529E+03  0.28322788582E+03  0.91751114901E+02 0.  0.
         23    2    1    2    0    0 -0.12304335237E+03 -0.96599918502E+02  0.91445348918E+02  0.20298888516E+03  0.91493304899E+02 0.  0.
        -13    1    3    3    0    0  0.59107876371E+02  0.49516183445E+01  0.56521893739E+02  0.81932802010E+02  0.00000000000E+00 0. -1.
         13    1    3    3    0    0  0.18731049256E+02  0.54027030023E+02  0.19300243155E+03  0.20129508381E+03  0.00000000000E+00 0.  1.
        -13    1    4    4    0    0 -0.81019078133E+02 -0.90438289148E+02  0.24751107072E+02  0.12391849122E+03  0.00000000000E+00 0.  1.
         13    1    4    4    0    0 -0.42024274241E+02 -0.61616293536E+01  0.66694241846E+02  0.79070393936E+02  0.00000000000E+00 0. -1.
          1    1    1    2  501    0  0.45204426747E+02  0.37621270135E+02 -0.35731453479E+01  0.58920009604E+02  0.00000000000E+00 0. -1.
<scales pt_clust_5="13000.00000" pt_clust_6="13000.00000" pt_clust_7="13000.00000" pt_clust_8="13000.00000" pt_clust_9="58.81156"></scales>
<clustering>
<clus scale="   58.812">  2  9  1 -1</clus>
<clus scale="   91.493">  7  8 -1 -1</clus>
<clus scale="   91.751">  5  6 -1 -1</clus>
<clus scale="  144.074">  2  7  1 -1</clus>
<clus scale="   58.812">  2  5  1 -1</clus>
</clustering>
</event>
<event>
 9    1  0.1445593E-005  0.2141599E+03  0.7546771E-02  0.1138972E+00
          3   -1    0    0  502    0 -0.00000000000E+00  0.00000000000E+00  0.81990862992E+03  0.81990862992E+03  0.00000000000E+00 0. -1.
         21   -1    0    0  501  502  0.00000000000E+00 -0.00000000000E+00 -0.85032509150E+02  0.85032509150E+02  0.00000000000E+00 0. -1.
         23    2    1    2    0    0 -0.11988537052E+03  0.10895990932E+03  0.30042960980E+03  0.35301893121E+03  0.90109108583E+02 0.  0.
         23    2    1    2    0    0  0.19855909002E+03 -0.12764050380E+03  0.36377190569E+03  0.44452845300E+03  0.97763672798E+02 0.  0.
        -11    1    3    3    0    0 -0.16457130749E+02  0.62192138538E+02  0.63962114706E+02  0.90718528240E+02  0.00000000000E+00 0. -1.
         11    1    3    3    0    0 -0.10342823977E+03  0.46767770781E+02  0.23646749509E+03  0.26230040297E+03  0.00000000000E+00 0.  1.
        -13    1    4    4    0    0  0.27848477022E+02 -0.42239526352E+02  0.26811442554E+02  0.57258787192E+02  0.00000000000E+00 0.  1.
         13    1    4    4    0    0  0.17071061299E+03 -0.85400977446E+02  0.33696046313E+03  0.38726966581E+03  0.00000000000E+00 0. -1.
          3    1    1    2  501    0 -0.78673719501E+02  0.18680594479E+02  0.70674605281E+02  0.10739375486E+03  0.00000000000E+00 0. -1.
<scales pt_clust_5="13000.00000" pt_clust_6="13000.00000" pt_clust_7="13000.00000" pt_clust_8="13000.00000" pt_clust_9="80.86111"></scales>
<clustering>
<clus scale="   80.861">  2  9  1 -1</clus>
<clus scale="   90.109">  5  6 -1 -1</clus>
<clus scale="   97.764">  7  8 -1 -1</clus>
<clus scale="  210.776">  1  5  2 -1</clus>
<clus scale="   80.861">  2  5  1 -1</clus>
</clustering>
</event>
<event>
 9    1  0.1445593E-005  0.2212622E+03  0.7546771E-02  0.1165831E+00
          1   -1    0    0  502    0 -0.00000000000E+00  0.00000000000E+00  0.27974460026E+03  0.27974460026E+03  0.00000000000E+00 0. -1.
         21   -1    0    0  501  502  0.00000000000E+00 -0.00000000000E+00 -0.99410376623E+03  0.99410376623E+03  0.00000000000E+00 0. -1.
         23    2    1    2    0    0  0.21210189016E+01  0.41126389431E+02  0.20768819751E+03  0.23112330342E+03  0.92669927004E+02 0.  0.
         23    2    1    2    0    0 -0.99761704011E+01 -0.21276422003E+03 -0.79771082287E+03  0.83063823267E+03  0.90824992980E+02 0.  0.
        -11    1    4    4    0    0  0.18450954070E+02 -0.12339308207E+02 -0.34389139362E+02  0.40930540421E+02  0.00000000000E+00 0.  1.
         11    1    4    4    0    0 -0.28427124471E+02 -0.20042491182E+03 -0.76332168351E+03  0.78970769225E+03  0.00000000000E+00 0. -1.
        -13    1    3    3    0    0 -0.37760784765E+02 -0.11299066928E+01  0.12102538250E+03  0.12678445001E+03  0.00000000000E+00 0.  1.
         13    1    3    3    0    0  0.39881803667E+02  0.42256296124E+02  0.86662815015E+02  0.10433885342E+03  0.00000000000E+00 0. -1.
          1    1    1    2  501    0  0.78551514995E+01  0.17163783060E+03 -0.12433654062E+03  0.21208683040E+03  0.00000000000E+00 0. -1.
<scales pt_clust_5="13000.00000" pt_clust_6="13000.00000" pt_clust_7="13000.00000" pt_clust_8="13000.00000" pt_clust_9="201.76179"></scales>
<clustering>
<clus scale="   90.825">  5  6 -1 -1</clus>
<clus scale="   92.670">  7  8 -1 -1</clus>
<clus scale="  101.408">  1  7  2 -1</clus>
<clus scale="  201.762">  2  9  1 -1</clus>
<clus scale="  201.762">  2  5  1 -1</clus>
</clustering>
</event>
<event>
 9    1  0.1445593E-005  0.1060700E+03  0.7546771E-02  0.1269101E+00
         21   -1    0    0  501  502  0.00000000000E+00  0.00000000000E+00  0.34662000758E+03  0.34662000758E+03  0.00000000000E+00 0. -1.
         -4   -1    0    0    0  501 -0.00000000000E+00 -0.00000000000E+00 -0.67465756245E+02  0.67465756245E+02  0.00000000000E+00 0.  1.
         23    2    1    2    0    0  0.45258692301E+02  0.64413910455E+02  0.56889243195E+02  0.13299349801E+03  0.90848133898E+02 0.  0.
         23    2    1    2    0    0 -0.21697287593E+02  0.77655953733E+01  0.12527033453E+03  0.15791358437E+03  0.93343273221E+02 0.  0.
        -11    1    3    3    0    0 -0.21093532362E+02  0.75241068093E+01  0.37169196880E+02  0.43394682709E+02  0.00000000000E+00 0.  1.
         11    1    3    3    0    0  0.66352224663E+02  0.56889803646E+02  0.19720046316E+02  0.89598815301E+02  0.00000000000E+00 0. -1.
        -13    1    4    4    0    0 -0.48750636958E+02 -0.23102836419E+02  0.83018083815E+02  0.99006908318E+02  0.00000000000E+00 0.  1.
         13    1    4    4    0    0  0.27053349366E+02  0.30868431793E+02  0.42252250714E+02  0.58906676053E+02  0.00000000000E+00 0. -1.
         -4    1    1    2    0  502 -0.23561404708E+02 -0.72179505829E+02  0.96994673610E+02  0.12317868144E+03  0.00000000000E+00 0.  1.
<scales pt_clust_5="13000.00000" pt_clust_6="13000.00000" pt_clust_7="13000.00000" pt_clust_8="13000.00000" pt_clust_9="75.92773"></scales>
<clustering>
<clus scale="   75.928">  1  9  2 -1</clus>
<clus scale="   90.848">  5  6 -1 -1</clus>
<clus scale="   93.343">  7  8 -1 -1</clus>
<clus scale="  103.881">  2  5  1 -1</clus>
<clus scale="   75.928">  1  5  2 -1</clus>
</clustering>
</event>
<event>
 9    1  0.1445593E-005  0.1603244E+03  0.7546771E-02  0.1190082E+00
         21   -1    0    0  501  502  0.00000000000E+00  0.00000000000E+00  0.15985844833E+03  0.15985844833E+03  0.00000000000E+00 0.  1.
         -3   -1    0    0    0  501 -0.00000000000E+00 -0.00000000000E+00 -0.22261542835E+03  0.22261542835E+03  0.00000000000E+00 0.  1.
         23    2    1    2    0    0 -0.37513005204E+02  0.11078504251E+03 -0.68724653150E+02  0.15947204033E+03  0.83831393254E+02 0.  0.
         23    2    1    2    0    0  0.37029658423E+02 -0.14778228426E+03 -0.15902570774E+02  0.18002117686E+03  0.94572370261E+02 0.  0.
        -13    1    4    4    0    0  0.64610865249E+01 -0.14827776719E+03 -0.90760608896E+01  0.14869571871E+03  0.00000000000E+00 0.  1.
         13    1    4    4    0    0  0.30568571898E+02  0.49548292694E+00 -0.68265098841E+01  0.31325458151E+02  0.00000000000E+00 0. -1.
        -13    1    3    3    0    0 -0.63134575649E+02  0.86207588469E+02 -0.61339991662E+02  0.12320843124E+03  0.00000000000E+00 0.  1.
         13    1    3    3    0    0  0.25621570445E+02  0.24577454038E+02 -0.73846614881E+01  0.36263609092E+02  0.00000000000E+00 0. -1.
         -3    1    1    2    0  502  0.48334678139E+00  0.36997241752E+02  0.21870243910E+02  0.42980659489E+02  0.00000000000E+00 0.  1.
<scales pt_clust_5="13000.00000" pt_clust_6="13000.00000" pt_clust_7="13000.00000" pt_clust_8="13000.00000" pt_clust_9="37.00040"></scales>
<clustering>
<clus scale="   37.000">  1  9  2 -1</clus>
<clus scale="   83.831">  7  8 -1 -1</clus>
<clus scale="   94.572">  5  6 -1 -1</clus>
<clus scale="  154.233">  2  7  1 -1</clus>
<clus scale="   37.000">  1  5  2 -1</clus>
</clustering>
</event>
<event>
 9    1  0.1445593E-005  0.1082300E+03  0.7546771E-02  0.1264496E+00
         21   -1    0    0  501  502  0.00000000000E+00  0.00000000000E+00  0.17332183646E+03  0.17332183646E+03  0.00000000000E+00 0. -1.
          3   -1    0    0  502    0 -0.00000000000E+00 -0.00000000000E+00 -0.14114775265E+03  0.14114775265E+03  0.00000000000E+00 0. -1.
         23    2    1    2    0    0  0.61032010314E+02 -0.34608297126E+02 -0.70145110298E+02  0.13387885262E+03  0.89891991675E+02 0.  0.
         23    2    1    2    0    0 -0.23408034855E+02  0.21637173752E+02  0.36093358155E+02  0.10332706508E+03  0.91420175521E+02 0.  0.
        -11    1    4    4    0    0  0.23864568674E+01 -0.20893118315E+02 -0.19535606978E+02  0.28702918132E+02  0.00000000000E+00 0. -1.
         11    1    4    4    0    0 -0.25794491722E+02  0.42530292068E+02  0.55628965133E+02  0.74624146952E+02  0.00000000000E+00 0.  1.
        -13    1    3    3    0    0  0.20478002493E+02  0.10670177879E+02 -0.69345507409E+02  0.73088991509E+02  0.00000000000E+00 0. -1.
         13    1    3    3    0    0  0.40554007821E+02 -0.45278475005E+02 -0.79960288939E+00  0.60789861111E+02  0.00000000000E+00 0.  1.
          3    1    1    2  501    0 -0.37623975459E+02  0.12971123374E+02  0.66225835956E+02  0.77263671405E+02  0.00000000000E+00 0. -1.
<scales pt_clust_5="13000.00000" pt_clust_6="13000.00000" pt_clust_7="13000.00000" pt_clust_8="13000.00000" pt_clust_9="39.79716"></scales>
<clustering>
<clus scale="   39.797">  1  9  2 -1</clus>
<clus scale="   89.892">  7  8 -1 -1</clus>
<clus scale="   91.420">  5  6 -1 -1</clus>
<clus scale="  106.942">  2  7  1 -1</clus>
<clus scale="   39.797">  1  5  2 -1</clus>
</clustering>
</event>
<event>
 9    1  0.1445593E-005  0.1002148E+03  0.7546771E-02  0.1282273E+00
          2   -1    0    0  502    0 -0.00000000000E+00  0.00000000000E+00  0.47534566950E+03  0.47534566950E+03  0.00000000000E+00 0. -1.
         21   -1    0    0  501  502  0.00000000000E+00 -0.00000000000E+00 -0.33308414920E+02  0.33308414920E+02  0.00000000000E+00 0.  1.
         23    2    1    2    0    0 -0.21362631835E+02 -0.79456382046E+01  0.33642281669E+03  0.35134078792E+03  0.98694186569E+02 0.  0.
         23    2    1    2    0    0  0.19206374464E+00  0.33454041656E+01  0.78397872838E+02  0.12252685489E+03  0.94103002537E+02 0.  0.
        -11    1    4    4    0    0 -0.26796876331E+02 -0.25206082787E+02  0.22702110254E+01  0.36858825927E+02  0.00000000000E+00 0.  1.
         11    1    4    4    0    0  0.26988940076E+02  0.28551486953E+02  0.76127661813E+02  0.85668028965E+02  0.00000000000E+00 0. -1.
        -11    1    3    3    0    0 -0.29926573638E+02 -0.43392651522E+02  0.27418871813E+03  0.27920955421E+03  0.00000000000E+00 0.  1.
         11    1    3    3    0    0  0.85639418028E+01  0.35447013318E+02  0.62234098560E+02  0.72131233706E+02  0.00000000000E+00 0. -1.
          2    1    1    2  501    0  0.21170568091E+02  0.46002340390E+01  0.27216565054E+02  0.34786441609E+02  0.00000000000E+00 0. -1.
<scales pt_clust_5="13000.00000" pt_clust_6="13000.00000" pt_clust_7="13000.00000" pt_clust_8="13000.00000" pt_clust_9="21.66460"></scales>
<clustering>
<clus scale="   21.665">  2  9  1 -1</clus>
<clus scale="   94.103">  5  6 -1 -1</clus>
<clus scale="   95.697">  2  5  1 -1</clus>
<clus scale="   98.694">  7  8 -1 -1</clus>
<clus scale="   21.665">  2  5  1 -1</clus>
</clustering>
</event>
<event>
 9    1  0.1445593E-005  0.9519270E+02  0.7546771E-02  0.1291103E+00
         -4   -1    0    0    0  501 -0.00000000000E+00  0.00000000000E+00  0.62005699654E+02  0.62005699654E+02  0.00000000000E+00 0.  1.
         21   -1    0    0  501  502  0.00000000000E+00 -0.00000000000E+00 -0.22411133199E+03  0.22411133199E+03  0.00000000000E+00 0. -1.
         23    2    1    2    0    0 -0.15419938240E+02  0.67595329815E+01 -0.64505493184E+02  0.11436429604E+03  0.92923451162E+02 0.  0.
         23    2    1    2    0    0  0.27289646677E+02  0.17493983208E+02 -0.10526498060E+03  0.14368366329E+03  0.92268709167E+02 0.  0.
        -11    1    4    4    0    0  0.55105161700E+02 -0.12815371094E+02 -0.58009569725E+02  0.81030381721E+02  0.00000000000E+00 0.  1.
         11    1    4    4    0    0 -0.27815515024E+02  0.30309354302E+02 -0.47255410876E+02  0.62653281569E+02  0.00000000000E+00 0. -1.
        -13    1    3    3    0    0  0.15843324901E+02 -0.19724760192E+02  0.11675380769E+02  0.27863804921E+02  0.00000000000E+00 0.  1.
         13    1    3    3    0    0 -0.31263263140E+02  0.26484293174E+02 -0.76180873954E+02  0.86500491117E+02  0.00000000000E+00 0. -1.
         -4    1    1    2    0  502 -0.11869708437E+02 -0.24253516189E+02  0.76648414539E+01  0.28069072312E+02  0.00000000000E+00 0.  1.
<scales pt_clust_5="13000.00000" pt_clust_6="13000.00000" pt_clust_7="13000.00000" pt_clust_8="13000.00000" pt_clust_9="27.00229"></scales>
<clustering>
<clus scale="   27.002">  2  9  1 -1</clus>
<clus scale="   92.269">  5  6 -1 -1</clus>
<clus scale="   92.923">  7  8 -1 -1</clus>
<clus scale="   94.554">  2  5  1 -1</clus>
<clus scale="   27.002">  2  5  1 -1</clus>
</clustering>
</event>
<event>
 9    1  0.1445593E-005  0.1304252E+03  0.7546771E-02  0.1227174E+00
          3   -1    0    0  502    0 -0.00000000000E+00  0.00000000000E+00  0.35076529722E+03  0.35076529722E+03  0.00000000000E+00 0. -1.
         21   -1    0    0  501  502  0.00000000000E+00 -0.00000000000E+00 -0.35904226799E+03  0.35904226799E+03  0.00000000000E+00 0. -1.
         23    2    1    2    0    0 -0.97586882434E+02  0.36466322700E+02  0.27993139643E+03  0.31241939456E+03  0.91604034163E+02 0.  0.
         23    2    1    2    0    0  0.49581845771E+02 -0.25509140953E+02 -0.11134809083E+01  0.10610134102E+03  0.90261725138E+02 0.  0.
        -13    1    3    3    0    0 -0.45047520152E+02  0.43495465760E+02  0.23414980518E+03  0.24237835274E+03  0.00000000000E+00 0.  1.
         13    1    3    3    0    0 -0.52539362282E+02 -0.70291430596E+01  0.45781591254E+02  0.70041041818E+02  0.00000000000E+00 0. -1.
        -13    1    4    4    0    0  0.48828854478E+02 -0.55795788950E+02 -0.92821686132E+01  0.74723394920E+02  0.00000000000E+00 0.  1.
         13    1    4    4    0    0  0.75299129332E+00  0.30286647997E+02  0.81686877049E+01  0.31377946103E+02  0.00000000000E+00 0. -1.
          3    1    1    2  501    0  0.48005036663E+02 -0.10957181748E+02 -0.28709488630E+03  0.29128682963E+03  0.00000000000E+00 0. -1.
<scales pt_clust_5="13000.00000" pt_clust_6="13000.00000" pt_clust_7="13000.00000" pt_clust_8="13000.00000" pt_clust_9="49.23965"></scales>
<clustering>
<clus scale="   49.240">  2  9  1 -1</clus>
<clus scale="   90.262">  7  8 -1 -1</clus>
<clus scale="   91.604">  5  6 -1 -1</clus>
<clus scale="  129.486">  2  7  1 -1</clus>
<clus scale="   49.240">  2  5  1 -1</clus>
</clustering>
</event>
<event>
 9    1  0.1445593E-005  0.1652728E+03  0.7546771E-02  0.1205602E+00
         21   -1    0    0  501  502  0.00000000000E+00  0.00000000000E+00  0.47985384775E+03  0.47985384775E+03  0.00000000000E+00 0.  1.
         -3   -1    0    0    0  501 -0.00000000000E+00 -0.00000000000E+00 -0.95531089614E+02  0.95531089614E+02  0.00000000000E+00 0.  1.
         23    2    1    2    0    0  0.35178114703E+02 -0.25004913177E+02  0.38397452901E+02  0.10747026707E+03  0.90624215737E+02 0.  0.
         23    2    1    2    0    0  0.72746708575E+02 -0.86602691217E+02  0.91461148269E+02  0.16982738103E+03  0.87658929787E+02 0.  0.
        -11    1    3    3    0    0 -0.29208245688E+02 -0.16977808532E+01  0.23173992098E+02  0.37323424089E+02  0.00000000000E+00 0. -1.
         11    1    3    3    0    0  0.64386360391E+02 -0.23307132323E+02  0.15223460803E+02  0.70146842982E+02  0.00000000000E+00 0.  1.
        -11    1    4    4    0    0 -0.20376439518E+02 -0.15939189109E+02  0.12281923693E+02  0.28637435055E+02  0.00000000000E+00 0.  1.
         11    1    4    4    0    0  0.93123148094E+02 -0.70663502108E+02  0.79179224576E+02  0.14118994598E+03  0.00000000000E+00 0. -1.
         -3    1    1    2    0  502 -0.10792482328E+03  0.11160760439E+03  0.25446415697E+03  0.29808728926E+03  0.00000000000E+00 0.  1.
<scales pt_clust_5="13000.00000" pt_clust_6="13000.00000" pt_clust_7="13000.00000" pt_clust_8="13000.00000" pt_clust_9="140.11065"></scales>
<clustering>
<clus scale="   87.659">  7  8 -1 -1</clus>
<clus scale="   90.624">  5  6 -1 -1</clus>
<clus scale="  100.377">  2  5  1 -1</clus>
<clus scale="  140.111">  1  9  2 -1</clus>
<clus scale="  140.111">  1  5  2 -1</clus>
</clustering>
</event>
<event>
 9    1  0.1445593E-005  0.1070908E+03  0.7546771E-02  0.1267588E+00
         21   -1    0    0  501  502  0.00000000000E+00  0.00000000000E+00  0.17505609285E+03  0.17505609285E+03  0.00000000000E+00 0. -1.
          1   -1    0    0  502    0 -0.00000000000E+00 -0.00000000000E+00 -0.12594262475E+03  0.12594262475E+03  0.00000000000E+00 0. -1.
         23    2    1    2    0    0  0.40136148292E+02  0.15950671401E+02 -0.36318649121E+02  0.10724698647E+03  0.91200534615E+02 0.  0.
         23    2    1    2    0    0 -0.65614966297E+02 -0.35623713539E+02  0.10160113840E+03  0.15772901608E+03  0.94769607060E+02 0.  0.
        -13    1    3    3    0    0 -0.98860918543E+01  0.37567936409E+02 -0.35685688928E+02  0.52749910450E+02  0.00000000000E+00 0.  1.
         13    1    3    3    0    0  0.50022240146E+02 -0.21617265007E+02 -0.63296019310E+00  0.54497076016E+02  0.00000000000E+00 0. -1.
        -13    1    4    4    0    0 -0.87940600284E+02 -0.41265678503E+02  0.76349015034E+02  0.12355394570E+03  0.00000000000E+00 0. -1.
         13    1    4    4    0    0  0.22325633986E+02  0.56419649642E+01  0.25252123366E+02  0.34175070388E+02  0.00000000000E+00 0.  1.
          1    1    1    2  501    0  0.25478818005E+02  0.19673042138E+02 -0.16169021175E+02  0.36022715051E+02  0.00000000000E+00 0. -1.
<scales pt_clust_5="13000.00000" pt_clust_6="13000.00000" pt_clust_7="13000.00000" pt_clust_8="13000.00000" pt_clust_9="32.19006"></scales>
<clustering>
<clus scale="   32.190">  1  9  2 -1</clus>
<clus scale="   91.201">  5  6 -1 -1</clus>
<clus scale="   94.770">  7  8 -1 -1</clus>
<clus scale="  103.946">  2  5  1 -1</clus>
<clus scale="   32.190">  1  5  2 -1</clus>
</clustering>
</event>
<event>
 9    1  0.1445593E-005  0.1565700E+03  0.7546771E-02  0.1199026E+00
         21   -1    0    0  501  502  0.00000000000E+00  0.00000000000E+00  0.50906364012E+02  0.50906364012E+02  0.00000000000E+00 0.  1.
          3   -1    0    0  502    0 -0.00000000000E+00 -0.00000000000E+00 -0.65687525512E+03  0.65687525512E+03  0.00000000000E+00 0. -1.
         23    2    1    2    0    0  0.82896274175E+02  0.62428002667E+02 -0.45484275030E+03  0.47550911192E+03  0.91967060590E+02 0.  0.
         23    2    1    2    0    0 -0.80230258018E+02 -0.42512639168E+02 -0.14931791936E+03  0.21209829073E+03  0.12018995424E+03 0.  0.
        -13    1    4    4    0    0 -0.11038029637E+03 -0.35853652890E+02 -0.96581150101E+02  0.15098745910E+03  0.00000000000E+00 0.  1.
         13    1    4    4    0    0  0.30150038351E+02 -0.66589862784E+01 -0.52736769257E+02  0.61110831630E+02  0.00000000000E+00 0. -1.
        -13    1    3    3    0    0 -0.17687976079E+02  0.26107838467E+02 -0.93605694721E+02  0.98775046501E+02  0.00000000000E+00 0.  1.
         13    1    3    3    0    0  0.10058425025E+03  0.36320164200E+02 -0.36123705558E+03  0.37673406542E+03  0.00000000000E+00 0. -1.
          3    1    1    2  501    0 -0.26660161576E+01 -0.19915363498E+02 -0.18082214467E+01  0.20174216471E+02  0.00000000000E+00 0. -1.
<scales pt_clust_5="13000.00000" pt_clust_6="13000.00000" pt_clust_7="13000.00000" pt_clust_8="13000.00000" pt_clust_9="20.09302"></scales>
<clustering>
<clus scale="   20.093">  1  9  2 -1</clus>
<clus scale="   91.967">  7  8 -1 -1</clus>
<clus scale="  120.190">  5  6 -1 -1</clus>
<clus scale="  136.112">  2  7  1 -1</clus>
<clus scale="   20.093">  1  5  2 -1</clus>
</clustering>
</event>
<event>
 9    1  0.1445593E-005  0.1340177E+03  0.7546771E-02  0.1222147E+00
         21   -1    0    0  501  502  0.00000000000E+00  0.00000000000E+00  0.18405764202E+03  0.18405764202E+03  0.00000000000E+00 0.  1.
         -1   -1    0    0    0  501 -0.00000000000E+00 -0.00000000000E+00 -0.55975128830E+03  0.55975128830E+03  0.00000000000E+00 0.  1.
         23    2    1    2    0    0  0.71693144663E+01 -0.10899677707E+03 -0.35391350393E+03  0.38155069570E+03  0.91621332929E+02 0.  0.
         23    2    1    2    0    0  0.42931650112E+02  0.73074150342E+02 -0.16411709075E+03  0.20714424866E+03  0.93762264518E+02 0.  0.
        -13    1    3    3    0    0  0.33536228217E+02 -0.60825261080E+01 -0.59705374911E+02  0.68748872865E+02  0.00000000000E+00 0. -1.
         13    1    3    3    0    0 -0.26366913750E+02 -0.10291425096E+03 -0.29420812902E+03  0.31280182284E+03  0.00000000000E+00 0.  1.
        -13    1    4    4    0    0 -0.62517375201E+00  0.47744657344E+02 -0.14598378850E+03  0.15359430215E+03  0.00000000000E+00 0.  1.
         13    1    4    4    0    0  0.43556823864E+02  0.25329492998E+02 -0.18133302241E+02  0.53549946506E+02  0.00000000000E+00 0. -1.
         -1    1    1    2    0  502 -0.50100964578E+02  0.35922626729E+02  0.14233694839E+03  0.15511398596E+03  0.00000000000E+00 0.  1.
<scales pt_clust_5="13000.00000" pt_clust_6="13000.00000" pt_clust_7="13000.00000" pt_clust_8="13000.00000" pt_clust_9="61.64853"></scales>
<clustering>
<clus scale="   61.649">  1  9  2 -1</clus>
<clus scale="   91.621">  5  6 -1 -1</clus>
<clus scale="   93.762">  7  8 -1 -1</clus>
<clus scale="  132.529">  2  5  1 -1</clus>
<clus scale="   61.649">  1  5  2 -1</clus>
</clustering>
</event>
<event>
 9    1  0.1445593E-005  0.1507905E+03  0.7546771E-02  0.1200963E+00
          2   -1    0    0  502    0 -0.00000000000E+00  0.00000000000E+00  0.31074654081E+03  0.31074654081E+03  0.00000000000E+00 0. -1.
         21   -1    0    0  501  502  0.00000000000E+00 -0.00000000000E+00 -0.19418082704E+03  0.19418082704E+03  0.00000000000E+00 0.  1.
         23    2    1    2    0    0  0.52085243193E+02  0.10174161624E+03  0.14124758606E+03  0.20618733633E+03  0.97458237532E+02 0.  0.
         23    2    1    2    0    0 -0.75878450335E+02 -0.94159683994E+02 -0.12470383555E+03  0.19564786140E+03  0.90019185481E+02 0.  0.
        -11    1    3    3    0    0  0.79006646728E+02  0.55168358277E+02  0.88042196642E+02  0.13052596053E+03  0.00000000000E+00 0.  1.
         11    1    3    3    0    0 -0.26921403535E+02  0.46573257966E+02  0.53205389418E+02  0.75661375807E+02  0.00000000000E+00 0. -1.
        -11    1    4    4    0    0 -0.34328522214E+02 -0.96738630247E+02 -0.11244170370E+03  0.15224961987E+03  0.00000000000E+00 0.  1.
         11    1    4    4    0    0 -0.41549928120E+02  0.25789462531E+01 -0.12262131854E+02  0.43398241533E+02  0.00000000000E+00 0. -1.
          2    1    1    2  501    0  0.23793207142E+02 -0.75819322492E+01  0.10002196326E+03  0.10309217011E+03  0.00000000000E+00 0. -1.
<scales pt_clust_5="13000.00000" pt_clust_6="13000.00000" pt_clust_7="13000.00000" pt_clust_8="13000.00000" pt_clust_9="24.97204"></scales>
<clustering>
<clus scale="   24.972">  2  9  1 -1</clus>
<clus scale="   90.019">  7  8 -1 -1</clus>
<clus scale="   97.458">  5  6 -1 -1</clus>
<clus scale="  146.093">  2  7  1 -1</clus>
<clus scale="   24.972">  2  5  1 -1</clus>
</clustering>
</event>
<event>
 9    1  0.1445593E-005  0.1572876E+03  0.7546771E-02  0.1192153E+00
         -2   -1    0    0    0  501 -0.00000000000E+00  0.00000000000E+00  0.30786935588E+03  0.30786935588E+03  0.00000000000E+00 0.  1.
         21   -1    0    0  501  502  0.00000000000E+00 -0.00000000000E+00 -0.15325095488E+03  0.15325095488E+03  0.00000000000E+00 0. -1.
         23    2    1    2    0    0  0.13877362186E+03 -0.59128962940E+01  0.91272670122E+02  0.18909493263E+03  0.90183772205E+02 0.  0.
         23    2    1    2    0    0 -0.10456265013E+03 -0.80576324357E+02  0.76084356267E+02  0.17814754021E+03  0.92313731172E+02 0.  0.
        -13    1    3    3    0    0  0.24448977681E+02  0.36255378150E+02  0.22627160969E+02  0.49236098220E+02  0.00000000000E+00 0.  1.
         13    1    3    3    0    0  0.11432464418E+03 -0.42168274443E+02  0.68645509153E+02  0.13985883441E+03  0.00000000000E+00 0. -1.
        -13    1    4    4    0    0 -0.18907929752E+02  0.18896593197E+02  0.27019540574E+02  0.38008507137E+02  0.00000000000E+00 0.  1.
         13    1    4    4    0    0 -0.85654720383E+02 -0.99472917554E+02  0.49064815693E+02  0.14013903307E+03  0.00000000000E+00 0. -1.
         -2    1    1    2    0  502 -0.34210971723E+02  0.86489220651E+02 -0.12738625390E+02  0.93877837916E+02  0.00000000000E+00 0.  1.
<scales pt_clust_5="13000.00000" pt_clust_6="13000.00000" pt_clust_7="13000.00000" pt_clust_8="13000.00000" pt_clust_9="93.00955"></scales>
<clustering>
<clus scale="   90.184">  5  6 -1 -1</clus>
<clus scale="   92.314">  7  8 -1 -1</clus>
<clus scale="   93.010">  2  9  1 -1</clus>
<clus scale="  156.047">  1  5  2 -1</clus>
<clus scale="   93.010">  2  5  1 -1</clus>
</clustering>
</event>
<event>
 9    1  0.1445593E-005  0.1054803E+03  0.7546771E-02  0.1270019E+00
          1   -1    0    0  502    0 -0.00000000000E+00  0.00000000000E+00  0.21195715410E+03  0.21195715410E+03  0.00000000000E+00 0. -1.
         21   -1    0    0  501  502  0.00000000000E+00 -0.00000000000E+00 -0.16454601363E+03  0.16454601363E+03  0.00000000000E+00 0. -1.
         23    2    1    2    0    0  0.21435663245E+02 -0.35593613533E+02  0.96940108786E+02  0.13857502577E+03  0.89884704435E+02 0.  0.
         23    2    1    2    0    0 -0.22881243558E+02  0.67011006235E+02  0.55298766608E+02  0.12848410936E+03  0.91848715316E+02 0.  0.
        -11    1    4    4    0    0 -0.76777245012E+01  0.22771299436E+02 -0.25551241426E+02  0.35076280731E+02  0.00000000000E+00 0.  1.
         11    1    4    4    0    0 -0.15203519056E+02  0.44239706799E+02  0.80850008033E+02  0.93407828625E+02  0.00000000000E+00 0. -1.
        -11    1    3    3    0    0 -0.26799762235E+02 -0.40335312156E+02  0.62739619482E+02  0.79255438395E+02  0.00000000000E+00 0.  1.
         11    1    3    3    0    0  0.48235425480E+02  0.47416986227E+01  0.34200489304E+02  0.59319587370E+02  0.00000000000E+00 0. -1.
          1    1    1    2  501    0  0.14455803124E+01 -0.31417392702E+02 -0.10482773492E+03  0.10944403262E+03  0.00000000000E+00 0. -1.
<scales pt_clust_5="13000.00000" pt_clust_6="13000.00000" pt_clust_7="13000.00000" pt_clust_8="13000.00000" pt_clust_9="31.45063"></scales>
<clustering>
<clus scale="   31.451">  2  9  1 -1</clus>
<clus scale="   89.885">  7  8 -1 -1</clus>
<clus scale="   91.849">  5  6 -1 -1</clus>
<clus scale="  103.775">  1  7  2 -1</clus>
<clus scale="   31.451">  2  5  1 -1</clus>
</clustering>
</event>
<event>
 9    1  0.1445593E-005  0.1222796E+03  0.7546771E-02  0.1242461E+00
          1   -1    0    0  502    0 -0.00000000000E+00  0.00000000000E+00  0.21010260637E+03  0.21010260637E+03  0.00000000000E+00 0. -1.
         21   -1    0    0  501  502  0.00000000000E+00 -0.00000000000E+00 -0.23951667659E+03  0.23951667659E+03  0.00000000000E+00 0.  1.
         23    2    1    2    0    0 -0.60632833623E+02 -0.40703525716E+01  0.14153314388E+03  0.18562872646E+03  0.10360253369E+03 0.  0.
         23    2    1    2    0    0  0.82989323013E+02  0.57764514424E+02 -0.93637198378E+02  0.16724494075E+03  0.94757471614E+02 0.  0.
        -11    1    3    3    0    0 -0.12895405140E+02 -0.27412113108E+02 -0.41315077855E+01  0.30574250200E+02  0.00000000000E+00 0.  1.
         11    1    3    3    0    0 -0.47737428483E+02  0.23341760536E+02  0.14566465167E+03  0.15505447626E+03  0.00000000000E+00 0. -1.
        -11    1    4    4    0    0  0.23766431761E+02  0.17248379961E+02  0.18067535375E+02  0.34478772085E+02  0.00000000000E+00 0. -1.
         11    1    4    4    0    0  0.59222891252E+02  0.40516134462E+02 -0.11170473375E+03  0.13276616867E+03  0.00000000000E+00 0.  1.
          1    1    1    2  501    0 -0.22356489390E+02 -0.53694161852E+02 -0.77310015723E+02  0.96745615746E+02  0.00000000000E+00 0. -1.
<scales pt_clust_5="13000.00000" pt_clust_6="13000.00000" pt_clust_7="13000.00000" pt_clust_8="13000.00000" pt_clust_9="58.16249"></scales>
<clustering>
<clus scale="   58.162">  2  9  1 -1</clus>
<clus scale="   94.757">  7  8 -1 -1</clus>
<clus scale="  103.603">  5  6 -1 -1</clus>
<clus scale="  114.882">  2  7  1 -1</clus>
<clus scale="   58.162">  2  5  1 -1</clus>
</clustering>
</event>
<event>
 9    1  0.1445593E-005  0.1491611E+03  0.7546771E-02  0.1201658E+00
         21   -1    0    0  501  502  0.00000000000E+00  0.00000000000E+00  0.90271239310E+03  0.90271239310E+03  0.00000000000E+00 0.  1.
          2   -1    0    0  502    0 -0.00000000000E+00 -0.00000000000E+00 -0.27343396350E+03  0.27343396350E+03  0.00000000000E+00 0. -1.
         23    2    1    2    0    0  0.11032170656E+03 -0.30793560700E+02 -0.22439225686E+03  0.26806684230E+03  0.91590527252E+02 0.  0.
         23    2    1    2    0    0 -0.18147263246E+03  0.18869815192E+02  0.40224702481E+03  0.45092751305E+03  0.90799596894E+02 0.  0.
        -11    1    3    3    0    0  0.37981692903E+02  0.23325183159E+02 -0.12990549477E+03  0.13733939980E+03  0.00000000000E+00 0. -1.
         11    1    3    3    0    0  0.72340013659E+02 -0.54118743859E+02 -0.94486762091E+02  0.13072744250E+03  0.00000000000E+00 0.  1.
        -13    1    4    4    0    0 -0.34860785229E+02  0.20750499754E+02  0.28870030029E+02  0.49792933441E+02  0.00000000000E+00 0. -1.
         13    1    4    4    0    0 -0.14661184723E+03 -0.18806845625E+01  0.37337699479E+03  0.40113457961E+03  0.00000000000E+00 0.  1.
          2    1    1    2  501    0  0.71150925894E+02  0.11923745508E+02  0.45142366165E+03  0.45715200126E+03  0.00000000000E+00 0. -1.
<scales pt_clust_5="13000.00000" pt_clust_6="13000.00000" pt_clust_7="13000.00000" pt_clust_8="13000.00000" pt_clust_9="72.14312"></scales>
<clustering>
<clus scale="   72.143">  1  9  2 -1</clus>
<clus scale="   90.800">  7  8 -1 -1</clus>
<clus scale="   91.591">  5  6 -1 -1</clus>
<clus scale="  148.677">  1  7  2 -1</clus>
<clus scale="   72.143">  1  5  2 -1</clus>
</clustering>
</event>
<event>
 9    1  0.1445593E-005  0.1318442E+03  0.7546771E-02  0.1224768E+00
          2   -1    0    0  502    0 -0.00000000000E+00  0.00000000000E+00  0.33749607341E+03  0.33749607341E+03  0.00000000000E+00 0. -1.
         21   -1    0    0  501  502  0.00000000000E+00 -0.00000000000E+00 -0.99356202602E+02  0.99356202602E+02  0.00000000000E+00 0.  1.
         23    2    1    2    0    0 -0.49344274409E+02  0.86974317595E+02  0.24260112897E+03  0.27790399063E+03  0.91520111955E+02 0.  0.
         23    2    1    2    0    0  0.46256880200E+02 -0.66052915100E+02  0.23234436236E+02  0.12410164173E+03  0.91425881973E+02 0.  0.
        -11    1    4    4    0    0 -0.13627676656E+02 -0.50138441644E+02  0.32741782185E+02  0.61413363384E+02  0.00000000000E+00 0. -1.
         11    1    4    4    0    0  0.59884556856E+02 -0.15914473456E+02 -0.95073459492E+01  0.62688278348E+02  0.00000000000E+00 0.  1.
        -11    1    3    3    0    0 -0.59275456883E+02  0.15483776453E+02  0.13605339361E+03  0.14921076715E+03  0.00000000000E+00 0.  1.
         11    1    3    3    0    0  0.99311824740E+01  0.71490541143E+02  0.10654773536E+03  0.12869322348E+03  0.00000000000E+00 0. -1.
          2    1    1    2  501    0  0.30873942085E+01 -0.20921402496E+02 -0.27695694399E+02  0.34846643649E+02  0.00000000000E+00 0. -1.
<scales pt_clust_5="13000.00000" pt_clust_6="13000.00000" pt_clust_7="13000.00000" pt_clust_8="13000.00000" pt_clust_9="21.14798"></scales>
<clustering>
<clus scale="   21.148">  2  9  1 -1</clus>
<clus scale="   91.426">  5  6 -1 -1</clus>
<clus scale="   91.520">  7  8 -1 -1</clus>
<clus scale="  131.779">  2  5  1 -1</clus>
<clus scale="   21.148">  2  5  1 -1</clus>
</clustering>
</event>
<event>
 9    1  0.1445593E-005  0.1166255E+03  0.7546771E-02  0.1249192E+00
         21   -1    0    0  501  502  0.00000000000E+00  0.00000000000E+00  0.92008985781E+02  0.92008985781E+02  0.00000000000E+00 0.  1.
          3   -1    0    0  502    0 -0.00000000000E+00 -0.00000000000E+00 -0.23767146322E+03  0.23767146322E+03  0.00000000000E+00 0. -1.
         23    2    1    2    0    0  0.54272187292E+02  0.36737655629E+02 -0.12456028398E+03  0.16735596960E+03  0.90540767394E+02 0.  0.
         23    2    1    2    0    0 -0.80230395515E+02 -0.43577244538E+02 -0.21841183606E+01  0.12948392344E+03  0.91790105404E+02 0.  0.
        -11    1    4    4    0    0 -0.82573170814E+02 -0.65868068836E+02 -0.91261216605E+01  0.10601989024E+03  0.00000000000E+00 0.  1.
         11    1    4    4    0    0  0.23427752987E+01  0.22290824299E+02  0.69420032999E+01  0.23464033196E+02  0.00000000000E+00 0. -1.
        -11    1    3    3    0    0 -0.11759163175E+02  0.25020085114E+02 -0.20876679466E+01  0.27724374387E+02  0.00000000000E+00 0.  1.
         11    1    3    3    0    0  0.66031350467E+02  0.11717570515E+02 -0.12247261603E+03  0.13963159521E+03  0.00000000000E+00 0. -1.
          3    1    1    2  501    0  0.25958208223E+02  0.68395889086E+01 -0.18918075101E+02  0.32840555965E+02  0.00000000000E+00 0. -1.
<scales pt_clust_5="13000.00000" pt_clust_6="13000.00000" pt_clust_7="13000.00000" pt_clust_8="13000.00000" pt_clust_9="26.84417"></scales>
<clustering>
<clus scale="   26.844">  1  9  2 -1</clus>
<clus scale="   90.541">  7  8 -1 -1</clus>
<clus scale="   91.790">  5  6 -1 -1</clus>
<clus scale="  115.645">  2  7  1 -1</clus>
<clus scale="   26.844">  1  5  2 -1</clus>
</clustering>
</event>
<event>
 9    1  0.1445593E-005  0.1429274E+03  0.7546771E-02  0.1226841E+00
          1   -1    0    0  502    0 -0.00000000000E+00  0.00000000000E+00  0.94816102723E+02  0.94816102723E+02  0.00000000000E+00 0. -1.
         21   -1    0    0  501  502  0.00000000000E+00 -0.00000000000E+00 -0.55924275519E+03  0.55924275519E+03  0.00000000000E+00 0. -1.
         23    2    1    2    0    0 -0.31138067412E+02  0.20104664280E+02 -0.50214244993E+02  0.11107404564E+03  0.91881426010E+02 0.  0.
         23    2    1    2    0    0  0.42980304732E+02 -0.12688974868E+03 -0.59610159779E+02  0.17246349453E+03  0.90785301020E+02 0.  0.
        -11    1    4    4    0    0  0.19250562231E+02 -0.98372877936E+01  0.19575244139E+02  0.29164131402E+02  0.00000000000E+00 0. -1.
         11    1    4    4    0    0  0.23729742501E+02 -0.11705246089E+03 -0.79185403919E+02  0.14329936313E+03  0.00000000000E+00 0.  1.
        -13    1    3    3    0    0 -0.23736927922E+02 -0.30762967734E+02  0.50706122647E+00  0.38859478150E+02  0.00000000000E+00 0.  1.
         13    1    3    3    0    0 -0.74011394901E+01  0.50867632015E+02 -0.50721306219E+02  0.72214567485E+02  0.00000000000E+00 0. -1.
          1    1    1    2  501    0 -0.11842237319E+02  0.10678508440E+03 -0.35460224770E+03  0.37052131775E+03  0.00000000000E+00 0. -1.
<scales pt_clust_5="13000.00000" pt_clust_6="13000.00000" pt_clust_7="13000.00000" pt_clust_8="13000.00000" pt_clust_9="110.39139"></scales>
<clustering>
<clus scale="   90.785">  5  6 -1 -1</clus>
<clus scale="   91.881">  7  8 -1 -1</clus>
<clus scale="   99.076">  1  7  2 -1</clus>
<clus scale="  110.391">  2  9  1 -1</clus>
<clus scale="  110.391">  2  5  1 -1</clus>
</clustering>
</event>
<event>
 9    1  0.1445593E-005  0.9561194E+02  0.7546771E-02  0.1294924E+00
         21   -1    0    0  501  502  0.00000000000E+00  0.00000000000E+00  0.54184262199E+02  0.54184262199E+02  0.00000000000E+00 0.  1.
          2   -1    0    0  502    0 -0.00000000000E+00 -0.00000000000E+00 -0.22203614618E+03  0.22203614618E+03  0.00000000000E+00 0. -1.
         23    2    1    2    0    0  0.51361964253E+01 -0.26399104142E+02 -0.11045642248E+03  0.14054322894E+03  0.82634646011E+02 0.  0.
         23    2    1    2    0    0  0.18647906560E+02  0.27313966013E+02 -0.54428849762E+02  0.11169132293E+03  0.91753227593E+02 0.  0.
        -13    1    3    3    0    0  0.25347482480E+02  0.22536951032E+02 -0.41120804365E+02  0.53304123494E+02  0.00000000000E+00 0. -1.
         13    1    3    3    0    0 -0.20211286054E+02 -0.48936055174E+02 -0.69335618118E+02  0.87239105451E+02  0.00000000000E+00 0.  1.
        -13    1    4    4    0    0 -0.69866014692E+01  0.50121109273E+02 -0.40897145357E+01  0.50770699817E+02  0.00000000000E+00 0. -1.
         13    1    4    4    0    0  0.25634508029E+02 -0.22807143261E+02 -0.50339135226E+02  0.60920623117E+02  0.00000000000E+00 0.  1.
          2    1    1    2  501    0 -0.23784102985E+02 -0.91486187089E+00 -0.29666117396E+01  0.23985856505E+02  0.00000000000E+00 0. -1.
<scales pt_clust_5="13000.00000" pt_clust_6="13000.00000" pt_clust_7="13000.00000" pt_clust_8="13000.00000" pt_clust_9="23.80169"></scales>
<clustering>
<clus scale="   23.802">  1  9  2 -1</clus>
<clus scale="   82.635">  5  6 -1 -1</clus>
<clus scale="   86.899">  2  5  1 -1</clus>
<clus scale="   91.753">  7  8 -1 -1</clus>
<clus scale="   23.802">  1  5  2 -1</clus>
</clustering>
</event>
<event>
 9    1  0.1445593E-005  0.8978701E+02  0.7546771E-02  0.1304225E+00
         21   -1    0    0  501  502  0.00000000000E+00  0.00000000000E+00  0.25330291344E+03  0.25330291344E+03  0.00000000000E+00 0.  1.
         -3   -1    0    0    0  501 -0.00000000000E+00 -0.00000000000E+00 -0.24047363119E+03  0.24047363119E+03  0.00000000000E+00 0.  1.
         23    2    1    2    0    0 -0.45371104021E+01  0.58469130425E+01 -0.15331011000E+03  0.17695435778E+03  0.88057271966E+02 0.  0.
         23    2    1    2    0    0 -0.44607669185E+02  0.39537553181E+02 -0.28328831561E+02  0.11116993374E+03  0.89460433763E+02 0.  0.
        -11    1    4    4    0    0 -0.25567329537E+02 -0.27641799711E+02 -0.88704732234E+01  0.38683881994E+02  0.00000000000E+00 0.  1.
         11    1    4    4    0    0 -0.19040339648E+02  0.67179352892E+02 -0.19458358337E+02  0.72486051749E+02  0.00000000000E+00 0. -1.
        -13    1    3    3    0    0 -0.31612070816E+02  0.33647537512E+02 -0.58596593199E+02  0.74599199302E+02  0.00000000000E+00 0.  1.
         13    1    3    3    0    0  0.27074960414E+02 -0.27800624470E+02 -0.94713516797E+02  0.10235515848E+03  0.00000000000E+00 0. -1.
         -3    1    1    2    0  502  0.49144779587E+02 -0.45384466224E+02  0.19446822381E+03  0.20565225310E+03  0.00000000000E+00 0.  1.
<scales pt_clust_5="13000.00000" pt_clust_6="13000.00000" pt_clust_7="13000.00000" pt_clust_8="13000.00000" pt_clust_9="66.89514"></scales>
<clustering>
<clus scale="   66.895">  1  9  2 -1</clus>
<clus scale="   88.057">  7  8 -1 -1</clus>
<clus scale="   88.389">  2  7  1 -1</clus>
<clus scale="   89.460">  5  6 -1 -1</clus>
<clus scale="   66.895">  1  5  2 -1</clus>
</clustering>
</event>
<event>
 9    1  0.1445593E-005  0.9398478E+02  0.7546771E-02  0.1293838E+00
         21   -1    0    0  501  502  0.00000000000E+00  0.00000000000E+00  0.59004840605E+02  0.59004840605E+02  0.00000000000E+00 0. -1.
          1   -1    0    0  502    0 -0.00000000000E+00 -0.00000000000E+00 -0.43251596687E+03  0.43251596687E+03  0.00000000000E+00 0. -1.
         23    2    1    2    0    0 -0.26744958861E+02 -0.70266052014E+01 -0.25385296414E+03  0.27066534957E+03  0.89742621148E+02 0.  0.
         23    2    1    2    0    0  0.11265878029E+02  0.28175678082E+02 -0.15187421458E+03  0.17932523683E+03  0.90393443721E+02 0.  0.
        -11    1    3    3    0    0 -0.96503041087E+01  0.33397929425E+02 -0.19017767268E+03  0.19332898708E+03  0.00000000000E+00 0. -1.
         11    1    3    3    0    0 -0.17094654752E+02 -0.40424534626E+02 -0.63675291458E+02  0.77336362490E+02  0.00000000000E+00 0.  1.
        -13    1    4    4    0    0  0.41290614453E+02 -0.10687669212E+02 -0.95298394233E+02  0.10440749522E+03  0.00000000000E+00 0.  1.
         13    1    4    4    0    0 -0.30024736424E+02  0.38863347294E+02 -0.56575820348E+02  0.74917741612E+02  0.00000000000E+00 0. -1.
          1    1    1    2  501    0  0.15479080832E+02 -0.21149072881E+02  0.32216052451E+02  0.41530221076E+02  0.00000000000E+00 0. -1.
<scales pt_clust_5="13000.00000" pt_clust_6="13000.00000" pt_clust_7="13000.00000" pt_clust_8="13000.00000" pt_clust_9="26.20850"></scales>
<clustering>
<clus scale="   26.208">  1  9  2 -1</clus>
<clus scale="   89.743">  5  6 -1 -1</clus>
<clus scale="   90.393">  7  8 -1 -1</clus>
<clus scale="   93.359">  2  5  1 -1</clus>
<clus scale="   26.208">  1  5  2 -1</clus>
</clustering>
</event>
<event>
 9    1  0.1445593E-005  0.9230409E+02  0.7546771E-02  0.1298859E+00
          1   -1    0    0  502    0 -0.00000000000E+00  0.00000000000E+00  0.37754797000E+03  0.37754797000E+03  0.00000000000E+00 0. -1.
         21   -1    0    0  501  502  0.00000000000E+00 -0.00000000000E+00 -0.32658586107E+02  0.32658586107E+02  0.00000000000E+00 0.  1.
         23    2    1    2    0    0  0.14464394896E+02  0.34285062066E+02  0.13727229165E+03  0.16675762546E+03  0.87061698780E+02 0.  0.
         23    2    1    2    0    0 -0.28612731387E+01 -0.54253898973E+01  0.11624684464E+03  0.14692931990E+03  0.89650847272E+02 0.  0.
        -13    1    4    4    0    0  0.33151715352E+02  0.25365661687E+02  0.63870982492E+02  0.76301739351E+02  0.00000000000E+00 0.  1.
         13    1    4    4    0    0 -0.36012988490E+02 -0.30791051584E+02  0.52375862150E+02  0.70627580545E+02  0.00000000000E+00 0. -1.
        -13    1    3    3    0    0  0.38636940818E+02  0.25820895860E+01  0.11444298775E+03  0.12081671170E+03  0.00000000000E+00 0.  1.
         13    1    3    3    0    0 -0.24172545922E+02  0.31702972480E+02  0.22829303905E+02  0.45940913761E+02  0.00000000000E+00 0. -1.
          1    1    1    2  501    0 -0.11603121757E+02 -0.28859672169E+02  0.91370247598E+02  0.96519610744E+02  0.00000000000E+00 0. -1.
<scales pt_clust_5="13000.00000" pt_clust_6="13000.00000" pt_clust_7="13000.00000" pt_clust_8="13000.00000" pt_clust_9="31.10489"></scales>
<clustering>
<clus scale="   31.105">  2  9  1 -1</clus>
<clus scale="   87.062">  7  8 -1 -1</clus>
<clus scale="   89.651">  5  6 -1 -1</clus>
<clus scale="   89.791">  1  7  2 -1</clus>
<clus scale="   31.105">  2  5  1 -1</clus>
</clustering>
</event>
<event>
 9    1  0.1445593E-005  0.1093468E+03  0.7546771E-02  0.1268427E+00
         -3   -1    0    0    0  501 -0.00000000000E+00  0.00000000000E+00  0.97921891818E+02  0.97921891818E+02  0.00000000000E+00 0.  1.
         21   -1    0    0  501  502  0.00000000000E+00 -0.00000000000E+00 -0.32423012628E+03  0.32423012628E+03  0.00000000000E+00 0. -1.
         23    2    1    2    0    0 -0.38578804133E+02 -0.16337760089E+02  0.43702538829E+02  0.11884690963E+03  0.10227135227E+03 0.  0.
         23    2    1    2    0    0  0.31577275252E+02 -0.98830361250E+01 -0.12830216313E+03  0.15902107694E+03  0.87928716197E+02 0.  0.
        -13    1    3    3    0    0 -0.68134166345E+02 -0.28721774529E+02  0.14205393181E+02  0.75292749658E+02  0.00000000000E+00 0. -1.
         13    1    3    3    0    0  0.29555362212E+02  0.12384014441E+02  0.29497145649E+02  0.43554159969E+02  0.00000000000E+00 0.  1.
        -13    1    4    4    0    0  0.67785266267E+01  0.38731065135E+02 -0.51068678082E+02  0.64451948852E+02  0.00000000000E+00 0.  1.
         13    1    4    4    0    0  0.24798748625E+02 -0.48614101260E+02 -0.77233485052E+02  0.94569128091E+02  0.00000000000E+00 0. -1.
         -3    1    1    2    0  502  0.70015288814E+01  0.26220796214E+02 -0.14170861015E+03  0.14428403152E+03  0.00000000000E+00 0.  1.
<scales pt_clust_5="13000.00000" pt_clust_6="13000.00000" pt_clust_7="13000.00000" pt_clust_8="13000.00000" pt_clust_9="27.13948"></scales>
<clustering>
<clus scale="   27.139">  2  9  1 -1</clus>
<clus scale="   87.929">  7  8 -1 -1</clus>
<clus scale="   96.066">  2  7  1 -1</clus>
<clus scale="  102.271">  5  6 -1 -1</clus>
<clus scale="   27.139">  2  5  1 -1</clus>
</clustering>
</event>
<event>
 9    1  0.1445593E-005  0.1041206E+03  0.7546771E-02  0.1272724E+00
          1   -1    0    0  502    0 -0.00000000000E+00  0.00000000000E+00  0.30868490359E+03  0.30868490359E+03  0.00000000000E+00 0. -1.
         21   -1    0    0  501  502  0.00000000000E+00 -0.00000000000E+00 -0.17280983727E+03  0.17280983727E+03  0.00000000000E+00 0. -1.
         23    2    1    2    0    0  0.15936238076E+02  0.43156383742E+02  0.24322598719E+03  0.26387845965E+03  0.91414022330E+02 0.  0.
         23    2    1    2    0    0 -0.25399721340E+02 -0.68594039110E+02 -0.93550314430E+01  0.11593134540E+03  0.89455420111E+02 0.  0.
        -13    1    3    3    0    0  0.12872573376E+01  0.68289690153E+02  0.20338291390E+03  0.21454544619E+03  0.00000000000E+00 0. -1.
         13    1    3    3    0    0  0.14648980738E+02 -0.25133306411E+02  0.39843073293E+02  0.49333013462E+02  0.00000000000E+00 0.  1.
        -13    1    4    4    0    0  0.14397951732E+02 -0.18657724919E+02 -0.38970696210E+02  0.45542583110E+02  0.00000000000E+00 0.  1.
         13    1    4    4    0    0 -0.39797673072E+02 -0.49936314192E+02  0.29615664767E+02  0.70388762289E+02  0.00000000000E+00 0. -1.
          1    1    1    2  501    0  0.94634832635E+01  0.25437655369E+02 -0.97995889435E+02  0.10168493582E+03  0.00000000000E+00 0. -1.
<scales pt_clust_5="13000.00000" pt_clust_6="13000.00000" pt_clust_7="13000.00000" pt_clust_8="13000.00000" pt_clust_9="27.14096"></scales>
<clustering>
<clus scale="   27.141">  2  9  1 -1</clus>
<clus scale="   89.455">  7  8 -1 -1</clus>
<clus scale="   91.414">  5  6 -1 -1</clus>
<clus scale="  102.405">  2  7  1 -1</clus>
<clus scale="   27.141">  2  5  1 -1</clus>
</clustering>
</event>
<event>
 9    1  0.1445593E-005  0.1237026E+03  0.7546771E-02  0.1245180E+00
         21   -1    0    0  501  502  0.00000000000E+00  0.00000000000E+00  0.14116453398E+03  0.14116453398E+03  0.00000000000E+00 0. -1.
          4   -1    0    0  502    0 -0.00000000000E+00 -0.00000000000E+00 -0.23350316939E+03  0.23350316939E+03  0.00000000000E+00 0. -1.
         23    2    1    2    0    0 -0.49663980111E+02 -0.15865538324E+02 -0.13674221092E+03  0.18565214152E+03  0.11423685560E+03 0.  0.
         23    2    1    2    0    0  0.32766889605E+02  0.26705783458E+02 -0.33850343764E+02  0.10822757720E+03  0.93704294296E+02 0.  0.
        -11    1    4    4    0    0  0.53309838331E+02 -0.59846542270E+01  0.44688624887E+01  0.53830527408E+02  0.00000000000E+00 0.  1.
         11    1    4    4    0    0 -0.20542948726E+02  0.32690437685E+02 -0.38319206252E+02  0.54397049793E+02  0.00000000000E+00 0. -1.
        -13    1    3    3    0    0 -0.47175674145E+02 -0.60811480368E+02 -0.10658827162E+03  0.13147106154E+03  0.00000000000E+00 0.  1.
         13    1    3    3    0    0 -0.24883059659E+01  0.44945942045E+02 -0.30153939298E+02  0.54181079982E+02  0.00000000000E+00 0. -1.
          4    1    1    2  501    0  0.16897090505E+02 -0.10840245134E+02  0.78253919268E+02  0.80787984644E+02  0.00000000000E+00 0. -1.
<scales pt_clust_5="13000.00000" pt_clust_6="13000.00000" pt_clust_7="13000.00000" pt_clust_8="13000.00000" pt_clust_9="20.07542"></scales>
<clustering>
<clus scale="   20.075">  1  9  2 -1</clus>
<clus scale="   93.704">  5  6 -1 -1</clus>
<clus scale="  105.037">  1  5  2 -1</clus>
<clus scale="  114.237">  7  8 -1 -1</clus>
<clus scale="   20.075">  1  5  2 -1</clus>
</clustering>
</event>
<event>
 9    1  0.1445593E-005  0.1015941E+03  0.7546771E-02  0.1279420E+00
         -1   -1    0    0    0  501 -0.00000000000E+00  0.00000000000E+00  0.18501873010E+03  0.18501873010E+03  0.00000000000E+00 0.  1.
         21   -1    0    0  501  502  0.00000000000E+00 -0.00000000000E+00 -0.40278864369E+03  0.40278864369E+03  0.00000000000E+00 0.  1.
         23    2    1    2    0    0  0.74783164565E+02  0.22959178294E+02  0.93993229880E+02  0.14899585502E+03  0.85119868295E+02 0.  0.
         23    2    1    2    0    0 -0.55711759330E+01 -0.46743913392E+01  0.25396430110E+02  0.94136003453E+02  0.90353309558E+02 0.  0.
        -13    1    3    3    0    0  0.67986853220E+02 -0.15058126388E+02  0.83988494812E+02  0.10910099285E+03  0.00000000000E+00 0. -1.
         13    1    3    3    0    0  0.67963113451E+01  0.38017304682E+02  0.10004735068E+02  0.39894862162E+02  0.00000000000E+00 0.  1.
        -13    1    4    4    0    0  0.16630978420E+02 -0.41116697003E+02 -0.24187844861E+00  0.44353474733E+02  0.00000000000E+00 0.  1.
         13    1    4    4    0    0 -0.22202154353E+02  0.36442305664E+02  0.25638308559E+02  0.49782528720E+02  0.00000000000E+00 0. -1.
         -1    1    1    2    0  502 -0.69211988632E+02 -0.18284786954E+02 -0.33715957358E+03  0.34467551532E+03  0.00000000000E+00 0.  1.
<scales pt_clust_5="13000.00000" pt_clust_6="13000.00000" pt_clust_7="13000.00000" pt_clust_8="13000.00000" pt_clust_9="71.58654"></scales>
<clustering>
<clus scale="   71.587">  2  9  1 -1</clus>
<clus scale="   85.120">  5  6 -1 -1</clus>
<clus scale="   90.353">  7  8 -1 -1</clus>
<clus scale="   96.969">  1  5  2 -1</clus>
<clus scale="   71.587">  2  5  1 -1</clus>
</clustering>
</event>
<event>
 9    1  0.1445593E-005  0.1029755E+03  0.7546771E-02  0.1274389E+00
         -1   -1    0    0    0  501 -0.00000000000E+00  0.00000000000E+00  0.37401996521E+03  0.37401996521E+03  0.00000000000E+00 0.  1.
         21   -1    0    0  501  502  0.00000000000E+00 -0.00000000000E+00 -0.92037227246E+02  0.92037227246E+02  0.00000000000E+00 0.  1.
         23    2    1    2    0    0 -0.57624386575E+01  0.48612628535E+02  0.23614996965E+03  0.25798571391E+03  0.91615648565E+02 0.  0.
         23    2    1    2    0    0 -0.51017640136E+02 -0.36365855205E+02 -0.28065934806E+02  0.11407690888E+03  0.91107460794E+02 0.  0.
        -11    1    4    4    0    0 -0.76478758908E+02 -0.19904383009E+02 -0.27747116826E+02  0.83756119294E+02  0.00000000000E+00 0.  1.
         11    1    4    4    0    0  0.25461118772E+02 -0.16461472197E+02 -0.31881798007E+00  0.30320789582E+02  0.00000000000E+00 0. -1.
        -11    1    3    3    0    0  0.26611987466E+02  0.62998985611E+02  0.15143615946E+03  0.16616251219E+03  0.00000000000E+00 0. -1.
         11    1    3    3    0    0 -0.32374426124E+02 -0.14386357077E+02  0.84713810191E+02  0.91823201718E+02  0.00000000000E+00 0.  1.
         -1    1    1    2    0  502  0.56780078794E+02 -0.12246773329E+02  0.73898703111E+02  0.93994569664E+02  0.00000000000E+00 0.  1.
<scales pt_clust_5="13000.00000" pt_clust_6="13000.00000" pt_clust_7="13000.00000" pt_clust_8="13000.00000" pt_clust_9="58.08583"></scales>
<clustering>
<clus scale="   58.086">  2  9  1 -1</clus>
<clus scale="   91.107">  5  6 -1 -1</clus>
<clus scale="   91.616">  7  8 -1 -1</clus>
<clus scale="  102.524">  2  5  1 -1</clus>
<clus scale="   58.086">  2  5  1 -1</clus>
</clustering>
</event>
<event>
 9    1  0.1445593E-005  0.9622727E+02  0.7546771E-02  0.1289717E+00
         21   -1    0    0  501  502  0.00000000000E+00  0.00000000000E+00  0.18788855811E+03  0.18788855811E+03  0.00000000000E+00 0. -1.
          2   -1    0    0  502    0 -0.00000000000E+00 -0.00000000000E+00 -0.13883595938E+03  0.13883595938E+03  0.00000000000E+00 0. -1.
         23    2    1    2    0    0  0.10651417980E+01  0.46193327431E+02 -0.79296329297E+02  0.12868376105E+03  0.90203350782E+02 0.  0.
         23    2    1    2    0    0  0.14299806124E+02  0.46989620784E+01  0.46529482204E+02  0.10046756099E+03  0.87762027084E+02 0.  0.
        -11    1    3    3    0    0  0.37943256902E+02  0.83810164052E+01 -0.61878587577E+02  0.73067720512E+02  0.00000000000E+00 0.  1.
         11    1    3    3    0    0 -0.36878115104E+02  0.37812311026E+02 -0.17417741720E+02  0.55616040540E+02  0.00000000000E+00 0. -1.
        -11    1    4    4    0    0  0.45375281140E+02  0.20970112886E+02  0.41625651363E+02  0.65048878733E+02  0.00000000000E+00 0. -1.
         11    1    4    4    0    0 -0.31075475017E+02 -0.16271150808E+02  0.49038308414E+01  0.35418682260E+02  0.00000000000E+00 0.  1.
          2    1    1    2  501    0 -0.15364947922E+02 -0.50892289509E+02  0.81819445819E+02  0.97573195450E+02  0.00000000000E+00 0. -1.
<scales pt_clust_5="13000.00000" pt_clust_6="13000.00000" pt_clust_7="13000.00000" pt_clust_8="13000.00000" pt_clust_9="53.16114"></scales>
<clustering>
<clus scale="   53.161">  1  9  2 -1</clus>
<clus scale="   87.762">  7  8 -1 -1</clus>
<clus scale="   90.203">  5  6 -1 -1</clus>
<clus scale="   93.943">  1  7  2 -1</clus>
<clus scale="   53.161">  1  5  2 -1</clus>
</clustering>
</event>
<event>
 9    1  0.1445593E-005  0.1156972E+03  0.7546771E-02  0.1250604E+00
          2   -1    0    0  502    0 -0.00000000000E+00  0.00000000000E+00  0.75111037887E+02  0.75111037887E+02  0.00000000000E+00 0. -1.
         21   -1    0    0  501  502  0.00000000000E+00 -0.00000000000E+00 -0.34589839603E+03  0.34589839603E+03  0.00000000000E+00 0.  1.
         23    2    1    2    0    0  0.30629361281E+01 -0.51869410766E+02 -0.94255512400E+02  0.14176370217E+03  0.92266073313E+02 0.  0.
         23    2    1    2    0    0  0.70585168310E+02  0.71830107201E+02 -0.86744502124E+02  0.16141432777E+03  0.91586823690E+02 0.  0.
        -11    1    4    4    0    0  0.23361846107E+02  0.67668639107E+02 -0.88679234345E+02  0.11396853590E+03  0.00000000000E+00 0.  1.
         11    1    4    4    0    0  0.47223322203E+02  0.41614680935E+01  0.19347322218E+01  0.47445791861E+02  0.00000000000E+00 0. -1.
        -13    1    3    3    0    0 -0.26431130450E+02 -0.66525881834E+02 -0.53519217196E+02  0.89378992050E+02  0.00000000000E+00 0. -1.
         13    1    3    3    0    0  0.29494066579E+02  0.14656471068E+02 -0.40736295204E+02  0.52384710121E+02  0.00000000000E+00 0.  1.
          2    1    1    2  501    0 -0.73648104438E+02 -0.19960696435E+02 -0.89787343618E+02  0.11783140398E+03  0.00000000000E+00 0. -1.
<scales pt_clust_5="13000.00000" pt_clust_6="13000.00000" pt_clust_7="13000.00000" pt_clust_8="13000.00000" pt_clust_9="76.30513"></scales>
<clustering>
<clus scale="   76.305">  2  9  1 -1</clus>
<clus scale="   91.587">  5  6 -1 -1</clus>
<clus scale="   92.266">  7  8 -1 -1</clus>
<clus scale="  115.156">  2  5  1 -1</clus>
<clus scale="   76.305">  2  5  1 -1</clus>
</clustering>
</event>
<event>
 9    1  0.1445593E-005  0.9780654E+02  0.7546771E-02  0.1285973E+00
         -2   -1    0    0    0  501 -0.00000000000E+00  0.00000000000E+00  0.26449359920E+03  0.26449359920E+03  0.00000000000E+00 0.  1.
         21   -1    0    0  501  502  0.00000000000E+00 -0.00000000000E+00 -0.44789636446E+02  0.44789636446E+02  0.00000000000E+00 0. -1.
         23    2    1    2    0    0  0.16660923101E+02  0.12354140083E+02  0.99012044514E+02  0.13721766998E+03  0.92709723662E+02 0.  0.
         23    2    1    2    0    0 -0.37571524000E+02 -0.20027048290E+02  0.10121633053E+03  0.14247797930E+03  0.90788363458E+02 0.  0.
        -11    1    4    4    0    0 -0.59312914400E+02 -0.31872258763E+02  0.95861997179E+02  0.11714685312E+03  0.00000000000E+00 0. -1.
         11    1    4    4    0    0  0.21741390400E+02  0.11845210473E+02  0.53543333551E+01  0.25331126176E+02  0.00000000000E+00 0.  1.
        -13    1    3    3    0    0 -0.26982460070E+02 -0.15104504937E+02  0.69418104581E+01  0.31692080292E+02  0.00000000000E+00 0. -1.
         13    1    3    3    0    0  0.43643383171E+02  0.27458645020E+02  0.92070234056E+02  0.10552558969E+03  0.00000000000E+00 0.  1.
         -2    1    1    2    0  502  0.20910600899E+02  0.76729082069E+01  0.19475587707E+02  0.29587586364E+02  0.00000000000E+00 0.  1.
<scales pt_clust_5="13000.00000" pt_clust_6="13000.00000" pt_clust_7="13000.00000" pt_clust_8="13000.00000" pt_clust_9="22.27390"></scales>
<clustering>
<clus scale="   22.274">  2  9  1 -1</clus>
<clus scale="   90.788">  5  6 -1 -1</clus>
<clus scale="   92.710">  7  8 -1 -1</clus>
<clus scale="   95.987">  2  5  1 -1</clus>
<clus scale="   22.274">  2  5  1 -1</clus>
</clustering>
</event>
<event>
 9    1  0.1445593E-005  0.9667729E+02  0.7546771E-02  0.1287951E+00
         21   -1    0    0  501  502  0.00000000000E+00  0.00000000000E+00  0.66152622536E+02  0.66152622536E+02  0.00000000000E+00 0. -1.
          2   -1    0    0  502    0 -0.00000000000E+00 -0.00000000000E+00 -0.42283865468E+03  0.42283865468E+03  0.00000000000E+00 0. -1.
         23    2    1    2    0    0  0.18763336361E+02 -0.25090813434E+02 -0.34841159020E+03  0.36127529283E+03  0.90263997881E+02 0.  0.
         23    2    1    2    0    0 -0.38519983109E+02  0.14882383917E+02 -0.20665392888E+02  0.10225871059E+03  0.91238758095E+02 0.  0.
        -11    1    4    4    0    0 -0.28271469730E+02 -0.36799884683E+02 -0.23064057161E+01  0.46463179192E+02  0.00000000000E+00 0. -1.
         11    1    4    4    0    0 -0.10248513379E+02  0.51682268599E+02 -0.18358987172E+02  0.55795531399E+02  0.00000000000E+00 0.  1.
        -11    1    3    3    0    0 -0.23753531402E+01  0.32925374238E+02 -0.14433373418E+03  0.14806062743E+03  0.00000000000E+00 0.  1.
         11    1    3    3    0    0  0.21138689501E+02 -0.58016187672E+02 -0.20407785601E+03  0.21321466540E+03  0.00000000000E+00 0. -1.
          2    1    1    2  501    0  0.19756646749E+02  0.10208429517E+02  0.12390950942E+02  0.25457273797E+02  0.00000000000E+00 0. -1.
<scales pt_clust_5="13000.00000" pt_clust_6="13000.00000" pt_clust_7="13000.00000" pt_clust_8="13000.00000" pt_clust_9="22.23819"></scales>
<clustering>
<clus scale="   22.238">  1  9  2 -1</clus>
<clus scale="   90.264">  7  8 -1 -1</clus>
<clus scale="   91.239">  5  6 -1 -1</clus>
<clus scale="   95.758">  2  7  1 -1</clus>
<clus scale="   22.238">  1  5  2 -1</clus>
</clustering>
</event>
<event>
 9    1  0.1445593E-005  0.9574344E+02  0.7546771E-02  0.1289749E+00
         -3   -1    0    0    0  501 -0.00000000000E+00  0.00000000000E+00  0.43051092832E+03  0.43051092832E+03  0.00000000000E+00 0.  1.
         21   -1    0    0  501  502  0.00000000000E+00 -0.00000000000E+00 -0.91011996546E+02  0.91011996546E+02  0.00000000000E+00 0.  1.
         23    2    1    2    0    0  0.57769542188E+01  0.60732992526E+02  0.21546601054E+03  0.24229455143E+03  0.92515827700E+02 0.  0.
         23    2    1    2    0    0 -0.25354933431E+02  0.32987384943E+02  0.14894371881E+03  0.18029731533E+03  0.92692234436E+02 0.  0.
        -11    1    3    3    0    0  0.36842976995E+02  0.53707187357E+02  0.80125713135E+02  0.10325694569E+03  0.00000000000E+00 0.  1.
         11    1    3    3    0    0 -0.31066022776E+02  0.70258051689E+01  0.13534029740E+03  0.13903760574E+03  0.00000000000E+00 0. -1.
        -13    1    4    4    0    0 -0.23940520690E+02 -0.25317918227E+02  0.93680869636E+02  0.99951242363E+02  0.00000000000E+00 0. -1.
         13    1    4    4    0    0 -0.14144127413E+01  0.58305303170E+02  0.55262849178E+02  0.80346072962E+02  0.00000000000E+00 0.  1.
         -3    1    1    2    0  502  0.19577979212E+02 -0.93720377469E+02 -0.24910797576E+02  0.98931058110E+02  0.00000000000E+00 0.  1.
<scales pt_clust_5="13000.00000" pt_clust_6="13000.00000" pt_clust_7="13000.00000" pt_clust_8="13000.00000" pt_clust_9="95.74344"></scales>
<clustering>
<clus scale="   92.516">  5  6 -1 -1</clus>
<clus scale="   92.692">  7  8 -1 -1</clus>
<clus scale="   95.743">  2  9  1 -1</clus>
<clus scale="   95.316">  1  5  2 -1</clus>
<clus scale="   95.743">  2  5  1 -1</clus>
</clustering>
</event>
<event>
 9    1  0.1445593E-005  0.1107376E+03  0.7546771E-02  0.1259930E+00
         21   -1    0    0  501  502  0.00000000000E+00  0.00000000000E+00  0.47866323873E+03  0.47866323873E+03  0.00000000000E+00 0.  1.
          2   -1    0    0  502    0 -0.00000000000E+00 -0.00000000000E+00 -0.10814000635E+03  0.10814000635E+03  0.00000000000E+00 0. -1.
         23    2    1    2    0    0  0.14937082071E+01  0.57159731584E+02 -0.25936493005E+02  0.10947931262E+03  0.89685852525E+02 0.  0.
         23    2    1    2    0    0 -0.72991256211E+02 -0.64857543410E+02  0.87080489948E+02  0.15969731678E+03  0.91575088508E+02 0.  0.
        -13    1    3    3    0    0 -0.25273453046E+02  0.66024237220E+02 -0.36259188496E+02  0.79452351002E+02  0.00000000000E+00 0. -1.
         13    1    3    3    0    0  0.26767161253E+02 -0.88645056365E+01  0.10322695491E+02  0.30026961617E+02  0.00000000000E+00 0.  1.
        -13    1    4    4    0    0  0.13544592553E+02 -0.40116546676E+02  0.16995167521E+02  0.45624872862E+02  0.00000000000E+00 0. -1.
         13    1    4    4    0    0 -0.86535848764E+02 -0.24740996734E+02  0.70085322427E+02  0.11407244391E+03  0.00000000000E+00 0.  1.
          2    1    1    2  501    0  0.71497548004E+02  0.76978118266E+01  0.30937923544E+03  0.31762661569E+03  0.00000000000E+00 0. -1.
<scales pt_clust_5="13000.00000" pt_clust_6="13000.00000" pt_clust_7="13000.00000" pt_clust_8="13000.00000" pt_clust_9="71.91075"></scales>
<clustering>
<clus scale="   71.911">  1  9  2 -1</clus>
<clus scale="   89.686">  5  6 -1 -1</clus>
<clus scale="   91.575">  7  8 -1 -1</clus>
<clus scale="  109.181">  2  5  1 -1</clus>
<clus scale="   71.911">  1  5  2 -1</clus>
</clustering>
</event>
<event>
 9    1  0.1445593E-005  0.1018413E+03  0.7546771E-02  0.1276577E+00
          1   -1    0    0  502    0 -0.00000000000E+00  0.00000000000E+00  0.12304795993E+03  0.12304795993E+03  0.00000000000E+00 0. -1.
         21   -1    0    0  501  502  0.00000000000E+00 -0.00000000000E+00 -0.16523951608E+03  0.16523951608E+03  0.00000000000E+00 0.  1.
         23    2    1    2    0    0 -0.32211162588E+02 -0.36890350780E+02  0.56232481214E+02  0.11804934823E+03  0.91515570797E+02 0.  0.
         23    2    1    2    0    0 -0.38938832731E+00  0.39603142325E+02 -0.49841981645E+02  0.11166875612E+03  0.91744904239E+02 0.  0.
        -11    1    3    3    0    0 -0.44410173178E+02  0.17737296174E+02  0.26201702247E+02  0.54528931384E+02  0.00000000000E+00 0.  1.
         11    1    3    3    0    0  0.12199010590E+02 -0.54627646954E+02  0.30030778966E+02  0.63520416847E+02  0.00000000000E+00 0. -1.
        -11    1    4    4    0    0 -0.24015011561E+02  0.59715457239E+02 -0.17175462503E+02  0.66615712303E+02  0.00000000000E+00 0.  1.
         11    1    4    4    0    0  0.23625623234E+02 -0.20112314913E+02 -0.32666519142E+02  0.45053043817E+02  0.00000000000E+00 0. -1.
          1    1    1    2  501    0  0.32600550915E+02 -0.27127915451E+01 -0.48582055726E+02  0.58569371659E+02  0.00000000000E+00 0. -1.
<scales pt_clust_5="13000.00000" pt_clust_6="13000.00000" pt_clust_7="13000.00000" pt_clust_8="13000.00000" pt_clust_9="32.71323"></scales>
<clustering>
<clus scale="   32.713">  2  9  1 -1</clus>
<clus scale="   91.516">  5  6 -1 -1</clus>
<clus scale="   91.745">  7  8 -1 -1</clus>
<clus scale="  101.635">  1  5  2 -1</clus>
<clus scale="   32.713">  2  5  1 -1</clus>
</clustering>
</event>
<event>
 9    1  0.1445593E-005  0.8992150E+02  0.7546771E-02  0.1303239E+00
         21   -1    0    0  501  502  0.00000000000E+00  0.00000000000E+00  0.15572698499E+03  0.15572698499E+03  0.00000000000E+00 0.  1.
         -3   -1    0    0    0  501 -0.00000000000E+00 -0.00000000000E+00 -0.10406562168E+03  0.10406562168E+03  0.00000000000E+00 0.  1.
         23    2    1    2    0    0 -0.25683654045E+01  0.12378562708E+02 -0.32706654428E+02  0.96415785345E+02  0.89813434987E+02 0.  0.
         23    2    1    2    0    0 -0.96385050532E+01  0.10632351801E+02  0.18437913473E+02  0.92487551889E+02  0.89487669076E+02 0.  0.
        -13    1    4    4    0    0 -0.32577357201E+02  0.39171102056E+02 -0.11536738984E+01  0.50960675054E+02  0.00000000000E+00 0.  1.
         13    1    4    4    0    0  0.22938852148E+02 -0.28538750255E+02  0.19591587371E+02  0.41526876836E+02  0.00000000000E+00 0. -1.
        -13    1    3    3    0    0  0.32692233390E+02  0.25668317562E+02 -0.40391860254E+02  0.57958148912E+02  0.00000000000E+00 0. -1.
         13    1    3    3    0    0 -0.35260598795E+02 -0.13289754854E+02  0.76852058262E+01  0.38457636433E+02  0.00000000000E+00 0.  1.
         -3    1    1    2    0  502  0.12206870458E+02 -0.23010914509E+02  0.65930104261E+02  0.70889269433E+02  0.00000000000E+00 0.  1.
<scales pt_clust_5="13000.00000" pt_clust_6="13000.00000" pt_clust_7="13000.00000" pt_clust_8="13000.00000" pt_clust_9="26.04822"></scales>
<clustering>
<clus scale="   26.048">  1  9  2 -1</clus>
<clus scale="   89.488">  5  6 -1 -1</clus>
<clus scale="   89.596">  1  5  2 -1</clus>
<clus scale="   89.813">  7  8 -1 -1</clus>
<clus scale="   26.048">  1  5  2 -1</clus>
</clustering>
</event>
<event>
 9    1  0.1445593E-005  0.9344172E+02  0.7546771E-02  0.1295908E+00
          1   -1    0    0  502    0 -0.00000000000E+00  0.00000000000E+00  0.82267157906E+02  0.82267157906E+02  0.00000000000E+00 0. -1.
         21   -1    0    0  501  502  0.00000000000E+00 -0.00000000000E+00 -0.25697900736E+03  0.25697900736E+03  0.00000000000E+00 0.  1.
         23    2    1    2    0    0 -0.56691936253E+01  0.59795582483E+01  0.30100232466E+02  0.96267813370E+02  0.91069056344E+02 0.  0.
         23    2    1    2    0    0 -0.19825654672E+02 -0.15673642810E+02 -0.12049522687E+03  0.15435953554E+03  0.93107716404E+02 0.  0.
        -11    1    4    4    0    0  0.18888592226E+02 -0.21047892037E+02 -0.63521504020E+00  0.28287738927E+02  0.00000000000E+00 0. -1.
         11    1    4    4    0    0 -0.38714246898E+02  0.53742492261E+01 -0.11986001183E+03  0.12607179662E+03  0.00000000000E+00 0.  1.
        -13    1    3    3    0    0  0.55650225304E+01 -0.40379595606E+02  0.26095808211E+02  0.48399095273E+02  0.00000000000E+00 0.  1.
         13    1    3    3    0    0 -0.11234216156E+02  0.46359153854E+02  0.40044242554E+01  0.47868718098E+02  0.00000000000E+00 0. -1.
          1    1    1    2  501    0  0.25494848297E+02  0.96940845622E+01 -0.84316855056E+02  0.88618816352E+02  0.00000000000E+00 0. -1.
<scales pt_clust_5="13000.00000" pt_clust_6="13000.00000" pt_clust_7="13000.00000" pt_clust_8="13000.00000" pt_clust_9="27.27568"></scales>
<clustering>
<clus scale="   27.276">  2  9  1 -1</clus>
<clus scale="   91.069">  7  8 -1 -1</clus>
<clus scale="   91.411">  1  7  2 -1</clus>
<clus scale="   93.108">  5  6 -1 -1</clus>
<clus scale="   27.276">  2  5  1 -1</clus>
</clustering>
</event>
<event>
 9    1  0.1445593E-005  0.1330412E+03  0.7546771E-02  0.1240174E+00
          1   -1    0    0  502    0 -0.00000000000E+00  0.00000000000E+00  0.64958208021E+03  0.64958208021E+03  0.00000000000E+00 0. -1.
         21   -1    0    0  501  502  0.00000000000E+00 -0.00000000000E+00 -0.57254837624E+02  0.57254837624E+02  0.00000000000E+00 0. -1.
         23    2    1    2    0    0 -0.19098511049E+02  0.92012995130E+01  0.18862834940E+03  0.21049833448E+03  0.90991634683E+02 0.  0.
         23    2    1    2    0    0 -0.46296082984E+02  0.70521237567E+02  0.36737982516E+03  0.38701699103E+03  0.87736213500E+02 0.  0.
        -11    1    4    4    0    0 -0.19383081147E+02 -0.16081903549E+02  0.39665643031E+02  0.46986111709E+02  0.00000000000E+00 0. -1.
         11    1    4    4    0    0 -0.26913001837E+02  0.86603141116E+02  0.32771418213E+03  0.34003087932E+03  0.00000000000E+00 0.  1.
        -13    1    3    3    0    0  0.26239823558E+02 -0.41603109782E+00  0.14325349496E+03  0.14563744450E+03  0.00000000000E+00 0.  1.
         13    1    3    3    0    0 -0.45338334607E+02  0.96173306108E+01  0.45374854444E+02  0.64860889979E+02  0.00000000000E+00 0. -1.
          1    1    1    2  501    0  0.65394594033E+02 -0.79722537080E+02  0.36319068017E+02  0.10932159233E+03  0.00000000000E+00 0. -1.
<scales pt_clust_5="13000.00000" pt_clust_6="13000.00000" pt_clust_7="13000.00000" pt_clust_8="13000.00000" pt_clust_9="100.01153"></scales>
<clustering>
<clus scale="   87.736">  5  6 -1 -1</clus>
<clus scale="   90.992">  7  8 -1 -1</clus>
<clus scale="   93.429">  1  7  2 -1</clus>
<clus scale="  100.012">  2  9  1 -1</clus>
<clus scale="  100.012">  2  5  1 -1</clus>
</clustering>
</event>
<event>
 9    1  0.1445593E-005  0.1322798E+03  0.7546771E-02  0.1224801E+00
          2   -1    0    0  502    0 -0.00000000000E+00  0.00000000000E+00  0.15463576257E+03  0.15463576257E+03  0.00000000000E+00 0. -1.
         21   -1    0    0  501  502  0.00000000000E+00 -0.00000000000E+00 -0.14100642701E+03  0.14100642701E+03  0.00000000000E+00 0.  1.
         23    2    1    2    0    0  0.96023268109E+02 -0.35920848122E+02  0.30501898926E+02  0.14249676316E+03  0.94149807887E+02 0.  0.
         23    2    1    2    0    0 -0.81402897350E+02  0.10795382592E+02 -0.16831982766E+02  0.12407575312E+03  0.91479532604E+02 0.  0.
        -13    1    4    4    0    0 -0.21705035767E+01  0.38545163143E+02 -0.84310870314E+00  0.38615431110E+02  0.00000000000E+00 0. -1.
         13    1    4    4    0    0 -0.79232393773E+02 -0.27749780551E+02 -0.15988874063E+02  0.85460322007E+02  0.00000000000E+00 0.  1.
        -13    1    3    3    0    0  0.69313585703E+02 -0.64366434463E+02  0.27797760961E+01  0.94631591995E+02  0.00000000000E+00 0.  1.
         13    1    3    3    0    0  0.26709682406E+02  0.28445586341E+02  0.27722122830E+02  0.47865171166E+02  0.00000000000E+00 0. -1.
          2    1    1    2  501    0 -0.14620370759E+02  0.25125465530E+02 -0.40580593686E-01  0.29069673304E+02  0.00000000000E+00 0. -1.
<scales pt_clust_5="13000.00000" pt_clust_6="13000.00000" pt_clust_7="13000.00000" pt_clust_8="13000.00000" pt_clust_9="29.06964"></scales>
<clustering>
<clus scale="   29.070">  2  9  1 -1</clus>
<clus scale="   91.480">  5  6 -1 -1</clus>
<clus scale="   94.150">  7  8 -1 -1</clus>
<clus scale="  130.393">  2  5  1 -1</clus>
<clus scale="   29.070">  2  5  1 -1</clus>
</clustering>
</event>
<event>
 9    1  0.1445593E-005  0.1123550E+03  0.7546771E-02  0.1258221E+00
          3   -1    0    0  502    0 -0.00000000000E+00  0.00000000000E+00  0.14861708714E+03  0.14861708714E+03  0.00000000000E+00 0. -1.
         21   -1    0    0  501  502  0.00000000000E+00 -0.00000000000E+00 -0.13487829315E+03  0.13487829315E+03  0.00000000000E+00 0.  1.
         23    2    1    2    0    0 -0.38126425395E+02  0.47536500775E+02  0.62509938836E+02  0.12635871167E+03  0.91354739023E+02 0.  0.
         23    2    1    2    0    0  0.58856179631E+02 -0.47180174775E+02 -0.12207039193E+02  0.11510354476E+03  0.86080168672E+02 0.  0.
        -11    1    4    4    0    0 -0.15699329531E+02 -0.34770067161E+02 -0.10223722841E+02  0.39496215348E+02  0.00000000000E+00 0. -1.
         11    1    4    4    0    0  0.74555509163E+02 -0.12410107613E+02 -0.19833163524E+01  0.75607329415E+02  0.00000000000E+00 0.  1.
        -11    1    3    3    0    0  0.11422047201E+02  0.48698618870E+02  0.47435446572E+01  0.50244600287E+02  0.00000000000E+00 0.  1.
         11    1    3    3    0    0 -0.49548472596E+02 -0.11621180950E+01  0.57766394179E+02  0.76114111382E+02  0.00000000000E+00 0. -1.
          3    1    1    2  501    0 -0.20729754236E+02 -0.35632600018E+00 -0.36564105651E+02  0.42033123855E+02  0.00000000000E+00 0. -1.
<scales pt_clust_5="13000.00000" pt_clust_6="13000.00000" pt_clust_7="13000.00000" pt_clust_8="13000.00000" pt_clust_9="20.73282"></scales>
<clustering>
<clus scale="   20.733">  2  9  1 -1</clus>
<clus scale="   86.080">  5  6 -1 -1</clus>
<clus scale="   91.355">  7  8 -1 -1</clus>
<clus scale="  108.110">  2  5  1 -1</clus>
<clus scale="   20.733">  2  5  1 -1</clus>
</clustering>
</event>
<event>
 9    1  0.1445593E-005  0.1881532E+03  0.7546771E-02  0.1160143E+00
         21   -1    0    0  501  502  0.00000000000E+00  0.00000000000E+00  0.11479934176E+03  0.11479934176E+03  0.00000000000E+00 0.  1.
          2   -1    0    0  502    0 -0.00000000000E+00 -0.00000000000E+00 -0.40337759075E+03  0.40337759075E+03  0.00000000000E+00 0. -1.
         23    2    1    2    0    0 -0.94816000172E+02 -0.12055972509E+03 -0.17210203455E+03  0.24814336411E+03  0.91822097862E+02 0.  0.
         23    2    1    2    0    0  0.94606713026E+02  0.15795383754E+03 -0.92138106356E+02  0.22541622925E+03  0.91777997499E+02 0.  0.
        -11    1    4    4    0    0  0.61196770914E+02  0.92688361083E+02 -0.45098584666E+01  0.11115986629E+03  0.00000000000E+00 0.  1.
         11    1    4    4    0    0  0.33409942112E+02  0.65265476453E+02 -0.87628247890E+02  0.11425636296E+03  0.00000000000E+00 0. -1.
        -13    1    3    3    0    0  0.18524512505E+02 -0.17672620899E+02 -0.27409827002E+02  0.37507035464E+02  0.00000000000E+00 0.  1.
         13    1    3    3    0    0 -0.11334051268E+03 -0.10288710419E+03 -0.14469220755E+03  0.21063632865E+03  0.00000000000E+00 0. -1.
          2    1    1    2  501    0  0.20928714686E+00 -0.37394112447E+02 -0.24338108081E+02  0.44617339138E+02  0.00000000000E+00 0. -1.
<scales pt_clust_5="13000.00000" pt_clust_6="13000.00000" pt_clust_7="13000.00000" pt_clust_8="13000.00000" pt_clust_9="37.39470"></scales>
<clustering>
<clus scale="   37.395">  1  9  2 -1</clus>
<clus scale="   91.778">  5  6 -1 -1</clus>
<clus scale="   91.822">  7  8 -1 -1</clus>
<clus scale="  188.132">  1  5  2 -1</clus>
<clus scale="   37.395">  1  5  2 -1</clus>
</clustering>
</event>
<event>
 9    1  0.1445593E-005  0.1282167E+03  0.7546771E-02  0.1230558E+00
         21   -1    0    0  501  502  0.00000000000E+00  0.00000000000E+00  0.16955235907E+03  0.16955235907E+03  0.00000000000E+00 0. -1.
          2   -1    0    0  502    0 -0.00000000000E+00 -0.00000000000E+00 -0.53079416927E+03  0.53079416927E+03  0.00000000000E+00 0. -1.
         23    2    1    2    0    0  0.26223353962E+02  0.59915021176E+02 -0.23365099776E+03  0.25932499032E+03  0.91537903581E+02 0.  0.
         23    2    1    2    0    0 -0.55945407825E+02 -0.11564529506E+03 -0.25413183052E+03  0.29959348858E+03  0.93110408614E+02 0.  0.
        -13    1    3    3    0    0  0.52070164668E+02  0.62534546175E+02 -0.20546504502E+03  0.22099266105E+03  0.00000000000E+00 0. -1.
         13    1    3    3    0    0 -0.25846810707E+02 -0.26195249988E+01 -0.28185952745E+02  0.38332329267E+02  0.00000000000E+00 0.  1.
        -13    1    4    4    0    0 -0.15932680982E+02 -0.85681035744E+02 -0.22602576899E+03  0.24224520316E+03  0.00000000000E+00 0.  1.
         13    1    4    4    0    0 -0.40012726843E+02 -0.29964259317E+02 -0.28106061533E+02  0.57348285421E+02  0.00000000000E+00 0. -1.
          2    1    1    2  501    0  0.29722053863E+02  0.55730273886E+02  0.12654101807E+03  0.14142804944E+03  0.00000000000E+00 0. -1.
<scales pt_clust_5="13000.00000" pt_clust_6="13000.00000" pt_clust_7="13000.00000" pt_clust_8="13000.00000" pt_clust_9="63.16062"></scales>
<clustering>
<clus scale="   63.161">  1  9  2 -1</clus>
<clus scale="   91.538">  5  6 -1 -1</clus>
<clus scale="   93.110">  7  8 -1 -1</clus>
<clus scale="  127.079">  2  5  1 -1</clus>
<clus scale="   63.161">  1  5  2 -1</clus>
</clustering>
</event>
<event>
 9    1  0.1445593E-005  0.1223899E+03  0.7546771E-02  0.1240436E+00
         21   -1    0    0  501  502  0.00000000000E+00  0.00000000000E+00  0.50174812250E+02  0.50174812250E+02  0.00000000000E+00 0.  1.
         -3   -1    0    0    0  501 -0.00000000000E+00 -0.00000000000E+00 -0.44643888824E+03  0.44643888824E+03  0.00000000000E+00 0.  1.
         23    2    1    2    0    0  0.17416049235E+02 -0.65062556445E+02 -0.22485194040E+03  0.25259278612E+03  0.93318087610E+02 0.  0.
         23    2    1    2    0    0 -0.35670717332E+02  0.94240777302E+02 -0.15665391345E+03  0.20657219477E+03  0.89319084577E+02 0.  0.
        -11    1    4    4    0    0 -0.27743928355E+01  0.88680574020E+02 -0.67807674091E+02  0.11166835778E+03  0.00000000000E+00 0.  1.
         11    1    4    4    0    0 -0.32896324496E+02  0.55602032820E+01 -0.88846239361E+02  0.94903836985E+02  0.00000000000E+00 0. -1.
        -13    1    3    3    0    0  0.11339425313E+02  0.22693067563E+02 -0.70625404410E+02  0.75043358334E+02  0.00000000000E+00 0. -1.
         13    1    3    3    0    0  0.60766239218E+01 -0.87755624008E+02 -0.15422653599E+03  0.17754942778E+03  0.00000000000E+00 0.  1.
         -3    1    1    2    0  502  0.18254668097E+02 -0.29178220857E+02 -0.14758222145E+02  0.37448719612E+02  0.00000000000E+00 0.  1.
<scales pt_clust_5="13000.00000" pt_clust_6="13000.00000" pt_clust_7="13000.00000" pt_clust_8="13000.00000" pt_clust_9="34.41804"></scales>
<clustering>
<clus scale="   34.418">  1  9  2 -1</clus>
<clus scale="   89.319">  5  6 -1 -1</clus>
<clus scale="   93.318">  7  8 -1 -1</clus>
<clus scale="  119.369">  1  5  2 -1</clus>
<clus scale="   34.418">  1  5  2 -1</clus>
</clustering>
</event>
<event>
 9    1  0.1445593E-005  0.1205314E+03  0.7546771E-02  0.1242591E+00
         21   -1    0    0  501  502  0.00000000000E+00  0.00000000000E+00  0.23286824125E+03  0.23286824125E+03  0.00000000000E+00 0. -1.
          2   -1    0    0  502    0 -0.00000000000E+00 -0.00000000000E+00 -0.12680483242E+03  0.12680483242E+03  0.00000000000E+00 0. -1.
         23    2    1    2    0    0 -0.79321487401E+02 -0.22955662266E+02 -0.65433174040E+02  0.13990974035E+03  0.92056365269E+02 0.  0.
         23    2    1    2    0    0  0.56631426680E+02  0.21508199332E+02  0.11372619845E+03  0.15767991106E+03  0.90882259057E+02 0.  0.
        -13    1    4    4    0    0 -0.13393282224E+02  0.33990079236E+02  0.51700309779E+02  0.63305825376E+02  0.00000000000E+00 0. -1.
         13    1    4    4    0    0  0.70024708904E+02 -0.12481879904E+02  0.62025888670E+02  0.94374085682E+02  0.00000000000E+00 0.  1.
        -13    1    3    3    0    0 -0.85452947787E+02  0.30200642292E+01 -0.20952139811E+02  0.88035897429E+02  0.00000000000E+00 0.  1.
         13    1    3    3    0    0  0.61314603861E+01 -0.25975726495E+02 -0.44481034229E+02  0.51873842922E+02  0.00000000000E+00 0. -1.
          2    1    1    2  501    0  0.22690060721E+02  0.14474629335E+01  0.57770384412E+02  0.62083422261E+02  0.00000000000E+00 0. -1.
<scales pt_clust_5="13000.00000" pt_clust_6="13000.00000" pt_clust_7="13000.00000" pt_clust_8="13000.00000" pt_clust_9="22.73618"></scales>
<clustering>
<clus scale="   22.736">  1  9  2 -1</clus>
<clus scale="   90.882">  5  6 -1 -1</clus>
<clus scale="   92.056">  7  8 -1 -1</clus>
<clus scale="  119.637">  1  5  2 -1</clus>
<clus scale="   22.736">  1  5  2 -1</clus>
</clustering>
</event>
<event>
 9    1  0.1445593E-005  0.1256400E+03  0.7546771E-02  0.1235865E+00
         21   -1    0    0  501  502  0.00000000000E+00  0.00000000000E+00  0.17845540593E+03  0.17845540593E+03  0.00000000000E+00 0. -1.
          1   -1    0    0  502    0 -0.00000000000E+00 -0.00000000000E+00 -0.51297113345E+03  0.51297113345E+03  0.00000000000E+00 0. -1.
         23    2    1    2    0    0  0.37517013784E+02  0.10427834347E+03 -0.29905018576E+03  0.33172651996E+03  0.91268675893E+02 0.  0.
         23    2    1    2    0    0  0.24514788621E+02 -0.67792106015E+02 -0.17225370847E+03  0.20513549378E+03  0.84926357686E+02 0.  0.
        -11    1    3    3    0    0  0.62006900239E+02  0.42818194942E+02 -0.18685689637E+03  0.20147891507E+03  0.00000000000E+00 0. -1.
         11    1    3    3    0    0 -0.24489886455E+02  0.61460148525E+02 -0.11219328939E+03  0.13024760489E+03  0.00000000000E+00 0.  1.
        -13    1    4    4    0    0 -0.31084530103E+02 -0.18466825092E+02 -0.69184271718E+02  0.78062379504E+02  0.00000000000E+00 0.  1.
         13    1    4    4    0    0  0.55599318724E+02 -0.49325280923E+02 -0.10306943675E+03  0.12707311428E+03  0.00000000000E+00 0. -1.
          1    1    1    2  501    0 -0.62031802405E+02 -0.36486237452E+02  0.13678816671E+03  0.15456452563E+03  0.00000000000E+00 0. -1.
<scales pt_clust_5="13000.00000" pt_clust_6="13000.00000" pt_clust_7="13000.00000" pt_clust_8="13000.00000" pt_clust_9="71.96659"></scales>
<clustering>
<clus scale="   71.967">  1  9  2 -1</clus>
<clus scale="   84.926">  7  8 -1 -1</clus>
<clus scale="   91.269">  5  6 -1 -1</clus>
<clus scale="  121.111">  1  7  2 -1</clus>
<clus scale="   71.967">  1  5  2 -1</clus>
</clustering>
</event>
<event>
 9    1  0.1445593E-005  0.1236648E+03  0.7546771E-02  0.1237210E+00
         21   -1    0    0  501  502  0.00000000000E+00  0.00000000000E+00  0.24274446198E+02  0.24274446198E+02  0.00000000000E+00 0.  1.
          1   -1    0    0  502    0 -0.00000000000E+00 -0.00000000000E+00 -0.95178914096E+03  0.95178914096E+03  0.00000000000E+00 0. -1.
         23    2    1    2    0    0 -0.95733792269E+01  0.74536144543E+02 -0.40898011374E+03  0.42602818124E+03  0.92671415996E+02 0.  0.
         23    2    1    2    0    0  0.44646355158E+02 -0.80145364066E+02 -0.48108837047E+03  0.49842343377E+03  0.92538223024E+02 0.  0.
        -11    1    4    4    0    0  0.48430278835E+02  0.15621819704E+01 -0.17194163037E+03  0.17863889995E+03  0.00000000000E+00 0. -1.
         11    1    4    4    0    0 -0.37839236768E+01 -0.81707546036E+02 -0.30914674010E+03  0.31978453383E+03  0.00000000000E+00 0.  1.
        -11    1    3    3    0    0  0.70087884747E+01 -0.20476157285E+02 -0.53913005206E+02  0.58094821313E+02  0.00000000000E+00 0.  1.
         11    1    3    3    0    0 -0.16582167702E+02  0.95012301828E+02 -0.35506710853E+03  0.36793335992E+03  0.00000000000E+00 0. -1.
          1    1    1    2  501    0 -0.35072975931E+02  0.56092195228E+01 -0.37446210556E+02  0.51611972151E+02  0.00000000000E+00 0. -1.
<scales pt_clust_5="13000.00000" pt_clust_6="13000.00000" pt_clust_7="13000.00000" pt_clust_8="13000.00000" pt_clust_9="35.51869"></scales>
<clustering>
<clus scale="   35.519">  1  9  2 -1</clus>
<clus scale="   92.538">  5  6 -1 -1</clus>
<clus scale="   92.671">  7  8 -1 -1</clus>
<clus scale="  123.565">  1  5  2 -1</clus>
<clus scale="   35.519">  1  5  2 -1</clus>
</clustering>
</event>
<event>
 9    1  0.1445593E-005  0.1253649E+03  0.7546771E-02  0.1234835E+00
          2   -1    0    0  502    0 -0.00000000000E+00  0.00000000000E+00  0.10434133952E+03  0.10434133952E+03  0.00000000000E+00 0. -1.
         21   -1    0    0  501  502  0.00000000000E+00 -0.00000000000E+00 -0.20274070251E+03  0.20274070251E+03  0.00000000000E+00 0.  1.
         23    2    1    2    0    0 -0.24153627956E+02  0.70093864750E+02 -0.12490855384E+02  0.12003271500E+03  0.93569672348E+02 0.  0.
         23    2    1    2    0    0  0.24256652299E+02 -0.93841112187E+02 -0.47899770389E+02  0.14223184741E+03  0.92417373355E+02 0.  0.
        -11    1    3    3    0    0  0.28723432251E+02  0.57826330623E+02 -0.12421872643E+02  0.65751220472E+02  0.00000000000E+00 0.  1.
         11    1    3    3    0    0 -0.52877060207E+02  0.12267534126E+02 -0.68982740973E-01  0.54281494529E+02  0.00000000000E+00 0. -1.
        -11    1    4    4    0    0 -0.20061176510E+02 -0.28031319651E+02 -0.52447016830E+02  0.62760618693E+02  0.00000000000E+00 0. -1.
         11    1    4    4    0    0  0.44317828809E+02 -0.65809792537E+02  0.45472464409E+01  0.79471228720E+02  0.00000000000E+00 0.  1.
          2    1    1    2  501    0 -0.10302434325E+00  0.23747247437E+02 -0.38008737215E+02  0.44817479620E+02  0.00000000000E+00 0. -1.
<scales pt_clust_5="13000.00000" pt_clust_6="13000.00000" pt_clust_7="13000.00000" pt_clust_8="13000.00000" pt_clust_9="23.74747"></scales>
<clustering>
<clus scale="   23.747">  2  9  1 -1</clus>
<clus scale="   92.417">  7  8 -1 -1</clus>
<clus scale="   93.570">  5  6 -1 -1</clus>
<clus scale="  124.507">  2  7  1 -1</clus>
<clus scale="   23.747">  2  5  1 -1</clus>
</clustering>
</event>
<event>
 9    1  0.1445593E-005  0.1657653E+03  0.7546771E-02  0.1182776E+00
         -1   -1    0    0    0  501 -0.00000000000E+00  0.00000000000E+00  0.13011177003E+03  0.13011177003E+03  0.00000000000E+00 0.  1.
         21   -1    0    0  501  502  0.00000000000E+00 -0.00000000000E+00 -0.32903006850E+03  0.32903006850E+03  0.00000000000E+00 0. -1.
         23    2    1    2    0    0  0.75588965337E+02 -0.10206862502E+03 -0.44170046874E+02  0.16046920427E+03  0.87565270423E+02 0.  0.
         23    2    1    2    0    0 -0.11659362512E+03  0.10094246715E+03 -0.49281902604E+02  0.18550991459E+03  0.90563609653E+02 0.  0.
        -11    1    4    4    0    0 -0.49334533089E+02 -0.20323263851E+01 -0.37402438483E+02  0.61943271710E+02  0.00000000000E+00 0.  1.
         11    1    4    4    0    0 -0.67259092033E+02  0.10297479354E+03 -0.11879464121E+02  0.12356664288E+03  0.00000000000E+00 0. -1.
        -13    1    3    3    0    0  0.42092998813E+02 -0.54766943889E+02  0.22010250861E+02  0.72496136690E+02  0.00000000000E+00 0.  1.
         13    1    3    3    0    0  0.33495966524E+02 -0.47301681128E+02 -0.66180297735E+02  0.87973067579E+02  0.00000000000E+00 0. -1.
         -1    1    1    2    0  502  0.41004659785E+02  0.11261578657E+01 -0.10546634899E+03  0.11316271968E+03  0.00000000000E+00 0.  1.
<scales pt_clust_5="13000.00000" pt_clust_6="13000.00000" pt_clust_7="13000.00000" pt_clust_8="13000.00000" pt_clust_9="41.02012"></scales>
<clustering>
<clus scale="   41.020">  2  9  1 -1</clus>
<clus scale="   87.565">  7  8 -1 -1</clus>
<clus scale="   90.564">  5  6 -1 -1</clus>
<clus scale="  164.146">  1  7  2 -1</clus>
<clus scale="   41.020">  2  5  1 -1</clus>
</clustering>
</event>
<event>
 9    1  0.1445593E-005  0.2154960E+03  0.7546771E-02  0.1172511E+00
          4   -1    0    0  502    0 -0.00000000000E+00  0.00000000000E+00  0.55965432367E+03  0.55965432367E+03  0.00000000000E+00 0. -1.
         21   -1    0    0  501  502  0.00000000000E+00 -0.00000000000E+00 -0.18915144484E+03  0.18915144484E+03  0.00000000000E+00 0.  1.
         23    2    1    2    0    0  0.12454096546E+02 -0.11928131941E+00  0.18747604963E+03  0.20980828712E+03  0.93365568667E+02 0.  0.
         23    2    1    2    0    0  0.14391715091E+03  0.12860831735E+03 -0.60805961707E+02  0.22211291354E+03  0.91567110718E+02 0.  0.
        -13    1    4    4    0    0  0.36291496444E+02 -0.10339737755E+02 -0.13807231240E+02  0.40182365853E+02  0.00000000000E+00 0. -1.
         13    1    4    4    0    0  0.10762565446E+03  0.13894805511E+03 -0.46998730467E+02  0.18193054769E+03  0.00000000000E+00 0.  1.
        -13    1    3    3    0    0  0.53042361622E+02 -0.47218025897E+01  0.11066772407E+03  0.12281340601E+03  0.00000000000E+00 0.  1.
         13    1    3    3    0    0 -0.40588265076E+02  0.46025212703E+01  0.76808325561E+02  0.86994881110E+02  0.00000000000E+00 0. -1.
          4    1    1    2  501    0 -0.15637124745E+03 -0.12848903603E+03  0.24383279091E+03  0.31688456783E+03  0.00000000000E+00 0. -1.
<scales pt_clust_5="13000.00000" pt_clust_6="13000.00000" pt_clust_7="13000.00000" pt_clust_8="13000.00000" pt_clust_9="195.07442"></scales>
<clustering>
<clus scale="   91.567">  5  6 -1 -1</clus>
<clus scale="   93.366">  7  8 -1 -1</clus>
<clus scale="   94.193">  1  7  2 -1</clus>
<clus scale="  195.074">  2  9  1 -1</clus>
<clus scale="  195.074">  2  5  1 -1</clus>
</clustering>
</event>
<event>
 9    1  0.1445593E-005  0.1885114E+03  0.7546771E-02  0.1160168E+00
          3   -1    0    0  502    0 -0.00000000000E+00  0.00000000000E+00  0.16790330275E+03  0.16790330275E+03  0.00000000000E+00 0. -1.
         21   -1    0    0  501  502  0.00000000000E+00 -0.00000000000E+00 -0.61532918359E+03  0.61532918359E+03  0.00000000000E+00 0.  1.
         23    2    1    2    0    0  0.28447290439E+02  0.15808298197E+03  0.84066448128E+02  0.20592375767E+03  0.97662422397E+02 0.  0.
         23    2    1    2    0    0 -0.36186343794E+01 -0.16829175027E+03 -0.49961525800E+03  0.53563345105E+03  0.94618075071E+02 0.  0.
        -11    1    3    3    0    0  0.46696084421E+02  0.14984900719E+03  0.94641594238E+02  0.18328197024E+03  0.00000000000E+00 0. -1.
         11    1    3    3    0    0 -0.18248793982E+02  0.82339747814E+01 -0.10575146110E+02  0.22641787424E+02  0.00000000000E+00 0.  1.
        -11    1    4    4    0    0 -0.47405704337E+02 -0.11122597136E+03 -0.32662868058E+03  0.34828840418E+03  0.00000000000E+00 0.  1.
         11    1    4    4    0    0  0.43787069958E+02 -0.57065778910E+02 -0.17298657742E+03  0.18734504687E+03  0.00000000000E+00 0. -1.
          3    1    1    2  501    0 -0.24828656060E+02  0.10208768299E+02 -0.31877070965E+02  0.41675277626E+02  0.00000000000E+00 0. -1.
<scales pt_clust_5="13000.00000" pt_clust_6="13000.00000" pt_clust_7="13000.00000" pt_clust_8="13000.00000" pt_clust_9="26.84550"></scales>
<clustering>
<clus scale="   26.846">  2  9  1 -1</clus>
<clus scale="   94.618">  7  8 -1 -1</clus>
<clus scale="   97.662">  5  6 -1 -1</clus>
<clus scale="  186.952">  2  7  1 -1</clus>
<clus scale="   26.846">  2  5  1 -1</clus>
</clustering>
</event>
<event>
 9    1  0.1445593E-005  0.9751262E+02  0.7546771E-02  0.1286239E+00
          2   -1    0    0  502    0 -0.00000000000E+00  0.00000000000E+00  0.19107013118E+03  0.19107013118E+03  0.00000000000E+00 0. -1.
         21   -1    0    0  501  502  0.00000000000E+00 -0.00000000000E+00 -0.11193957130E+03  0.11193957130E+03  0.00000000000E+00 0. -1.
         23    2    1    2    0    0  0.20070096693E+01 -0.27753487604E+02  0.93080789851E+02  0.13427925971E+03  0.92696288958E+02 0.  0.
         23    2    1    2    0    0 -0.45008540145E+02  0.20392242418E+02  0.28538639357E+02  0.10783197342E+03  0.91496821351E+02 0.  0.
        -11    1    4    4    0    0 -0.60157990151E+02  0.44107753262E+02  0.13109778313E+02  0.75738655681E+02  0.00000000000E+00 0. -1.
         11    1    4    4    0    0  0.15149450006E+02 -0.23715510845E+02  0.15428861044E+02  0.32093317735E+02  0.00000000000E+00 0.  1.
        -11    1    3    3    0    0  0.35568879429E+02 -0.84304693834E+01  0.35435022274E+01  0.36725664132E+02  0.00000000000E+00 0.  1.
         11    1    3    3    0    0 -0.33561869760E+02 -0.19323018221E+02  0.89537287624E+02  0.97553595577E+02  0.00000000000E+00 0. -1.
          2    1    1    2  501    0  0.43001530476E+02  0.73612451863E+01 -0.42488869323E+02  0.60898469360E+02  0.00000000000E+00 0. -1.
<scales pt_clust_5="13000.00000" pt_clust_6="13000.00000" pt_clust_7="13000.00000" pt_clust_8="13000.00000" pt_clust_9="43.62705"></scales>
<clustering>
<clus scale="   43.627">  2  9  1 -1</clus>
<clus scale="   91.497">  5  6 -1 -1</clus>
<clus scale="   92.696">  7  8 -1 -1</clus>
<clus scale="   96.373">  2  5  1 -1</clus>
<clus scale="   43.627">  2  5  1 -1</clus>
</clustering>
</event>
<event>
 9    1  0.1445593E-005  0.9958079E+02  0.7546771E-02  0.1281909E+00
         21   -1    0    0  501  502  0.00000000000E+00  0.00000000000E+00  0.10561771759E+03  0.10561771759E+03  0.00000000000E+00 0. -1.
         -2   -1    0    0    0  501 -0.00000000000E+00 -0.00000000000E+00 -0.17015576347E+03  0.17015576347E+03  0.00000000000E+00 0.  1.
         23    2    1    2    0    0 -0.21984571951E+02 -0.38458075290E+02 -0.66033784706E+02  0.12085678300E+03  0.91014044609E+02 0.  0.
         23    2    1    2    0    0  0.25360157056E+02  0.16712441095E+02 -0.42115181029E+02  0.10606816162E+03  0.92489584192E+02 0.  0.
        -11    1    4    4    0    0  0.33487337015E+02  0.45870290292E+02 -0.49018093369E+02  0.75021721850E+02  0.00000000000E+00 0.  1.
         11    1    4    4    0    0 -0.81271799589E+01 -0.29157849197E+02  0.69029123402E+01  0.31046439774E+02  0.00000000000E+00 0. -1.
        -13    1    3    3    0    0  0.13891053600E+02 -0.46998468763E+02 -0.46257468263E+01  0.49226161438E+02  0.00000000000E+00 0. -1.
         13    1    3    3    0    0 -0.35875625551E+02  0.85403934732E+01 -0.61408037880E+02  0.71630621564E+02  0.00000000000E+00 0.  1.
         -2    1    1    2    0  502 -0.33755851053E+01  0.21745634195E+02  0.43610919855E+02  0.48848536436E+02  0.00000000000E+00 0.  1.
<scales pt_clust_5="13000.00000" pt_clust_6="13000.00000" pt_clust_7="13000.00000" pt_clust_8="13000.00000" pt_clust_9="22.00607"></scales>
<clustering>
<clus scale="   22.006">  1  9  2 -1</clus>
<clus scale="   91.014">  7  8 -1 -1</clus>
<clus scale="   92.490">  5  6 -1 -1</clus>
<clus scale="   98.212">  2  7  1 -1</clus>
<clus scale="   22.006">  1  5  2 -1</clus>
</clustering>
</event>
<event>
 9    1  0.1445593E-005  0.1069580E+03  0.7546771E-02  0.1267134E+00
         -1   -1    0    0    0  501 -0.00000000000E+00  0.00000000000E+00  0.27676421601E+03  0.27676421601E+03  0.00000000000E+00 0.  1.
         21   -1    0    0  501  502  0.00000000000E+00 -0.00000000000E+00 -0.65397449536E+02  0.65397449536E+02  0.00000000000E+00 0. -1.
         23    2    1    2    0    0 -0.31652870664E+02 -0.54002267234E+02  0.14800870003E+03  0.18496808269E+03  0.91588575925E+02 0.  0.
         23    2    1    2    0    0  0.47965567241E+02  0.16757501735E+02  0.49112904528E+02  0.11410992860E+03  0.89596254992E+02 0.  0.
        -11    1    3    3    0    0  0.16177617001E+02 -0.32130952728E+02  0.12021468101E+03  0.12548180324E+03  0.00000000000E+00 0.  1.
         11    1    3    3    0    0 -0.47830487665E+02 -0.21871314506E+02  0.27794019021E+02  0.59486279442E+02  0.00000000000E+00 0. -1.
        -11    1    4    4    0    0  0.65229087497E+01  0.35980665625E+02 -0.11387124082E+02  0.38299128349E+02  0.00000000000E+00 0.  1.
         11    1    4    4    0    0  0.41442658491E+02 -0.19223163890E+02  0.60500028610E+02  0.75810800250E+02  0.00000000000E+00 0. -1.
         -1    1    1    2    0  502 -0.16312696576E+02  0.37244765499E+02  0.14245161917E+02  0.43083654263E+02  0.00000000000E+00 0.  1.
<scales pt_clust_5="13000.00000" pt_clust_6="13000.00000" pt_clust_7="13000.00000" pt_clust_8="13000.00000" pt_clust_9="40.66050"></scales>
<clustering>
<clus scale="   40.661">  2  9  1 -1</clus>
<clus scale="   89.596">  7  8 -1 -1</clus>
<clus scale="   91.589">  5  6 -1 -1</clus>
<clus scale="  105.257">  2  7  1 -1</clus>
<clus scale="   40.661">  2  5  1 -1</clus>
</clustering>
</event>
<event>
 9    1  0.1445593E-005  0.1263349E+03  0.7546771E-02  0.1235112E+00
         21   -1    0    0  501  502  0.00000000000E+00  0.00000000000E+00  0.18023059028E+03  0.18023059028E+03  0.00000000000E+00 0. -1.
          1   -1    0    0  502    0 -0.00000000000E+00 -0.00000000000E+00 -0.30823509407E+03  0.30823509407E+03  0.00000000000E+00 0. -1.
         23    2    1    2    0    0 -0.57903413928E+02 -0.81853525142E+02 -0.24060609755E+03  0.27399691853E+03  0.84440584224E+02 0.  0.
         23    2    1    2    0    0  0.20704179306E+02  0.31939416875E+02  0.17871941056E+02  0.10111574043E+03  0.91957584219E+02 0.  0.
        -11    1    3    3    0    0 -0.17847865232E+02 -0.79332984287E+02 -0.10638111061E+03  0.13389999770E+03  0.00000000000E+00 0.  1.
         11    1    3    3    0    0 -0.40055548696E+02 -0.25205408544E+01 -0.13422498694E+03  0.14009692084E+03  0.00000000000E+00 0. -1.
        -13    1    4    4    0    0 -0.17628866798E+02 -0.22294358130E+02  0.19859076913E+02  0.34672731142E+02  0.00000000000E+00 0. -1.
         13    1    4    4    0    0  0.38333046104E+02  0.54233775005E+02 -0.19871358568E+01  0.66443009292E+02  0.00000000000E+00 0.  1.
          1    1    1    2  501    0  0.37199234622E+02  0.49914108267E+02  0.94729652706E+02  0.11335302538E+03  0.00000000000E+00 0. -1.
<scales pt_clust_5="13000.00000" pt_clust_6="13000.00000" pt_clust_7="13000.00000" pt_clust_8="13000.00000" pt_clust_9="62.25111"></scales>
<clustering>
<clus scale="   62.251">  1  9  2 -1</clus>
<clus scale="   84.441">  5  6 -1 -1</clus>
<clus scale="   91.958">  7  8 -1 -1</clus>
<clus scale="  120.973">  2  5  1 -1</clus>
<clus scale="   62.251">  1  5  2 -1</clus>
</clustering>
</event>
<event>
 9    1  0.1445593E-005  0.1000034E+03  0.7546771E-02  0.1280814E+00
          1   -1    0    0  502    0 -0.00000000000E+00  0.00000000000E+00  0.30825555900E+03  0.30825555900E+03  0.00000000000E+00 0. -1.
         21   -1    0    0  501  502  0.00000000000E+00 -0.00000000000E+00 -0.52189114562E+02  0.52189114562E+02  0.00000000000E+00 0. -1.
         23    2    1    2    0    0 -0.33047546543E+02  0.14008209693E+02  0.18176011357E+03  0.20584385943E+03  0.89702760864E+02 0.  0.
         23    2    1    2    0    0  0.56995551429E+02 -0.72752102498E+01  0.72575558262E+02  0.12966417857E+03  0.90797389722E+02 0.  0.
        -11    1    4    4    0    0  0.57997047612E+02  0.27839958314E+02  0.21810504058E+02  0.67929514189E+02  0.00000000000E+00 0. -1.
         11    1    4    4    0    0 -0.10014961837E+01 -0.35115168564E+02  0.50765054204E+02  0.61734664381E+02  0.00000000000E+00 0.  1.
        -13    1    3    3    0    0  0.28214927690E+02  0.19546441741E+02  0.78046582914E+02  0.85260862264E+02  0.00000000000E+00 0.  1.
         13    1    3    3    0    0 -0.61262474233E+02 -0.55382320479E+01  0.10371353066E+03  0.12058299716E+03  0.00000000000E+00 0. -1.
          1    1    1    2  501    0 -0.23948004886E+02 -0.67329994435E+01  0.17307726036E+01  0.24936635566E+02  0.00000000000E+00 0. -1.
<scales pt_clust_5="13000.00000" pt_clust_6="13000.00000" pt_clust_7="13000.00000" pt_clust_8="13000.00000" pt_clust_9="24.87650"></scales>
<clustering>
<clus scale="   24.876">  2  9  1 -1</clus>
<clus scale="   89.703">  7  8 -1 -1</clus>
<clus scale="   90.797">  5  6 -1 -1</clus>
<clus scale="   99.011">  1  7  2 -1</clus>
<clus scale="   24.876">  2  5  1 -1</clus>
</clustering>
</event>
<event>
 9    1  0.1445593E-005  0.1060617E+03  0.7546771E-02  0.1268938E+00
         -3   -1    0    0    0  501 -0.00000000000E+00  0.00000000000E+00  0.37840452166E+03  0.37840452166E+03  0.00000000000E+00 0.  1.
         21   -1    0    0  501  502  0.00000000000E+00 -0.00000000000E+00 -0.13000160395E+03  0.13000160395E+03  0.00000000000E+00 0.  1.
         23    2    1    2    0    0  0.44811118299E+02 -0.31024326850E+02  0.30143491526E+03  0.31981411592E+03  0.91910366240E+02 0.  0.
         23    2    1    2    0    0 -0.52775493918E+02  0.17273448444E+01  0.23037231262E+02  0.10668796824E+03  0.89796280908E+02 0.  0.
        -11    1    4    4    0    0 -0.41856253316E+02 -0.41851958736E+02  0.11394405431E+02  0.60277399303E+02  0.00000000000E+00 0.  1.
         11    1    4    4    0    0 -0.10919240603E+02  0.43579303581E+02  0.11642825831E+02  0.46410568939E+02  0.00000000000E+00 0. -1.
        -13    1    3    3    0    0  0.24982308455E+02 -0.62831391627E+02  0.22023552276E+03  0.23038139029E+03  0.00000000000E+00 0.  1.
         13    1    3    3    0    0  0.19828809845E+02  0.31807064777E+02  0.81199392501E+02  0.89432725622E+02  0.00000000000E+00 0. -1.
         -3    1    1    2    0  502  0.79643756191E+01  0.29296982005E+02 -0.76069228811E+02  0.81904041448E+02  0.00000000000E+00 0.  1.
<scales pt_clust_5="13000.00000" pt_clust_6="13000.00000" pt_clust_7="13000.00000" pt_clust_8="13000.00000" pt_clust_9="30.36024"></scales>
<clustering>
<clus scale="   30.360">  2  9  1 -1</clus>
<clus scale="   89.796">  5  6 -1 -1</clus>
<clus scale="   91.910">  7  8 -1 -1</clus>
<clus scale="  104.235">  2  5  1 -1</clus>
<clus scale="   30.360">  2  5  1 -1</clus>
</clustering>
</event>
<event>
 9    1  0.1445593E-005  0.9934447E+02  0.7546771E-02  0.1285964E+00
         21   -1    0    0  501  502  0.00000000000E+00  0.00000000000E+00  0.37550741278E+03  0.37550741278E+03  0.00000000000E+00 0. -1.
          3   -1    0    0  502    0 -0.00000000000E+00 -0.00000000000E+00 -0.49023652534E+02  0.49023652534E+02  0.00000000000E+00 0. -1.
         23    2    1    2    0    0 -0.20342266971E+01  0.40065137776E+02  0.30476433958E+02  0.10488385549E+03  0.91991612506E+02 0.  0.
         23    2    1    2    0    0  0.24804819331E+02 -0.24742009186E+02  0.25179872261E+03  0.26761165662E+03  0.83582031384E+02 0.  0.
        -11    1    3    3    0    0 -0.45132214537E+02  0.86199274451E+01  0.21708215340E+02  0.50817974688E+02  0.00000000000E+00 0.  1.
         11    1    3    3    0    0  0.43097987840E+02  0.31445210331E+02  0.87682186186E+01  0.54065880797E+02  0.00000000000E+00 0. -1.
        -11    1    4    4    0    0 -0.21442467749E+02 -0.32359546733E+02  0.71929917285E+02  0.81736360871E+02  0.00000000000E+00 0.  1.
         11    1    4    4    0    0  0.46247287080E+02  0.76175375464E+01  0.17986880532E+03  0.18587529574E+03  0.00000000000E+00 0. -1.
          3    1    1    2  501    0 -0.22770592634E+02 -0.15323128590E+02  0.44208603684E+02  0.52035553215E+02  0.00000000000E+00 0. -1.
<scales pt_clust_5="13000.00000" pt_clust_6="13000.00000" pt_clust_7="13000.00000" pt_clust_8="13000.00000" pt_clust_9="27.44628"></scales>
<clustering>
<clus scale="   27.446">  1  9  2 -1</clus>
<clus scale="   83.582">  7  8 -1 -1</clus>
<clus scale="   91.612">  1  7  2 -1</clus>
<clus scale="   91.992">  5  6 -1 -1</clus>
<clus scale="   27.446">  1  5  2 -1</clus>
</clustering>
</event>
<event>
 9    1  0.1445593E-005  0.9405688E+02  0.7546771E-02  0.1297205E+00
          1   -1    0    0  502    0 -0.00000000000E+00  0.00000000000E+00  0.56451385330E+03  0.56451385330E+03  0.00000000000E+00 0. -1.
         21   -1    0    0  501  502  0.00000000000E+00 -0.00000000000E+00 -0.36221528160E+02  0.36221528160E+02  0.00000000000E+00 0. -1.
         23    2    1    2    0    0 -0.95568561552E+01 -0.26641167882E+02  0.19548483524E+03  0.21556031284E+03  0.86318261891E+02 0.  0.
         23    2    1    2    0    0  0.14621305718E+02 -0.56703809699E+02  0.20320896130E+03  0.23100693782E+03  0.92958155947E+02 0.  0.
        -13    1    4    4    0    0  0.25520564471E+01  0.24835529634E+02  0.70420381198E+02  0.74715102974E+02  0.00000000000E+00 0.  1.
         13    1    4    4    0    0  0.12069249271E+02 -0.81539339333E+02  0.13278858010E+03  0.15629183485E+03  0.00000000000E+00 0. -1.
        -13    1    3    3    0    0  0.17779175605E+02  0.17093129469E+02  0.17467090091E+02  0.30222068038E+02  0.00000000000E+00 0.  1.
         13    1    3    3    0    0 -0.27336031761E+02 -0.43734297351E+02  0.17801774515E+03  0.18533824480E+03  0.00000000000E+00 0. -1.
          1    1    1    2  501    0 -0.50644495625E+01  0.83344977581E+02  0.12959852860E+03  0.15416813079E+03  0.00000000000E+00 0. -1.
<scales pt_clust_5="13000.00000" pt_clust_6="13000.00000" pt_clust_7="13000.00000" pt_clust_8="13000.00000" pt_clust_9="83.49871"></scales>
<clustering>
<clus scale="   83.499">  2  9  1 -1</clus>
<clus scale="   86.318">  7  8 -1 -1</clus>
<clus scale="   87.500">  1  7  2 -1</clus>
<clus scale="   92.958">  5  6 -1 -1</clus>
<clus scale="   83.499">  2  5  1 -1</clus>
</clustering>
</event>
<event>
 9    1  0.1445593E-005  0.2055959E+03  0.7546771E-02  0.1145179E+00
         21   -1    0    0  501  502  0.00000000000E+00  0.00000000000E+00  0.39647842854E+03  0.39647842854E+03  0.00000000000E+00 0. -1.
          4   -1    0    0  502    0 -0.00000000000E+00 -0.00000000000E+00 -0.21487194802E+03  0.21487194802E+03  0.00000000000E+00 0. -1.
         23    2    1    2    0    0 -0.53055812193E+02  0.20042802978E+03 -0.22425036299E+02  0.22784624085E+03  0.91786234739E+02 0.  0.
         23    2    1    2    0    0  0.12310243709E+03 -0.11727625144E+03  0.57814911175E+02  0.20129534430E+03  0.90935815340E+02 0.  0.
        -11    1    4    4    0    0  0.42562350012E+02  0.30681651866E+01 -0.59200269367E+01  0.43081480883E+02  0.00000000000E+00 0.  1.
         11    1    4    4    0    0  0.80540087078E+02 -0.12034441663E+03  0.63734938111E+02  0.15821386341E+03  0.00000000000E+00 0. -1.
        -11    1    3    3    0    0 -0.18200182030E+02  0.18740537866E+03 -0.97560616852E+01  0.18853965980E+03  0.00000000000E+00 0. -1.
         11    1    3    3    0    0 -0.34855630162E+02  0.13022651118E+02 -0.12668974614E+02  0.39306581051E+02  0.00000000000E+00 0.  1.
          4    1    1    2  501    0 -0.70046624896E+02 -0.83151778342E+02  0.14621660564E+03  0.18220879141E+03  0.00000000000E+00 0. -1.
<scales pt_clust_5="13000.00000" pt_clust_6="13000.00000" pt_clust_7="13000.00000" pt_clust_8="13000.00000" pt_clust_9="108.72326"></scales>
<clustering>
<clus scale="   90.936">  5  6 -1 -1</clus>
<clus scale="   91.786">  7  8 -1 -1</clus>
<clus scale="  108.723">  1  9  2 -1</clus>
<clus scale="  205.218">  1  5  2 -1</clus>
<clus scale="  108.723">  1  5  2 -1</clus>
</clustering>
</event>
<event>
 9    1  0.1445593E-005  0.9965031E+02  0.7546771E-02  0.1284769E+00
          2   -1    0    0  502    0 -0.00000000000E+00  0.00000000000E+00  0.35566235871E+03  0.35566235871E+03  0.00000000000E+00 0. -1.
         21   -1    0    0  501  502  0.00000000000E+00 -0.00000000000E+00 -0.14287267423E+03  0.14287267423E+03  0.00000000000E+00 0.  1.
         23    2    1    2    0    0  0.39034830085E+02  0.15780432111E+02  0.32100544474E+03  0.33605465087E+03  0.90086030137E+02 0.  0.
         23    2    1    2    0    0 -0.38492599262E+02 -0.37846927749E+02 -0.94062245604E+02  0.13625927947E+03  0.82491302904E+02 0.  0.
        -13    1    4    4    0    0 -0.28192927425E+02  0.20538079289E+02 -0.16371969028E+02  0.38531743116E+02  0.00000000000E+00 0. -1.
         13    1    4    4    0    0 -0.10299671836E+02 -0.58385007038E+02 -0.77690276576E+02  0.97727536351E+02  0.00000000000E+00 0.  1.
        -13    1    3    3    0    0  0.43619128017E+01  0.49622182700E+02  0.13692113754E+03  0.14570101305E+03  0.00000000000E+00 0.  1.
         13    1    3    3    0    0  0.34672917283E+02 -0.33841750588E+02  0.18408430720E+03  0.19035363782E+03  0.00000000000E+00 0. -1.
          2    1    1    2  501    0 -0.54223082314E+00  0.22066495638E+02 -0.14153514656E+02  0.26221102591E+02  0.00000000000E+00 0. -1.
<scales pt_clust_5="13000.00000" pt_clust_6="13000.00000" pt_clust_7="13000.00000" pt_clust_8="13000.00000" pt_clust_9="22.07316"></scales>
<clustering>
<clus scale="   22.073">  2  9  1 -1</clus>
<clus scale="   82.491">  5  6 -1 -1</clus>
<clus scale="   90.086">  7  8 -1 -1</clus>
<clus scale="   92.841">  2  5  1 -1</clus>
<clus scale="   22.073">  2  5  1 -1</clus>
</clustering>
</event>
<event>
 9    1  0.1445593E-005  0.1043091E+03  0.7546771E-02  0.1274359E+00
          1   -1    0    0  502    0 -0.00000000000E+00  0.00000000000E+00  0.75195145141E+03  0.75195145141E+03  0.00000000000E+00 0. -1.
         21   -1    0    0  501  502  0.00000000000E+00 -0.00000000000E+00 -0.22479217452E+02  0.22479217452E+02  0.00000000000E+00 0. -1.
         23    2    1    2    0    0  0.43029347557E+02 -0.23820146374E+02  0.38936296564E+03  0.40319166980E+03  0.92417960733E+02 0.  0.
         23    2    1    2    0    0 -0.13622373477E+02  0.56341534012E+02  0.25967765420E+03  0.27963302039E+03  0.86036065025E+02 0.  0.
        -13    1    3    3    0    0  0.38492500427E+02  0.26081779540E+02  0.11084352191E+03  0.12020074111E+03  0.00000000000E+00 0. -1.
         13    1    3    3    0    0  0.45368471298E+01 -0.49901925915E+02  0.27851944372E+03  0.28299092870E+03  0.00000000000E+00 0.  1.
        -13    1    4    4    0    0  0.26688181917E+02  0.39201606056E+02  0.20035393007E+03  0.20589007326E+03  0.00000000000E+00 0. -1.
         13    1    4    4    0    0 -0.40310555394E+02  0.17139927956E+02  0.59323724131E+02  0.73742947129E+02  0.00000000000E+00 0.  1.
          1    1    1    2  501    0 -0.29406974080E+02 -0.32521387637E+02  0.80431614126E+02  0.91605978676E+02  0.00000000000E+00 0. -1.
<scales pt_clust_5="13000.00000" pt_clust_6="13000.00000" pt_clust_7="13000.00000" pt_clust_8="13000.00000" pt_clust_9="43.84531"></scales>
<clustering>
<clus scale="   43.845">  2  9  1 -1</clus>
<clus scale="   86.036">  7  8 -1 -1</clus>
<clus scale="   92.418">  5  6 -1 -1</clus>
<clus scale="   98.699">  2  7  1 -1</clus>
<clus scale="   43.845">  2  5  1 -1</clus>
</clustering>
</event>
<event>
 9    1  0.1445593E-005  0.1328065E+03  0.7546771E-02  0.1228271E+00
          1   -1    0    0  502    0 -0.00000000000E+00  0.00000000000E+00  0.68802689467E+03  0.68802689467E+03  0.00000000000E+00 0. -1.
         21   -1    0    0  501  502  0.00000000000E+00 -0.00000000000E+00 -0.49860117402E+02  0.49860117402E+02  0.00000000000E+00 0. -1.
         23    2    1    2    0    0 -0.74865054126E+02  0.44135761941E+02  0.33481504956E+03  0.36232411786E+03  0.10781886272E+03 0.  0.
         23    2    1    2    0    0  0.72306935539E+02  0.24625278578E+02  0.84279501578E+02  0.14593871229E+03  0.91435092200E+02 0.  0.
        -11    1    4    4    0    0  0.49413316419E+02  0.42529755968E+02  0.97215257650E+01  0.65916341263E+02  0.00000000000E+00 0. -1.
         11    1    4    4    0    0  0.22893619119E+02 -0.17904477390E+02  0.74557975813E+02  0.80022371024E+02  0.00000000000E+00 0.  1.
        -11    1    3    3    0    0  0.12562954445E+01  0.43440535472E+02  0.22209283493E+03  0.22630485132E+03  0.00000000000E+00 0.  1.
         11    1    3    3    0    0 -0.76121349571E+02  0.69522646919E+00  0.11272221463E+03  0.13601926654E+03  0.00000000000E+00 0. -1.
          1    1    1    2  501    0  0.25581185872E+01 -0.68761040520E+02  0.21907222613E+03  0.22962418193E+03  0.00000000000E+00 0. -1.
<scales pt_clust_5="13000.00000" pt_clust_6="13000.00000" pt_clust_7="13000.00000" pt_clust_8="13000.00000" pt_clust_9="68.80864"></scales>
<clustering>
<clus scale="   68.809">  2  9  1 -1</clus>
<clus scale="   91.435">  5  6 -1 -1</clus>
<clus scale="  107.819">  7  8 -1 -1</clus>
<clus scale="  119.888">  2  5  1 -1</clus>
<clus scale="   68.809">  2  5  1 -1</clus>
</clustering>
</event>
<event>
 9    1  0.1445593E-005  0.9417669E+02  0.7546771E-02  0.1294574E+00
         -3   -1    0    0    0  501 -0.00000000000E+00  0.00000000000E+00  0.57937863777E+03  0.57937863777E+03  0.00000000000E+00 0.  1.
         21   -1    0    0  501  502  0.00000000000E+00 -0.00000000000E+00 -0.17625564740E+03  0.17625564740E+03  0.00000000000E+00 0.  1.
         23    2    1    2    0    0 -0.47683257806E+01 -0.12410807652E+02  0.41409713594E+03  0.42476629246E+03  0.93665362516E+02 0.  0.
         23    2    1    2    0    0 -0.23807264789E+02  0.11100911434E+01  0.14448012294E+03  0.17240569383E+03  0.91001094394E+02 0.  0.
        -13    1    3    3    0    0  0.19731005961E+02 -0.47485638896E+02  0.24526774559E+03  0.25060021055E+03  0.00000000000E+00 0. -1.
         13    1    3    3    0    0 -0.24499331742E+02  0.35074831244E+02  0.16882939034E+03  0.17416608191E+03  0.00000000000E+00 0.  1.
        -13    1    4    4    0    0  0.16806922441E+02 -0.17250847168E+02  0.32422664163E+01  0.24301783093E+02  0.00000000000E+00 0.  1.
         13    1    4    4    0    0 -0.40614187231E+02  0.18360938312E+02  0.14123785653E+03  0.14810391074E+03  0.00000000000E+00 0. -1.
         -3    1    1    2    0  502  0.28575590570E+02  0.11300716509E+02 -0.15545426851E+03  0.15846229889E+03  0.00000000000E+00 0.  1.
<scales pt_clust_5="13000.00000" pt_clust_6="13000.00000" pt_clust_7="13000.00000" pt_clust_8="13000.00000" pt_clust_9="30.72899"></scales>
<clustering>
<clus scale="   30.729">  2  9  1 -1</clus>
<clus scale="   91.001">  7  8 -1 -1</clus>
<clus scale="   91.527">  2  7  1 -1</clus>
<clus scale="   93.665">  5  6 -1 -1</clus>
<clus scale="   30.729">  2  5  1 -1</clus>
</clustering>
</event>
<event>
 9    1  0.1445593E-005  0.1340498E+03  0.7546771E-02  0.1224418E+00
         21   -1    0    0  501  502  0.00000000000E+00  0.00000000000E+00  0.52408335903E+02  0.52408335903E+02  0.00000000000E+00 0. -1.
          1   -1    0    0  502    0 -0.00000000000E+00 -0.00000000000E+00 -0.68800124739E+03  0.68800124739E+03  0.00000000000E+00 0. -1.
         23    2    1    2    0    0 -0.58080233333E+02 -0.26028766586E+02 -0.18438748711E+03  0.21094311340E+03  0.80295961877E+02 0.  0.
         23    2    1    2    0    0  0.12040313356E+03  0.70914011722E+02 -0.40885120590E+03  0.44175838049E+03  0.92007861267E+02 0.  0.
        -11    1    4    4    0    0  0.19307425073E+02 -0.17494483791E+02 -0.29616173551E+02  0.39445549329E+02  0.00000000000E+00 0.  1.
         11    1    4    4    0    0  0.10109570849E+03  0.88408495514E+02 -0.37923503235E+03  0.40231283116E+03  0.00000000000E+00 0. -1.
        -13    1    3    3    0    0  0.98781574603E+01 -0.18723465144E+02 -0.95568989920E+01  0.23226718670E+02  0.00000000000E+00 0.  1.
         13    1    3    3    0    0 -0.67958390793E+02 -0.73053014417E+01 -0.17483058812E+03  0.18771639473E+03  0.00000000000E+00 0. -1.
          1    1    1    2  501    0 -0.62322900230E+02 -0.44885245136E+02 -0.42354218474E+02  0.87708089402E+02  0.00000000000E+00 0. -1.
<scales pt_clust_5="13000.00000" pt_clust_6="13000.00000" pt_clust_7="13000.00000" pt_clust_8="13000.00000" pt_clust_9="76.80384"></scales>
<clustering>
<clus scale="   76.804">  1  9  2 -1</clus>
<clus scale="   80.296">  7  8 -1 -1</clus>
<clus scale="   92.008">  5  6 -1 -1</clus>
<clus scale="  126.299">  2  7  1 -1</clus>
<clus scale="   76.804">  1  5  2 -1</clus>
</clustering>
</event>
<event>
 9    1  0.1445593E-005  0.9694094E+02  0.7546771E-02  0.1288363E+00
          1   -1    0    0  502    0 -0.00000000000E+00  0.00000000000E+00  0.78045803464E+02  0.78045803464E+02  0.00000000000E+00 0. -1.
         21   -1    0    0  501  502  0.00000000000E+00 -0.00000000000E+00 -0.20039645881E+03  0.20039645881E+03  0.00000000000E+00 0.  1.
         23    2    1    2    0    0  0.67560090151E+01  0.31818299437E+02  0.48544747913E+01  0.95081265165E+02  0.89212293004E+02 0.  0.
         23    2    1    2    0    0  0.16344999269E+02 -0.27450530127E+02 -0.65714543269E+02  0.11752919426E+03  0.92054438794E+02 0.  0.
        -13    1    3    3    0    0 -0.34579406153E+01  0.49555111424E+02  0.33470146836E+02  0.59899224959E+02  0.00000000000E+00 0. -1.
         13    1    3    3    0    0  0.10213949630E+02 -0.17736811986E+02 -0.28615672044E+02  0.35182040206E+02  0.00000000000E+00 0.  1.
        -13    1    4    4    0    0 -0.32399292139E+02 -0.35119912520E+02 -0.37051700085E+02  0.60464459526E+02  0.00000000000E+00 0.  1.
         13    1    4    4    0    0  0.48744291409E+02  0.76693823933E+01 -0.28662843185E+02  0.57064734738E+02  0.00000000000E+00 0. -1.
          1    1    1    2  501    0 -0.23101008284E+02 -0.43677693104E+01 -0.61490586864E+02  0.65831802842E+02  0.00000000000E+00 0. -1.
<scales pt_clust_5="13000.00000" pt_clust_6="13000.00000" pt_clust_7="13000.00000" pt_clust_8="13000.00000" pt_clust_9="23.51030"></scales>
<clustering>
<clus scale="   23.510">  2  9  1 -1</clus>
<clus scale="   89.212">  5  6 -1 -1</clus>
<clus scale="   92.054">  7  8 -1 -1</clus>
<clus scale="   94.246">  1  5  2 -1</clus>
<clus scale="   23.510">  2  5  1 -1</clus>
</clustering>
</event>
<event>
 9    1  0.1445593E-005  0.1276840E+03  0.7546771E-02  0.1231075E+00
         21   -1    0    0  501  502  0.00000000000E+00  0.00000000000E+00  0.26848672838E+03  0.26848672838E+03  0.00000000000E+00 0. -1.
         -4   -1    0    0    0  501 -0.00000000000E+00 -0.00000000000E+00 -0.17450805519E+03  0.17450805519E+03  0.00000000000E+00 0.  1.
         23    2    1    2    0    0  0.66940792441E+02  0.51720296571E+02 -0.10614213906E+03  0.16333498362E+03  0.90863108142E+02 0.  0.
         23    2    1    2    0    0 -0.98738102036E+02 -0.72811924902E+02  0.18097938885E+03  0.23697116244E+03  0.91383824817E+02 0.  0.
        -11    1    3    3    0    0  0.67766814890E+01  0.24910793189E+02  0.11692589009E+02  0.28340565750E+02  0.00000000000E+00 0. -1.
         11    1    3    3    0    0  0.60164110952E+02  0.26809503382E+02 -0.11783472806E+03  0.13499441787E+03  0.00000000000E+00 0.  1.
        -11    1    4    4    0    0 -0.59565551597E+02 -0.13123335256E+02  0.14439486753E+03  0.15674869899E+03  0.00000000000E+00 0.  1.
         11    1    4    4    0    0 -0.39172550439E+02 -0.59688589646E+02  0.36584521314E+02  0.80222463448E+02  0.00000000000E+00 0. -1.
         -4    1    1    2    0  502  0.31797309595E+02  0.21091628330E+02  0.19141423402E+02  0.42688637516E+02  0.00000000000E+00 0.  1.
<scales pt_clust_5="13000.00000" pt_clust_6="13000.00000" pt_clust_7="13000.00000" pt_clust_8="13000.00000" pt_clust_9="38.15659"></scales>
<clustering>
<clus scale="   38.157">  1  9  2 -1</clus>
<clus scale="   90.863">  5  6 -1 -1</clus>
<clus scale="   91.384">  7  8 -1 -1</clus>
<clus scale="  127.312">  2  5  1 -1</clus>
<clus scale="   38.157">  1  5  2 -1</clus>
</clustering>
</event>
<event>
 9    1  0.1445593E-005  0.1088643E+03  0.7546771E-02  0.1262696E+00
          3   -1    0    0  502    0 -0.00000000000E+00  0.00000000000E+00  0.20479883630E+03  0.20479883630E+03  0.00000000000E+00 0. -1.
         21   -1    0    0  501  502  0.00000000000E+00 -0.00000000000E+00 -0.11060765522E+03  0.11060765522E+03  0.00000000000E+00 0. -1.
         23    2    1    2    0    0  0.64261875398E+02 -0.27371560826E+02  0.11769528864E+03  0.16480654881E+03  0.91816265398E+02 0.  0.
         23    2    1    2    0    0 -0.28187639257E+02  0.26748534630E+02  0.11438672450E+02  0.10037309183E+03  0.91836197786E+02 0.  0.
        -13    1    3    3    0    0 -0.16908312576E+02 -0.27568891127E+02  0.21011216475E+02  0.38566903037E+02  0.00000000000E+00 0.  1.
         13    1    3    3    0    0  0.81170187974E+02  0.19733030110E+00  0.96684072162E+02  0.12623964577E+03  0.00000000000E+00 0. -1.
        -13    1    4    4    0    0  0.11322369842E+01 -0.32042440963E+02  0.13149873504E+02  0.34654280495E+02  0.00000000000E+00 0.  1.
         13    1    4    4    0    0 -0.29319876241E+02  0.58790975593E+02 -0.17112010537E+01  0.65718811332E+02  0.00000000000E+00 0. -1.
          3    1    1    2  501    0 -0.36074236142E+02  0.62302619601E+00 -0.34942780010E+02  0.50226850883E+02  0.00000000000E+00 0. -1.
<scales pt_clust_5="13000.00000" pt_clust_6="13000.00000" pt_clust_7="13000.00000" pt_clust_8="13000.00000" pt_clust_9="36.07962"></scales>
<clustering>
<clus scale="   36.080">  2  9  1 -1</clus>
<clus scale="   91.816">  5  6 -1 -1</clus>
<clus scale="   91.836">  7  8 -1 -1</clus>
<clus scale="  108.847">  1  5  2 -1</clus>
<clus scale="   36.080">  2  5  1 -1</clus>
</clustering>
</event>
<event>
 9    1  0.1445593E-005  0.1013893E+03  0.7546771E-02  0.1280024E+00
         21   -1    0    0  501  502  0.00000000000E+00  0.00000000000E+00  0.38654663503E+03  0.38654663503E+03  0.00000000000E+00 0.  1.
          2   -1    0    0  502    0 -0.00000000000E+00 -0.00000000000E+00 -0.36575872718E+02  0.36575872718E+02  0.00000000000E+00 0. -1.
         23    2    1    2    0    0 -0.19732544865E+02  0.33919331710E+02  0.11204499127E+03  0.15007929570E+03  0.91814054138E+02 0.  0.
         23    2    1    2    0    0  0.83259090283E+01 -0.16669830011E+02  0.13059965419E+03  0.16374292839E+03  0.96996252143E+02 0.  0.
        -13    1    3    3    0    0  0.15144030240E+02 -0.22346070413E+02  0.60268705560E+02  0.66037908695E+02  0.00000000000E+00 0. -1.
         13    1    3    3    0    0 -0.34876575106E+02  0.56265402123E+02  0.51776285713E+02  0.84041387003E+02  0.00000000000E+00 0.  1.
        -13    1    4    4    0    0 -0.44232662861E+02 -0.46821853665E+01  0.51932362885E+02  0.68377054912E+02  0.00000000000E+00 0.  1.
         13    1    4    4    0    0  0.52558571890E+02 -0.11987644644E+02  0.78667291301E+02  0.95365873476E+02  0.00000000000E+00 0. -1.
          2    1    1    2  501    0  0.11406635837E+02 -0.17249501699E+02  0.10732611686E+03  0.10930028367E+03  0.00000000000E+00 0. -1.
<scales pt_clust_5="13000.00000" pt_clust_6="13000.00000" pt_clust_7="13000.00000" pt_clust_8="13000.00000" pt_clust_9="20.67986"></scales>
<clustering>
<clus scale="   20.680">  1  9  2 -1</clus>
<clus scale="   91.814">  5  6 -1 -1</clus>
<clus scale="   96.443">  2  5  1 -1</clus>
<clus scale="   96.996">  7  8 -1 -1</clus>
<clus scale="   20.680">  1  5  2 -1</clus>
</clustering>
</event>
<event>
 9    1  0.1445593E-005  0.9660616E+02  0.7546771E-02  0.1287873E+00
         21   -1    0    0  501  502  0.00000000000E+00  0.00000000000E+00  0.26182134446E+02  0.26182134446E+02  0.00000000000E+00 0.  1.
          2   -1    0    0  502    0 -0.00000000000E+00 -0.00000000000E+00 -0.68020775897E+03  0.68020775897E+03  0.00000000000E+00 0. -1.
         23    2    1    2    0    0  0.96227533347E+01  0.17531064461E+02 -0.29992039884E+03  0.31384153039E+03  0.90245913793E+02 0.  0.
         23    2    1    2    0    0  0.22955311798E+02 -0.63107275517E+02 -0.22234560048E+03  0.24937322490E+03  0.90774251208E+02 0.  0.
        -13    1    4    4    0    0 -0.47348572189E+01  0.21400628716E+02 -0.65514248594E+02  0.69083446289E+02  0.00000000000E+00 0. -1.
         13    1    4    4    0    0  0.27690169017E+02 -0.84507904233E+02 -0.15683135188E+03  0.18028977861E+03  0.00000000000E+00 0.  1.
        -13    1    3    3    0    0  0.41802496183E+02  0.31678639483E+02 -0.12736355287E+03  0.13774055135E+03  0.00000000000E+00 0. -1.
         13    1    3    3    0    0 -0.32179742848E+02 -0.14147575022E+02 -0.17255684597E+03  0.17610097904E+03  0.00000000000E+00 0.  1.
          2    1    1    2  501    0 -0.32578065133E+02  0.45576211056E+02 -0.13175962520E+03  0.14317513812E+03  0.00000000000E+00 0. -1.
<scales pt_clust_5="13000.00000" pt_clust_6="13000.00000" pt_clust_7="13000.00000" pt_clust_8="13000.00000" pt_clust_9="56.02251"></scales>
<clustering>
<clus scale="   56.023">  1  9  2 -1</clus>
<clus scale="   90.246">  7  8 -1 -1</clus>
<clus scale="   90.774">  5  6 -1 -1</clus>
<clus scale="   96.110">  2  7  1 -1</clus>
<clus scale="   56.023">  1  5  2 -1</clus>
</clustering>
</event>
<event>
 9    1  0.1445593E-005  0.1057667E+03  0.7546771E-02  0.1269377E+00
          1   -1    0    0  502    0 -0.00000000000E+00  0.00000000000E+00  0.17678703316E+03  0.17678703316E+03  0.00000000000E+00 0. -1.
         21   -1    0    0  501  502  0.00000000000E+00 -0.00000000000E+00 -0.17579786119E+03  0.17579786119E+03  0.00000000000E+00 0. -1.
         23    2    1    2    0    0 -0.49975401900E+02  0.28153968053E+02  0.57489375678E+02  0.12163381449E+03  0.90551475963E+02 0.  0.
         23    2    1    2    0    0  0.55853555854E+02  0.81476515977E+00  0.53028191365E+02  0.11750413400E+03  0.88740908741E+02 0.  0.
        -11    1    3    3    0    0 -0.51569862915E+01 -0.31631156713E+02  0.22294769648E+02  0.39040765057E+02  0.00000000000E+00 0.  1.
         11    1    3    3    0    0 -0.44818415608E+02  0.59785124765E+02  0.35194606030E+02  0.82593049432E+02  0.00000000000E+00 0. -1.
        -13    1    4    4    0    0  0.59325467385E+02 -0.24565553125E+02  0.66918131844E+01  0.64558174110E+02  0.00000000000E+00 0.  1.
         13    1    4    4    0    0 -0.34719115305E+01  0.25380318285E+02  0.46336378181E+02  0.52945959891E+02  0.00000000000E+00 0. -1.
          1    1    1    2  501    0 -0.58781539546E+01 -0.28968733213E+02 -0.10952839508E+03  0.11344694586E+03  0.00000000000E+00 0. -1.
<scales pt_clust_5="13000.00000" pt_clust_6="13000.00000" pt_clust_7="13000.00000" pt_clust_8="13000.00000" pt_clust_9="29.55910"></scales>
<clustering>
<clus scale="   29.559">  2  9  1 -1</clus>
<clus scale="   88.741">  7  8 -1 -1</clus>
<clus scale="   90.551">  5  6 -1 -1</clus>
<clus scale="  104.221">  2  7  1 -1</clus>
<clus scale="   29.559">  2  5  1 -1</clus>
</clustering>
</event>
<event>
 9    1  0.1445593E-005  0.1243273E+03  0.7546771E-02  0.1237728E+00
         -2   -1    0    0    0  501 -0.00000000000E+00  0.00000000000E+00  0.31142696701E+03  0.31142696701E+03  0.00000000000E+00 0.  1.
         21   -1    0    0  501  502  0.00000000000E+00 -0.00000000000E+00 -0.11808469576E+03  0.11808469576E+03  0.00000000000E+00 0.  1.
         23    2    1    2    0    0 -0.28674689625E+02 -0.54170081482E+02  0.93836234836E+02  0.14438987320E+03  0.91030549612E+02 0.  0.
         23    2    1    2    0    0  0.11486704292E+03  0.60082546841E+02  0.12010166864E+03  0.19630591778E+03  0.85482469324E+02 0.  0.
        -13    1    3    3    0    0  0.15596297171E+02 -0.58624711831E+02  0.73962929719E+02  0.95658853722E+02  0.00000000000E+00 0.  1.
         13    1    3    3    0    0 -0.44270986796E+02  0.44546303486E+01  0.19873305117E+02  0.48731019482E+02  0.00000000000E+00 0. -1.
        -13    1    4    4    0    0  0.88410732755E+02  0.44376826458E-01  0.81138496115E+02  0.11999964661E+03  0.00000000000E+00 0.  1.
         13    1    4    4    0    0  0.26456310163E+02  0.60038170015E+02  0.38963172527E+02  0.76306271168E+02  0.00000000000E+00 0. -1.
         -2    1    1    2    0  502 -0.86192353294E+02 -0.59124653590E+01 -0.20595632231E+02  0.88815871779E+02  0.00000000000E+00 0.  1.
<scales pt_clust_5="13000.00000" pt_clust_6="13000.00000" pt_clust_7="13000.00000" pt_clust_8="13000.00000" pt_clust_9="86.39490"></scales>
<clustering>
<clus scale="   85.482">  7  8 -1 -1</clus>
<clus scale="   86.395">  2  9  1 -1</clus>
<clus scale="   91.031">  5  6 -1 -1</clus>
<clus scale="  120.324">  2  7  1 -1</clus>
<clus scale="   86.395">  2  5  1 -1</clus>
</clustering>
</event>
<event>
 9    1  0.1445593E-005  0.1132829E+03  0.7546771E-02  0.1254629E+00
          1   -1    0    0  502    0 -0.00000000000E+00  0.00000000000E+00  0.12108277616E+03  0.12108277616E+03  0.00000000000E+00 0. -1.
         21   -1    0    0  501  502  0.00000000000E+00 -0.00000000000E+00 -0.21392446423E+03  0.21392446423E+03  0.00000000000E+00 0.  1.
         23    2    1    2    0    0  0.46812065389E+02  0.47508606896E+02  0.42855050586E+02  0.12017210894E+03  0.90312475395E+02 0.  0.
         23    2    1    2    0    0 -0.71588859916E+02 -0.28567989127E+02 -0.60056636705E+02  0.13301788650E+03  0.90254438388E+02 0.  0.
        -13    1    4    4    0    0 -0.57206586066E+02  0.13554125518E+02 -0.65686542831E+02  0.88153444158E+02  0.00000000000E+00 0.  1.
         13    1    4    4    0    0 -0.14382273850E+02 -0.42122114645E+02  0.56299061261E+01  0.44864442338E+02  0.00000000000E+00 0. -1.
        -13    1    3    3    0    0  0.23846732037E+02  0.17869062048E+02 -0.27436043346E+02  0.40505635185E+02  0.00000000000E+00 0.  1.
         13    1    3    3    0    0  0.22965333353E+02  0.29639544848E+02  0.70291093932E+02  0.79666473757E+02  0.00000000000E+00 0. -1.
          1    1    1    2  501    0  0.24776794527E+02 -0.18940617768E+02 -0.75640101945E+02  0.81817244947E+02  0.00000000000E+00 0. -1.
<scales pt_clust_5="13000.00000" pt_clust_6="13000.00000" pt_clust_7="13000.00000" pt_clust_8="13000.00000" pt_clust_9="31.18712"></scales>
<clustering>
<clus scale="   31.187">  2  9  1 -1</clus>
<clus scale="   90.254">  5  6 -1 -1</clus>
<clus scale="   90.312">  7  8 -1 -1</clus>
<clus scale="  113.237">  2  5  1 -1</clus>
<clus scale="   31.187">  2  5  1 -1</clus>
</clustering>
</event>
<event>
 9    1  0.1445593E-005  0.1319286E+03  0.7546771E-02  0.1225191E+00
         21   -1    0    0  501  502  0.00000000000E+00  0.00000000000E+00  0.16813327144E+03  0.16813327144E+03  0.00000000000E+00 0.  1.
         -4   -1    0    0    0  501 -0.00000000000E+00 -0.00000000000E+00 -0.24012473086E+03  0.24012473086E+03  0.00000000000E+00 0.  1.
         23    2    1    2    0    0  0.43853400216E+02 -0.67538040345E+02 -0.72108537662E+02  0.14047130508E+03  0.89710861898E+02 0.  0.
         23    2    1    2    0    0 -0.11043846616E+03  0.54860697458E+02 -0.71107379152E+02  0.16946472938E+03  0.91954794331E+02 0.  0.
        -13    1    4    4    0    0 -0.31858023278E+02 -0.23144550245E+02 -0.35879068296E+02  0.53272050787E+02  0.00000000000E+00 0.  1.
         13    1    4    4    0    0 -0.78580442886E+02  0.78005247703E+02 -0.35228310856E+02  0.11619267860E+03  0.00000000000E+00 0. -1.
        -13    1    3    3    0    0 -0.26149827451E+02 -0.30154290970E+02 -0.14745144773E+02  0.42550135534E+02  0.00000000000E+00 0.  1.
         13    1    3    3    0    0  0.70003227667E+02 -0.37383749375E+02 -0.57363392889E+02  0.97921169544E+02  0.00000000000E+00 0. -1.
         -4    1    1    2    0  502  0.66585065948E+02  0.12677342886E+02  0.71224457386E+02  0.98321967840E+02  0.00000000000E+00 0.  1.
<scales pt_clust_5="13000.00000" pt_clust_6="13000.00000" pt_clust_7="13000.00000" pt_clust_8="13000.00000" pt_clust_9="67.78116"></scales>
<clustering>
<clus scale="   67.781">  1  9  2 -1</clus>
<clus scale="   89.711">  7  8 -1 -1</clus>
<clus scale="   91.955">  5  6 -1 -1</clus>
<clus scale="  130.374">  2  7  1 -1</clus>
<clus scale="   67.781">  1  5  2 -1</clus>
</clustering>
</event>
<event>
 9    1  0.1445593E-005  0.9859205E+02  0.7546771E-02  0.1283814E+00
          3   -1    0    0  502    0 -0.00000000000E+00  0.00000000000E+00  0.29248953450E+03  0.29248953450E+03  0.00000000000E+00 0. -1.
         21   -1    0    0  501  502  0.00000000000E+00 -0.00000000000E+00 -0.98330948377E+02  0.98330948377E+02  0.00000000000E+00 0.  1.
         23    2    1    2    0    0 -0.25270691294E+02  0.36434265332E+02  0.18618041295E+03  0.21164466166E+03  0.90356256642E+02 0.  0.
         23    2    1    2    0    0 -0.45288420320E+02 -0.32225462840E+02  0.15446159804E+02  0.10809788459E+03  0.91416887553E+02 0.  0.
        -11    1    3    3    0    0 -0.33677374600E+02  0.86961853042E+01  0.17822695542E+03  0.18158919802E+03  0.00000000000E+00 0.  1.
         11    1    3    3    0    0  0.84066833068E+01  0.27738080028E+02  0.79534575259E+01  0.30055463638E+02  0.00000000000E+00 0. -1.
        -13    1    4    4    0    0 -0.55384608003E+02 -0.52753951983E+02 -0.60227338643E+01  0.76724882383E+02  0.00000000000E+00 0.  1.
         13    1    4    4    0    0  0.10096187683E+02  0.20528489142E+02  0.21468893668E+02  0.31373002208E+02  0.00000000000E+00 0. -1.
          3    1    1    2  501    0  0.70559111613E+02 -0.42088024917E+01 -0.74679866353E+01  0.71077936622E+02  0.00000000000E+00 0. -1.
<scales pt_clust_5="13000.00000" pt_clust_6="13000.00000" pt_clust_7="13000.00000" pt_clust_8="13000.00000" pt_clust_9="70.68453"></scales>
<clustering>
<clus scale="   70.685">  2  9  1 -1</clus>
<clus scale="   90.356">  5  6 -1 -1</clus>
<clus scale="   91.417">  7  8 -1 -1</clus>
<clus scale="   97.609">  1  5  2 -1</clus>
<clus scale="   70.685">  2  5  1 -1</clus>
</clustering>
</event>
<event>
 9    1  0.1445593E-005  0.1010391E+03  0.7546771E-02  0.1279789E+00
         21   -1    0    0  501  502  0.00000000000E+00  0.00000000000E+00  0.92062367801E+02  0.92062367801E+02  0.00000000000E+00 0.  1.
          1   -1    0    0  502    0 -0.00000000000E+00 -0.00000000000E+00 -0.25196538001E+03  0.25196538001E+03  0.00000000000E+00 0. -1.
         23    2    1    2    0    0  0.67364769615E+01 -0.38083402456E+02 -0.17832700722E+03  0.20359786208E+03  0.90309702002E+02 0.  0.
         23    2    1    2    0    0 -0.33291144116E+02  0.26659140191E+02 -0.51983985784E+01  0.10309784058E+03  0.93718361872E+02 0.  0.
        -13    1    3    3    0    0 -0.11999750748E+02  0.25477662690E+02 -0.81819557533E+02  0.86530603310E+02  0.00000000000E+00 0. -1.
         13    1    3    3    0    0  0.18736227710E+02 -0.63561065146E+02 -0.96507449686E+02  0.11706725877E+03  0.00000000000E+00 0.  1.
        -13    1    4    4    0    0 -0.64475630754E+02  0.30845891833E+02 -0.47187849879E+01  0.71629902525E+02  0.00000000000E+00 0. -1.
         13    1    4    4    0    0  0.31184486638E+02 -0.41867516412E+01 -0.47961359051E+00  0.31467938054E+02  0.00000000000E+00 0.  1.
          1    1    1    2  501    0  0.26554667155E+02  0.11424262265E+02  0.23622393592E+02  0.37332045149E+02  0.00000000000E+00 0. -1.
<scales pt_clust_5="13000.00000" pt_clust_6="13000.00000" pt_clust_7="13000.00000" pt_clust_8="13000.00000" pt_clust_9="28.90786"></scales>
<clustering>
<clus scale="   28.908">  1  9  2 -1</clus>
<clus scale="   90.310">  5  6 -1 -1</clus>
<clus scale="   93.718">  7  8 -1 -1</clus>
<clus scale="   97.886">  2  5  1 -1</clus>
<clus scale="   28.908">  1  5  2 -1</clus>
</clustering>
</event>
<event>
 9    1  0.1445593E-005  0.9362151E+02  0.7546771E-02  0.1295984E+00
          1   -1    0    0  502    0 -0.00000000000E+00  0.00000000000E+00  0.55657434170E+03  0.55657434170E+03  0.00000000000E+00 0. -1.
         21   -1    0    0  501  502  0.00000000000E+00 -0.00000000000E+00 -0.85461605858E+02  0.85461605858E+02  0.00000000000E+00 0. -1.
         23    2    1    2    0    0 -0.66544331831E+01 -0.38207503377E+01  0.48585583934E+03  0.49478379520E+03  0.93253566986E+02 0.  0.
         23    2    1    2    0    0  0.19000830778E+02 -0.13256939890E+02  0.29826662711E+02  0.97951593583E+02  0.90377579362E+02 0.  0.
        -11    1    4    4    0    0  0.16257094364E+02  0.22241376567E+02 -0.21873957953E+02  0.35177293604E+02  0.00000000000E+00 0.  1.
         11    1    4    4    0    0  0.27437364143E+01 -0.35498316457E+02  0.51700620664E+02  0.62774299979E+02  0.00000000000E+00 0. -1.
        -13    1    3    3    0    0  0.14347098386E+02  0.41312671489E+02  0.23572326714E+03  0.23974577104E+03  0.00000000000E+00 0.  1.
         13    1    3    3    0    0 -0.21001531569E+02 -0.45133421826E+02  0.25013257220E+03  0.25503802416E+03  0.00000000000E+00 0. -1.
          1    1    1    2  501    0 -0.12346397595E+02  0.17077690228E+02 -0.44569766202E+02  0.49300558784E+02  0.00000000000E+00 0. -1.
<scales pt_clust_5="13000.00000" pt_clust_6="13000.00000" pt_clust_7="13000.00000" pt_clust_8="13000.00000" pt_clust_9="21.07323"></scales>
<clustering>
<clus scale="   21.073">  2  9  1 -1</clus>
<clus scale="   90.378">  5  6 -1 -1</clus>
<clus scale="   90.757">  2  5  1 -1</clus>
<clus scale="   93.254">  7  8 -1 -1</clus>
<clus scale="   21.073">  2  5  1 -1</clus>
</clustering>
</event>
<event>
 9    1  0.1445593E-005  0.1303058E+03  0.7546771E-02  0.1227530E+00
         -1   -1    0    0    0  501 -0.00000000000E+00  0.00000000000E+00  0.63168178066E+02  0.63168178066E+02  0.00000000000E+00 0.  1.
         21   -1    0    0  501  502  0.00000000000E+00 -0.00000000000E+00 -0.47295322950E+03  0.47295322950E+03  0.00000000000E+00 0. -1.
         23    2    1    2    0    0  0.81319550713E+02  0.49982823306E+02 -0.49270842683E+02  0.14100665865E+03  0.91346099489E+02 0.  0.
         23    2    1    2    0    0 -0.56285158031E+02 -0.67046234333E+02 -0.32613544238E+03  0.34929138817E+03  0.89313663670E+02 0.  0.
        -11    1    4    4    0    0 -0.65932610232E+02 -0.15890229248E+02 -0.23212674728E+03  0.24183141913E+03  0.00000000000E+00 0.  1.
         11    1    4    4    0    0  0.96474522007E+01 -0.51156005085E+02 -0.94008695108E+02  0.10745996904E+03  0.00000000000E+00 0. -1.
        -13    1    3    3    0    0  0.60108315514E+02 -0.11552258233E+01 -0.59637766205E+02  0.84681800280E+02  0.00000000000E+00 0.  1.
         13    1    3    3    0    0  0.21211235199E+02  0.51138049129E+02  0.10366923522E+02  0.56324858373E+02  0.00000000000E+00 0. -1.
         -1    1    1    2    0  502 -0.25034392682E+02  0.17063411027E+02 -0.34378766366E+02  0.45823360741E+02  0.00000000000E+00 0.  1.
<scales pt_clust_5="13000.00000" pt_clust_6="13000.00000" pt_clust_7="13000.00000" pt_clust_8="13000.00000" pt_clust_9="30.29656"></scales>
<clustering>
<clus scale="   30.297">  2  9  1 -1</clus>
<clus scale="   89.314">  5  6 -1 -1</clus>
<clus scale="   91.346">  7  8 -1 -1</clus>
<clus scale="  128.889">  2  5  1 -1</clus>
<clus scale="   30.297">  2  5  1 -1</clus>
</clustering>
</event>
<event>
 9    1  0.1445593E-005  0.1416533E+03  0.7546771E-02  0.1223203E+00
          1   -1    0    0  502    0 -0.00000000000E+00  0.00000000000E+00  0.24369450218E+03  0.24369450218E+03  0.00000000000E+00 0. -1.
         21   -1    0    0  501  502  0.00000000000E+00 -0.00000000000E+00 -0.34458282164E+03  0.34458282164E+03  0.00000000000E+00 0. -1.
         23    2    1    2    0    0 -0.47439666777E+02  0.37876736342E+02 -0.99895444176E+02  0.14842844459E+03  0.91469854355E+02 0.  0.
         23    2    1    2    0    0 -0.64404751912E+02 -0.59585316690E+02  0.18435715278E+03  0.22228263793E+03  0.87884181236E+02 0.  0.
        -13    1    4    4    0    0 -0.20883889944E+02 -0.57617388557E+02  0.44337210017E+02  0.75641843680E+02  0.00000000000E+00 0.  1.
         13    1    4    4    0    0 -0.43520861968E+02 -0.19679281332E+01  0.14001994277E+03  0.14664079425E+03  0.00000000000E+00 0. -1.
        -13    1    3    3    0    0  0.21712673508E+02 -0.35950689062E+01 -0.27523377796E+01  0.22179722147E+02  0.00000000000E+00 0.  1.
         13    1    3    3    0    0 -0.69152340285E+02  0.41471805249E+02 -0.97143106397E+02  0.12624872244E+03  0.00000000000E+00 0. -1.
          1    1    1    2  501    0  0.11184441869E+03  0.21708580348E+02 -0.18535002807E+03  0.21756624131E+03  0.00000000000E+00 0. -1.
<scales pt_clust_5="13000.00000" pt_clust_6="13000.00000" pt_clust_7="13000.00000" pt_clust_8="13000.00000" pt_clust_9="111.09463"></scales>
<clustering>
<clus scale="   87.884">  5  6 -1 -1</clus>
<clus scale="   91.470">  7  8 -1 -1</clus>
<clus scale="  109.781">  1  7  2 -1</clus>
<clus scale="  111.095">  2  9  1 -1</clus>
<clus scale="  111.095">  2  5  1 -1</clus>
</clustering>
</event>
<event>
 9    1  0.1445593E-005  0.2144112E+03  0.7546771E-02  0.1159920E+00
         21   -1    0    0  501  502  0.00000000000E+00  0.00000000000E+00  0.31953987685E+03  0.31953987685E+03  0.00000000000E+00 0. -1.
          2   -1    0    0  502    0 -0.00000000000E+00 -0.00000000000E+00 -0.50738678248E+03  0.50738678248E+03  0.00000000000E+00 0. -1.
         23    2    1    2    0    0  0.76265223861E+02  0.46232504832E+02  0.61275613096E+02  0.14172339340E+03  0.91525901274E+02 0.  0.
         23    2    1    2    0    0 -0.23031938551E+03 -0.14506342640E+03 -0.36770024525E+03  0.46711861950E+03  0.94371167745E+02 0.  0.
        -11    1    3    3    0    0  0.84592337276E+02  0.10955330394E+02  0.21615493423E+02  0.87994956365E+02  0.00000000000E+00 0.  1.
         11    1    3    3    0    0 -0.83271134146E+01  0.35277174439E+02  0.39660119673E+02  0.53728437039E+02  0.00000000000E+00 0. -1.
        -11    1    4    4    0    0 -0.18829682279E+03 -0.14667023303E+03 -0.26779161673E+03  0.35872022625E+03  0.00000000000E+00 0. -1.
         11    1    4    4    0    0 -0.42022562713E+02  0.16068066319E+01 -0.99908628522E+02  0.10839839324E+03  0.00000000000E+00 0.  1.
          2    1    1    2  501    0  0.15405416165E+03  0.98830921565E+02  0.11857772653E+03  0.21808464643E+03  0.00000000000E+00 0. -1.
<scales pt_clust_5="13000.00000" pt_clust_6="13000.00000" pt_clust_7="13000.00000" pt_clust_8="13000.00000" pt_clust_9="192.52602"></scales>
<clustering>
<clus scale="   91.526">  5  6 -1 -1</clus>
<clus scale="   94.371">  7  8 -1 -1</clus>
<clus scale="  127.792">  2  5  1 -1</clus>
<clus scale="  192.526">  1  9  2 -1</clus>
<clus scale="  192.526">  1  5  2 -1</clus>
</clustering>
</event>
<event>
 9    1  0.1445593E-005  0.9727116E+02  0.7546771E-02  0.1287864E+00
         -3   -1    0    0    0  501 -0.00000000000E+00  0.00000000000E+00  0.58103291411E+03  0.58103291411E+03  0.00000000000E+00 0.  1.
         21   -1    0    0  501  502  0.00000000000E+00 -0.00000000000E+00 -0.34062148916E+02  0.34062148916E+02  0.00000000000E+00 0. -1.
         23    2    1    2    0    0 -0.38315480359E+01  0.16901188423E+02  0.35862657996E+03  0.37117074940E+03  0.94097664295E+02 0.  0.
         23    2    1    2    0    0 -0.31843943412E+02 -0.40149395119E+02  0.16538711423E+03  0.19554821505E+03  0.90885621493E+02 0.  0.
        -11    1    3    3    0    0 -0.47012988721E+02 -0.40129386800E+01  0.15856985058E+03  0.16544099340E+03  0.00000000000E+00 0. -1.
         11    1    3    3    0    0  0.43181440685E+02  0.20914127103E+02  0.20005672938E+03  0.20572975600E+03  0.00000000000E+00 0.  1.
        -13    1    4    4    0    0 -0.53023683241E+02 -0.48208581677E+02  0.15470191479E+03  0.17049416639E+03  0.00000000000E+00 0. -1.
         13    1    4    4    0    0  0.21179739829E+02  0.80591865586E+01  0.10685199438E+02  0.25054048660E+02  0.00000000000E+00 0.  1.
         -3    1    1    2    0  502  0.35675491448E+02  0.23248206696E+02  0.22957071006E+02  0.48376098580E+02  0.00000000000E+00 0.  1.
<scales pt_clust_5="13000.00000" pt_clust_6="13000.00000" pt_clust_7="13000.00000" pt_clust_8="13000.00000" pt_clust_9="42.58192"></scales>
<clustering>
<clus scale="   42.582">  2  9  1 -1</clus>
<clus scale="   90.886">  7  8 -1 -1</clus>
<clus scale="   94.098">  5  6 -1 -1</clus>
<clus scale="   94.167">  2  7  1 -1</clus>
<clus scale="   42.582">  2  5  1 -1</clus>
</clustering>
</event>
<event>
 9    1  0.1445593E-005  0.1568505E+03  0.7546771E-02  0.1192504E+00
         21   -1    0    0  501  502  0.00000000000E+00  0.00000000000E+00  0.54406416626E+02  0.54406416626E+02  0.00000000000E+00 0. -1.
          1   -1    0    0  502    0 -0.00000000000E+00 -0.00000000000E+00 -0.57781933015E+03  0.57781933015E+03  0.00000000000E+00 0. -1.
         23    2    1    2    0    0  0.65119518013E+02  0.97867181286E+02 -0.22797432196E+03  0.27187867110E+03  0.90150893107E+02 0.  0.
         23    2    1    2    0    0 -0.77151777919E+02 -0.11864985577E+03 -0.19787336394E+03  0.25986987190E+03  0.91369015837E+02 0.  0.
        -11    1    3    3    0    0  0.69086313207E+02  0.53702281330E+02 -0.20283696964E+03  0.22090651857E+03  0.00000000000E+00 0. -1.
         11    1    3    3    0    0 -0.39667951936E+01  0.44164899956E+02 -0.25137352315E+02  0.50972152531E+02  0.00000000000E+00 0.  1.
        -13    1    4    4    0    0 -0.18137297118E+02 -0.10406606650E+03 -0.10554934864E+03  0.14932974500E+03  0.00000000000E+00 0. -1.
         13    1    4    4    0    0 -0.59014480801E+02 -0.14583789263E+02 -0.92324015299E+02  0.11054012690E+03  0.00000000000E+00 0.  1.
          1    1    1    2  501    0  0.12032259905E+02  0.20782674480E+02 -0.97565227627E+02  0.10047720378E+03  0.00000000000E+00 0. -1.
<scales pt_clust_5="13000.00000" pt_clust_6="13000.00000" pt_clust_7="13000.00000" pt_clust_8="13000.00000" pt_clust_9="24.01448"></scales>
<clustering>
<clus scale="   24.014">  1  9  2 -1</clus>
<clus scale="   90.151">  5  6 -1 -1</clus>
<clus scale="   91.369">  7  8 -1 -1</clus>
<clus scale="  156.144">  2  5  1 -1</clus>
<clus scale="   24.014">  1  5  2 -1</clus>
</clustering>
</event>
<event>
 9    1  0.1445593E-005  0.1116959E+03  0.7546771E-02  0.1264771E+00
         21   -1    0    0  501  502  0.00000000000E+00  0.00000000000E+00  0.25090936682E+03  0.25090936682E+03  0.00000000000E+00 0. -1.
         -3   -1    0    0    0  501 -0.00000000000E+00 -0.00000000000E+00 -0.66772702931E+02  0.66772702931E+02  0.00000000000E+00 0.  1.
         23    2    1    2    0    0 -0.39257600507E+02 -0.13050227273E+02  0.37103536501E+02  0.12117465998E+03  0.10768081616E+03 0.  0.
         23    2    1    2    0    0  0.15538513690E+02  0.13873039425E+01  0.75078139483E+02  0.11985143059E+03  0.92110088302E+02 0.  0.
        -11    1    4    4    0    0 -0.12431855053E+02 -0.30199055209E+02 -0.12030613533E+01  0.32679983357E+02  0.00000000000E+00 0.  1.
         11    1    4    4    0    0  0.27970368743E+02  0.31586359152E+02  0.76281200837E+02  0.87171447236E+02  0.00000000000E+00 0. -1.
        -11    1    3    3    0    0 -0.46498954716E+02  0.39890526665E+02  0.26239477008E+02  0.66647708595E+02  0.00000000000E+00 0. -1.
         11    1    3    3    0    0  0.72413542085E+01 -0.52940753938E+02  0.10864059494E+02  0.54526951381E+02  0.00000000000E+00 0.  1.
         -3    1    1    2    0  502  0.23719086817E+02  0.11662923330E+02  0.71954987902E+02  0.76655979180E+02  0.00000000000E+00 0.  1.
<scales pt_clust_5="13000.00000" pt_clust_6="13000.00000" pt_clust_7="13000.00000" pt_clust_8="13000.00000" pt_clust_9="26.43140"></scales>
<clustering>
<clus scale="   26.431">  1  9  2 -1</clus>
<clus scale="   92.110">  5  6 -1 -1</clus>
<clus scale="   96.773">  1  5  2 -1</clus>
<clus scale="  107.681">  7  8 -1 -1</clus>
<clus scale="   26.431">  1  5  2 -1</clus>
</clustering>
</event>
<event>
 9    1  0.1445593E-005  0.9410006E+02  0.7546771E-02  0.1293930E+00
          2   -1    0    0  502    0 -0.00000000000E+00  0.00000000000E+00  0.55217953422E+03  0.55217953422E+03  0.00000000000E+00 0. -1.
         21   -1    0    0  501  502  0.00000000000E+00 -0.00000000000E+00 -0.26247713907E+02  0.26247713907E+02  0.00000000000E+00 0. -1.
         23    2    1    2    0    0 -0.18115647525E+02  0.19246993028E+02  0.37451133709E+03  0.38641255571E+03  0.91418259564E+02 0.  0.
         23    2    1    2    0    0  0.19167274525E+02  0.31692726737E+01  0.13766804003E+03  0.16569503092E+03  0.90138367644E+02 0.  0.
        -11    1    4    4    0    0 -0.10692085986E+02  0.38347156292E+02  0.94354435891E+02  0.10240890914E+03  0.00000000000E+00 0. -1.
         11    1    4    4    0    0  0.29859360511E+02 -0.35177883618E+02  0.43313604142E+02  0.63286121778E+02  0.00000000000E+00 0.  1.
        -11    1    3    3    0    0 -0.14345058938E+00  0.50822850898E+02  0.29003913575E+03  0.29445828739E+03  0.00000000000E+00 0. -1.
         11    1    3    3    0    0 -0.17972196936E+02 -0.31575857869E+02  0.84472201341E+02  0.91954268320E+02  0.00000000000E+00 0.  1.
          2    1    1    2  501    0 -0.10516269999E+01 -0.22416265702E+02  0.13752443189E+02  0.26319661492E+02  0.00000000000E+00 0. -1.
<scales pt_clust_5="13000.00000" pt_clust_6="13000.00000" pt_clust_7="13000.00000" pt_clust_8="13000.00000" pt_clust_9="22.44092"></scales>
<clustering>
<clus scale="   22.441">  2  9  1 -1</clus>
<clus scale="   90.138">  5  6 -1 -1</clus>
<clus scale="   91.418">  7  8 -1 -1</clus>
<clus scale="   92.857">  2  5  1 -1</clus>
<clus scale="   22.441">  2  5  1 -1</clus>
</clustering>
</event>
<event>
 9    1  0.1445593E-005  0.1031740E+03  0.7546771E-02  0.1278163E+00
          1   -1    0    0  502    0 -0.00000000000E+00  0.00000000000E+00  0.29795948983E+03  0.29795948983E+03  0.00000000000E+00 0. -1.
         21   -1    0    0  501  502  0.00000000000E+00 -0.00000000000E+00 -0.51146727416E+02  0.51146727416E+02  0.00000000000E+00 0.  1.
         23    2    1    2    0    0 -0.39722230894E+02 -0.37675969562E+02  0.17838118368E+03  0.20839258717E+03  0.92791645031E+02 0.  0.
         23    2    1    2    0    0  0.87848784764E+01  0.32115225866E+02  0.60515021212E+02  0.10829891847E+03  0.83414783624E+02 0.  0.
        -11    1    4    4    0    0 -0.20558643692E+02  0.76327548075E+01 -0.12964779516E+02  0.25475523239E+02  0.00000000000E+00 0.  1.
         11    1    4    4    0    0  0.29343522169E+02  0.24482471058E+02  0.73479800728E+02  0.82823395230E+02  0.00000000000E+00 0. -1.
        -13    1    3    3    0    0 -0.44621613904E+02 -0.64910023084E+02  0.14518461320E+03  0.16517557760E+03  0.00000000000E+00 0.  1.
         13    1    3    3    0    0  0.48993830091E+01  0.27234053522E+02  0.33196570481E+02  0.43217009577E+02  0.00000000000E+00 0. -1.
          1    1    1    2  501    0  0.30937352418E+02  0.55607436967E+01  0.79165575147E+01  0.32414711598E+02  0.00000000000E+00 0. -1.
<scales pt_clust_5="13000.00000" pt_clust_6="13000.00000" pt_clust_7="13000.00000" pt_clust_8="13000.00000" pt_clust_9="31.43313"></scales>
<clustering>
<clus scale="   31.433">  2  9  1 -1</clus>
<clus scale="   83.415">  5  6 -1 -1</clus>
<clus scale="   92.792">  7  8 -1 -1</clus>
<clus scale="   94.829">  2  5  1 -1</clus>
<clus scale="   31.433">  2  5  1 -1</clus>
</clustering>
</event>
<event>
 9    1  0.1445593E-005  0.9585505E+02  0.7546771E-02  0.1290654E+00
         21   -1    0    0  501  502  0.00000000000E+00  0.00000000000E+00  0.33380392262E+03  0.33380392262E+03  0.00000000000E+00 0. -1.
         -3   -1    0    0    0  501 -0.00000000000E+00 -0.00000000000E+00 -0.10424145769E+03  0.10424145769E+03  0.00000000000E+00 0.  1.
         23    2    1    2    0    0 -0.34338014486E+02 -0.31166218839E+02 -0.43285535302E+01  0.10206250734E+03  0.90816224289E+02 0.  0.
         23    2    1    2    0    0 -0.26234608223E+02  0.10914036836E+02  0.43003598123E+01  0.97674115174E+02  0.93350783670E+02 0.  0.
        -11    1    3    3    0    0 -0.48141830216E+02 -0.47572319718E+02 -0.25123524761E+02  0.72193856500E+02  0.00000000000E+00 0. -1.
         11    1    3    3    0    0  0.13803815730E+02  0.16406100879E+02  0.20794971231E+02  0.29868650844E+02  0.00000000000E+00 0.  1.
        -13    1    4    4    0    0 -0.60256202659E+02  0.15607601951E+02 -0.38933899735E+01  0.62366382636E+02  0.00000000000E+00 0. -1.
         13    1    4    4    0    0  0.34021594436E+02 -0.46935651150E+01  0.81937497858E+01  0.35307732538E+02  0.00000000000E+00 0.  1.
         -3    1    1    2    0  502  0.60572622709E+02  0.20252182003E+02  0.22959065865E+03  0.23830875779E+03  0.00000000000E+00 0.  1.
<scales pt_clust_5="13000.00000" pt_clust_6="13000.00000" pt_clust_7="13000.00000" pt_clust_8="13000.00000" pt_clust_9="63.86856"></scales>
<clustering>
<clus scale="   63.869">  1  9  2 -1</clus>
<clus scale="   90.816">  5  6 -1 -1</clus>
<clus scale="   93.351">  7  8 -1 -1</clus>
<clus scale="   93.388">  2  5  1 -1</clus>
<clus scale="   63.869">  1  5  2 -1</clus>
</clustering>
</event>
<event>
 9    1  0.1445593E-005  0.9524363E+02  0.7546771E-02  0.1291924E+00
          1   -1    0    0  502    0 -0.00000000000E+00  0.00000000000E+00  0.17383664032E+03  0.17383664032E+03  0.00000000000E+00 0. -1.
         21   -1    0    0  501  502  0.00000000000E+00 -0.00000000000E+00 -0.21722990542E+03  0.21722990542E+03  0.00000000000E+00 0.  1.
         23    2    1    2    0    0  0.24600270109E+02 -0.43871305867E+01  0.13869203567E+03  0.16814887719E+03  0.91728642951E+02 0.  0.
         23    2    1    2    0    0 -0.27973682771E+02  0.29370136308E+02 -0.16653422244E+03  0.19329729507E+03  0.89359192032E+02 0.  0.
        -11    1    3    3    0    0 -0.24667489041E+02 -0.22228806065E+02  0.20919460300E+02  0.39245746953E+02  0.00000000000E+00 0.  1.
         11    1    3    3    0    0  0.49267759150E+02  0.17841675478E+02  0.11777257537E+03  0.12890313024E+03  0.00000000000E+00 0. -1.
        -11    1    4    4    0    0 -0.31489841849E+02  0.53621915978E+02 -0.69687894610E+02  0.93398729478E+02  0.00000000000E+00 0.  1.
         11    1    4    4    0    0  0.35161590781E+01 -0.24251779670E+02 -0.96846327833E+02  0.99898565588E+02  0.00000000000E+00 0. -1.
          1    1    1    2  501    0  0.33734126623E+01 -0.24983005721E+02 -0.15551078328E+02  0.29620373479E+02  0.00000000000E+00 0. -1.
<scales pt_clust_5="13000.00000" pt_clust_6="13000.00000" pt_clust_7="13000.00000" pt_clust_8="13000.00000" pt_clust_9="25.20973"></scales>
<clustering>
<clus scale="   25.210">  2  9  1 -1</clus>
<clus scale="   89.359">  7  8 -1 -1</clus>
<clus scale="   91.729">  5  6 -1 -1</clus>
<clus scale="   92.964">  2  7  1 -1</clus>
<clus scale="   25.210">  2  5  1 -1</clus>
</clustering>
</event>
<event>
 9    1  0.1445593E-005  0.9315489E+02  0.7546771E-02  0.1297106E+00
          2   -1    0    0  502    0 -0.00000000000E+00  0.00000000000E+00  0.20546506369E+03  0.20546506369E+03  0.00000000000E+00 0. -1.
         21   -1    0    0  501  502  0.00000000000E+00 -0.00000000000E+00 -0.57811062492E+02  0.57811062492E+02  0.00000000000E+00 0.  1.
         23    2    1    2    0    0  0.18626634401E+02  0.33968478344E+01  0.85846829810E+02  0.12410098804E+03  0.87595016747E+02 0.  0.
         23    2    1    2    0    0 -0.14762604880E+02 -0.29757656899E+02  0.38930135916E+02  0.10405845079E+03  0.90604376560E+02 0.  0.
        -11    1    4    4    0    0 -0.29916698600E+02  0.17083465906E+02  0.42486406953E+02  0.54698706002E+02  0.00000000000E+00 0. -1.
         11    1    4    4    0    0  0.15154093719E+02 -0.46841122805E+02 -0.35562710374E+01  0.49359744790E+02  0.00000000000E+00 0.  1.
        -13    1    3    3    0    0  0.41357750303E+01 -0.41671415538E+02  0.34463971442E+02  0.54234461697E+02  0.00000000000E+00 0.  1.
         13    1    3    3    0    0  0.14490859370E+02  0.45068263372E+02  0.51382858368E+02  0.69866526339E+02  0.00000000000E+00 0. -1.
          2    1    1    2  501    0 -0.38640295203E+01  0.26360809065E+02  0.22877035471E+02  0.35116687353E+02  0.00000000000E+00 0. -1.
<scales pt_clust_5="13000.00000" pt_clust_6="13000.00000" pt_clust_7="13000.00000" pt_clust_8="13000.00000" pt_clust_9="26.64252"></scales>
<clustering>
<clus scale="   26.643">  2  9  1 -1</clus>
<clus scale="   87.595">  7  8 -1 -1</clus>
<clus scale="   90.231">  1  7  2 -1</clus>
<clus scale="   90.604">  5  6 -1 -1</clus>
<clus scale="   26.643">  2  5  1 -1</clus>
</clustering>
</event>
<event>
 9    1  0.1445593E-005  0.1699008E+03  0.7546771E-02  0.1178015E+00
         21   -1    0    0  501  502  0.00000000000E+00  0.00000000000E+00  0.11017556220E+03  0.11017556220E+03  0.00000000000E+00 0.  1.
          1   -1    0    0  502    0 -0.00000000000E+00 -0.00000000000E+00 -0.51491653061E+03  0.51491653061E+03  0.00000000000E+00 0. -1.
         23    2    1    2    0    0  0.15419423843E+03 -0.11311784892E+02 -0.39182441060E+03  0.43032406038E+03  0.88026181089E+02 0.  0.
         23    2    1    2    0    0 -0.11690514209E+03  0.12908700251E+02 -0.35871194759E+02  0.15095088738E+03  0.87555588039E+02 0.  0.
        -13    1    4    4    0    0 -0.51280197345E+02  0.49518015996E+02 -0.21355439204E+02  0.74416042165E+02  0.00000000000E+00 0. -1.
         13    1    4    4    0    0 -0.65624944748E+02 -0.36609315745E+02 -0.14515755554E+02  0.76534845213E+02  0.00000000000E+00 0.  1.
        -13    1    3    3    0    0  0.30225563489E+02  0.20906437902E+02 -0.17219777676E+03  0.17607594429E+03  0.00000000000E+00 0.  1.
         13    1    3    3    0    0  0.12396867494E+03 -0.32218222794E+02 -0.21962663383E+03  0.25424811609E+03  0.00000000000E+00 0. -1.
          1    1    1    2  501    0 -0.37289096336E+02 -0.15969153594E+01  0.22954636943E+02  0.43817145062E+02  0.00000000000E+00 0. -1.
<scales pt_clust_5="13000.00000" pt_clust_6="13000.00000" pt_clust_7="13000.00000" pt_clust_8="13000.00000" pt_clust_9="37.32327"></scales>
<clustering>
<clus scale="   37.323">  1  9  2 -1</clus>
<clus scale="   87.556">  5  6 -1 -1</clus>
<clus scale="   88.026">  7  8 -1 -1</clus>
<clus scale="  169.658">  1  5  2 -1</clus>
<clus scale="   37.323">  1  5  2 -1</clus>
</clustering>
</event>
<event>
 9    1  0.1445593E-005  0.1816550E+03  0.7546771E-02  0.1169822E+00
         21   -1    0    0  501  502  0.00000000000E+00  0.00000000000E+00  0.48224958057E+02  0.48224958057E+02  0.00000000000E+00 0.  1.
          1   -1    0    0  502    0 -0.00000000000E+00 -0.00000000000E+00 -0.12934492176E+04  0.12934492176E+04  0.00000000000E+00 0. -1.
         23    2    1    2    0    0 -0.12889292890E+03 -0.55901631502E+01 -0.72834299317E+03  0.74860994606E+03  0.11527661776E+03 0.  0.
         23    2    1    2    0    0  0.17530505189E+03 -0.53921561773E+02 -0.29779773756E+03  0.36134603185E+03  0.90818864784E+02 0.  0.
        -13    1    3    3    0    0 -0.32690169052E+02 -0.55272700880E+02 -0.29981140053E+03  0.30661147157E+03  0.00000000000E+00 0.  1.
         13    1    3    3    0    0 -0.96202759847E+02  0.49682537730E+02 -0.42853159264E+03  0.44199847449E+03  0.00000000000E+00 0. -1.
        -13    1    4    4    0    0  0.25007572503E+02 -0.48141138600E+02 -0.77649206685E+02  0.94722474667E+02  0.00000000000E+00 0. -1.
         13    1    4    4    0    0  0.15029747939E+03 -0.57804231734E+01 -0.22014853087E+03  0.26662355719E+03  0.00000000000E+00 0.  1.
          1    1    1    2  501    0 -0.46412122992E+02  0.59511724924E+02 -0.21908352880E+03  0.23171819772E+03  0.00000000000E+00 0. -1.
<scales pt_clust_5="13000.00000" pt_clust_6="13000.00000" pt_clust_7="13000.00000" pt_clust_8="13000.00000" pt_clust_9="75.47010"></scales>
<clustering>
<clus scale="   75.470">  1  9  2 -1</clus>
<clus scale="   90.819">  7  8 -1 -1</clus>
<clus scale="  115.277">  5  6 -1 -1</clus>
<clus scale="  167.206">  1  7  2 -1</clus>
<clus scale="   75.470">  1  5  2 -1</clus>
</clustering>
</event>
<event>
 9    1  0.1445593E-005  0.1066184E+03  0.7546771E-02  0.1270397E+00
          1   -1    0    0  502    0 -0.00000000000E+00  0.00000000000E+00  0.48063963025E+03  0.48063963025E+03  0.00000000000E+00 0. -1.
         21   -1    0    0  501  502  0.00000000000E+00 -0.00000000000E+00 -0.39541430062E+02  0.39541430062E+02  0.00000000000E+00 0.  1.
         23    2    1    2    0    0  0.10745992445E+02  0.12597518206E+02  0.27816972272E+03  0.29560984087E+03  0.98653989080E+02 0.  0.
         23    2    1    2    0    0 -0.20819040580E+02  0.12499518546E+02  0.16506141754E+03  0.19744416679E+03  0.10559004226E+03 0.  0.
        -13    1    3    3    0    0 -0.31306818813E+02  0.27993204327E+02  0.20922052203E+03  0.21339391564E+03  0.00000000000E+00 0.  1.
         13    1    3    3    0    0  0.42052811257E+02 -0.15395686121E+02  0.68949200694E+02  0.82215925234E+02  0.00000000000E+00 0. -1.
        -13    1    4    4    0    0 -0.92419347858E+01 -0.46875414401E+02  0.69193414865E+02  0.84085947069E+02  0.00000000000E+00 0. -1.
         13    1    4    4    0    0 -0.11577105794E+02  0.59374932947E+02  0.95868002673E+02  0.11335821972E+03  0.00000000000E+00 0.  1.
          1    1    1    2  501    0  0.10073048135E+02 -0.25097036752E+02 -0.21329400714E+01  0.27127052657E+02  0.00000000000E+00 0. -1.
<scales pt_clust_5="13000.00000" pt_clust_6="13000.00000" pt_clust_7="13000.00000" pt_clust_8="13000.00000" pt_clust_9="27.04307"></scales>
<clustering>
<clus scale="   27.043">  2  9  1 -1</clus>
<clus scale="   98.654">  5  6 -1 -1</clus>
<clus scale="   99.754">  1  5  2 -1</clus>
<clus scale="  105.590">  7  8 -1 -1</clus>
<clus scale="   27.043">  2  5  1 -1</clus>
</clustering>
</event>
<event>
 9    1  0.1445593E-005  0.1742474E+03  0.7546771E-02  0.1176080E+00
         21   -1    0    0  501  502  0.00000000000E+00  0.00000000000E+00  0.11586637819E+03  0.11586637819E+03  0.00000000000E+00 0. -1.
          2   -1    0    0  502    0 -0.00000000000E+00 -0.00000000000E+00 -0.75021068676E+03  0.75021068676E+03  0.00000000000E+00 0. -1.
         23    2    1    2    0    0  0.12212088529E+03 -0.10278137383E+03 -0.59784208294E+03  0.62554071127E+03  0.91697894711E+02 0.  0.
         23    2    1    2    0    0 -0.63442461678E+02  0.10366247673E+02 -0.35629473430E+02  0.13106272838E+03  0.10851531855E+03 0.  0.
        -11    1    4    4    0    0  0.29120858007E+02  0.16204155347E+02 -0.77348035700E+01  0.34211492336E+02  0.00000000000E+00 0.  1.
         11    1    4    4    0    0 -0.92563319685E+02 -0.58379076739E+01 -0.27894669860E+02  0.96851236046E+02  0.00000000000E+00 0. -1.
        -13    1    3    3    0    0  0.74342589422E+02 -0.98403456339E+02 -0.30833805632E+03  0.33208796696E+03  0.00000000000E+00 0.  1.
         13    1    3    3    0    0  0.47778295866E+02 -0.43779174889E+01 -0.28950402662E+03  0.29345274431E+03  0.00000000000E+00 0. -1.
          2    1    1    2  501    0 -0.58678423610E+02  0.92415126154E+02 -0.87275221006E+00  0.10947362530E+03  0.00000000000E+00 0. -1.
<scales pt_clust_5="13000.00000" pt_clust_6="13000.00000" pt_clust_7="13000.00000" pt_clust_8="13000.00000" pt_clust_9="109.47015"></scales>
<clustering>
<clus scale="   91.698">  7  8 -1 -1</clus>
<clus scale="  108.515">  5  6 -1 -1</clus>
<clus scale="  109.470">  1  9  2 -1</clus>
<clus scale="  164.302">  2  7  1 -1</clus>
<clus scale="  109.470">  1  5  2 -1</clus>
</clustering>
</event>
<event>
 9    1  0.1445593E-005  0.9408354E+02  0.7546771E-02  0.1293384E+00
         -3   -1    0    0    0  501 -0.00000000000E+00  0.00000000000E+00  0.38412959548E+03  0.38412959548E+03  0.00000000000E+00 0.  1.
         21   -1    0    0  501  502  0.00000000000E+00 -0.00000000000E+00 -0.34852970336E+02  0.34852970336E+02  0.00000000000E+00 0. -1.
         23    2    1    2    0    0  0.28508555496E+02  0.42379038531E+01  0.25405588291E+03  0.27134921193E+03  0.90858712332E+02 0.  0.
         23    2    1    2    0    0 -0.84743311005E+01 -0.96350449812E+01  0.75504410204E+02  0.11901110680E+03  0.91093793439E+02 0.  0.
        -11    1    4    4    0    0 -0.24170431477E+02  0.34982870136E+02  0.48680958642E+02  0.64636264551E+02  0.00000000000E+00 0.  1.
         11    1    4    4    0    0  0.15696100377E+02 -0.44617915117E+02  0.26823451561E+02  0.54374842253E+02  0.00000000000E+00 0. -1.
        -11    1    3    3    0    0 -0.29923013766E+02  0.13233753380E+02  0.12804257238E+03  0.13215679824E+03  0.00000000000E+00 0.  1.
         11    1    3    3    0    0  0.58431569262E+02 -0.89958495274E+01  0.12601331054E+03  0.13919241369E+03  0.00000000000E+00 0. -1.
         -3    1    1    2    0  502 -0.20034224395E+02  0.53971411282E+01  0.19716332027E+02  0.28622247083E+02  0.00000000000E+00 0.  1.
<scales pt_clust_5="13000.00000" pt_clust_6="13000.00000" pt_clust_7="13000.00000" pt_clust_8="13000.00000" pt_clust_9="20.74848"></scales>
<clustering>
<clus scale="   20.748">  2  9  1 -1</clus>
<clus scale="   90.859">  7  8 -1 -1</clus>
<clus scale="   91.094">  5  6 -1 -1</clus>
<clus scale="   93.856">  1  7  2 -1</clus>
<clus scale="   20.748">  2  5  1 -1</clus>
</clustering>
</event>
<event>
 9    1  0.1445593E-005  0.1189751E+03  0.7546771E-02  0.1244863E+00
         21   -1    0    0  501  502  0.00000000000E+00  0.00000000000E+00  0.16128171488E+03  0.16128171488E+03  0.00000000000E+00 0. -1.
         -2   -1    0    0    0  501 -0.00000000000E+00 -0.00000000000E+00 -0.37587176196E+03  0.37587176196E+03  0.00000000000E+00 0.  1.
         23    2    1    2    0    0  0.65845477903E+02  0.30800236687E+02 -0.27530308173E+03  0.29889783143E+03  0.90905694455E+02 0.  0.
         23    2    1    2    0    0 -0.65983729738E+02 -0.10500112839E+03  0.24122898320E+02  0.15552336925E+03  0.90700135636E+02 0.  0.
        -11    1    4    4    0    0 -0.10649938744E+02 -0.96583489576E+02  0.92349652232E+01  0.97606742783E+02  0.00000000000E+00 0.  1.
         11    1    4    4    0    0 -0.55333790994E+02 -0.84176388164E+01  0.14887933096E+02  0.57916626464E+02  0.00000000000E+00 0. -1.
        -13    1    3    3    0    0  0.73492217155E+02  0.53684743227E+02 -0.19797300858E+03  0.21789095843E+03  0.00000000000E+00 0.  1.
         13    1    3    3    0    0 -0.76467392513E+01 -0.22884506541E+02 -0.77330073148E+02  0.81006873004E+02  0.00000000000E+00 0. -1.
         -2    1    1    2    0  502  0.13825183477E+00  0.74200891706E+02  0.36590136330E+02  0.82732276169E+02  0.00000000000E+00 0.  1.
<scales pt_clust_5="13000.00000" pt_clust_6="13000.00000" pt_clust_7="13000.00000" pt_clust_8="13000.00000" pt_clust_9="74.20102"></scales>
<clustering>
<clus scale="   74.201">  1  9  2 -1</clus>
<clus scale="   90.700">  5  6 -1 -1</clus>
<clus scale="   90.906">  7  8 -1 -1</clus>
<clus scale="  118.818">  1  5  2 -1</clus>
<clus scale="   74.201">  1  5  2 -1</clus>
</clustering>
</event>
<event>
 9    1  0.1445593E-005  0.1181487E+03  0.7546771E-02  0.1250745E+00
         21   -1    0    0  501  502  0.00000000000E+00  0.00000000000E+00  0.78359937229E+02  0.78359937229E+02  0.00000000000E+00 0.  1.
          1   -1    0    0  502    0 -0.00000000000E+00 -0.00000000000E+00 -0.39004205727E+03  0.39004205727E+03  0.00000000000E+00 0. -1.
         23    2    1    2    0    0  0.33756424560E+02 -0.48221165363E+02 -0.31396779659E+03  0.33233247781E+03  0.91675086713E+02 0.  0.
         23    2    1    2    0    0 -0.11660921061E+02  0.45028845700E+02 -0.45443959964E+00  0.11357706426E+03  0.10361452111E+03 0.  0.
        -11    1    4    4    0    0 -0.41225467875E+02  0.63098574236E+02  0.12852818255E+02  0.76460213243E+02  0.00000000000E+00 0. -1.
         11    1    4    4    0    0  0.29564546814E+02 -0.18069728535E+02 -0.13307257855E+02  0.37116851015E+02  0.00000000000E+00 0.  1.
        -11    1    3    3    0    0  0.23585974301E+01 -0.68916670820E+02 -0.23427755449E+03  0.24421515726E+03  0.00000000000E+00 0.  1.
         11    1    3    3    0    0  0.31397827130E+02  0.20695505457E+02 -0.79690242100E+02  0.88117320548E+02  0.00000000000E+00 0. -1.
          1    1    1    2  501    0 -0.22095503499E+02  0.31923196628E+01  0.27401161519E+01  0.22492452428E+02  0.00000000000E+00 0. -1.
<scales pt_clust_5="13000.00000" pt_clust_6="13000.00000" pt_clust_7="13000.00000" pt_clust_8="13000.00000" pt_clust_9="22.32492"></scales>
<clustering>
<clus scale="   22.325">  1  9  2 -1</clus>
<clus scale="   91.675">  7  8 -1 -1</clus>
<clus scale="  103.615">  5  6 -1 -1</clus>
<clus scale="  107.831">  2  7  1 -1</clus>
<clus scale="   22.325">  1  5  2 -1</clus>
</clustering>
</event>
<event>
 9    1  0.1445593E-005  0.1924274E+03  0.7546771E-02  0.1156405E+00
         21   -1    0    0  501  502  0.00000000000E+00  0.00000000000E+00  0.93716791943E+02  0.93716791943E+02  0.00000000000E+00 0.  1.
          2   -1    0    0  502    0 -0.00000000000E+00 -0.00000000000E+00 -0.53448592033E+03  0.53448592033E+03  0.00000000000E+00 0. -1.
         23    2    1    2    0    0 -0.10256375527E+03 -0.13110931894E+03 -0.26587513074E+03  0.32663211360E+03  0.91049300287E+02 0.  0.
         23    2    1    2    0    0  0.70757447220E+02  0.16380846521E+03 -0.13716495258E+03  0.24237299534E+03  0.89947846232E+02 0.  0.
        -11    1    3    3    0    0 -0.17685889959E+02 -0.17564242134E+02  0.44717328402E+00  0.24929766732E+02  0.00000000000E+00 0.  1.
         11    1    3    3    0    0 -0.84877865309E+02 -0.11354507680E+03 -0.26632230402E+03  0.30170234687E+03  0.00000000000E+00 0. -1.
        -13    1    4    4    0    0  0.50131216217E+02  0.17017116116E+03 -0.12878134593E+03  0.21921678309E+03  0.00000000000E+00 0.  1.
         13    1    4    4    0    0  0.20626231003E+02 -0.63626959481E+01 -0.83836066440E+01  0.23156212244E+02  0.00000000000E+00 0. -1.
          2    1    1    2  501    0  0.31806308048E+02 -0.32699146274E+02 -0.37729045076E+02  0.59197603338E+02  0.00000000000E+00 0. -1.
<scales pt_clust_5="13000.00000" pt_clust_6="13000.00000" pt_clust_7="13000.00000" pt_clust_8="13000.00000" pt_clust_9="45.61661"></scales>
<clustering>
<clus scale="   45.617">  1  9  2 -1</clus>
<clus scale="   89.948">  7  8 -1 -1</clus>
<clus scale="   91.049">  5  6 -1 -1</clus>
<clus scale="  191.909">  1  7  2 -1</clus>
<clus scale="   45.617">  1  5  2 -1</clus>
</clustering>
</event>
<event>
 9    1  0.1445593E-005  0.1198425E+03  0.7546771E-02  0.1245164E+00
         21   -1    0    0  501  502  0.00000000000E+00  0.00000000000E+00  0.76214102934E+03  0.76214102934E+03  0.00000000000E+00 0.  1.
         -3   -1    0    0    0  501 -0.00000000000E+00 -0.00000000000E+00 -0.27439958830E+02  0.27439958830E+02  0.00000000000E+00 0.  1.
         23    2    1    2    0    0  0.39083581224E+02 -0.67322662379E+02  0.17065548983E+03  0.20744091404E+03  0.88592152114E+02 0.  0.
         23    2    1    2    0    0 -0.51659068326E+02  0.45075886490E+02  0.41985018642E+03  0.43569768397E+03  0.94115874804E+02 0.  0.
        -11    1    3    3    0    0  0.24981620215E+02 -0.86205202318E+02  0.15511975118E+03  0.17921371449E+03  0.00000000000E+00 0.  1.
         11    1    3    3    0    0  0.14101961008E+02  0.18882539940E+02  0.15535738653E+02  0.28227199549E+02  0.00000000000E+00 0. -1.
        -13    1    4    4    0    0 -0.41135020419E+02 -0.22661552113E+02  0.19825925889E+03  0.20374584557E+03  0.00000000000E+00 0.  1.
         13    1    4    4    0    0 -0.10524047907E+02  0.67737438602E+02  0.22159092753E+03  0.23195183840E+03  0.00000000000E+00 0. -1.
         -3    1    1    2    0  502  0.12575487102E+02  0.22246775889E+02  0.14419539425E+03  0.14644239017E+03  0.00000000000E+00 0.  1.
<scales pt_clust_5="13000.00000" pt_clust_6="13000.00000" pt_clust_7="13000.00000" pt_clust_8="13000.00000" pt_clust_9="25.55508"></scales>
<clustering>
<clus scale="   25.555">  1  9  2 -1</clus>
<clus scale="   88.592">  5  6 -1 -1</clus>
<clus scale="   94.116">  7  8 -1 -1</clus>
<clus scale="  115.555">  2  5  1 -1</clus>
<clus scale="   25.555">  1  5  2 -1</clus>
</clustering>
</event>
<event>
 9    1  0.1445593E-005  0.2089094E+03  0.7546771E-02  0.1173902E+00
          1   -1    0    0  502    0 -0.00000000000E+00  0.00000000000E+00  0.12712673235E+04  0.12712673235E+04  0.00000000000E+00 0. -1.
         21   -1    0    0  501  502  0.00000000000E+00 -0.00000000000E+00 -0.67002997878E+02  0.67002997878E+02  0.00000000000E+00 0. -1.
         23    2    1    2    0    0 -0.55909517609E+02  0.23923472962E+02  0.18202419577E+03  0.20776461941E+03  0.79593482851E+02 0.  0.
         23    2    1    2    0    0 -0.14324286342E+03 -0.38988822603E+02  0.84778593773E+03  0.86532104787E+03  0.89447601805E+02 0.  0.
        -11    1    4    4    0    0 -0.12323408636E+03  0.59313765907E+01  0.64132214646E+03  0.65308186072E+03  0.00000000000E+00 0. -1.
         11    1    4    4    0    0 -0.20008777067E+02 -0.44920199194E+02  0.20646379127E+03  0.21223918715E+03  0.00000000000E+00 0.  1.
        -13    1    3    3    0    0 -0.10482629104E+02  0.38482910276E+02  0.34554824587E+02  0.52771732950E+02  0.00000000000E+00 0.  1.
         13    1    3    3    0    0 -0.45426888505E+02 -0.14559437314E+02  0.14746937119E+03  0.15499288646E+03  0.00000000000E+00 0. -1.
          1    1    1    2  501    0  0.19915238103E+03  0.15065349641E+02  0.17445419217E+03  0.26518465415E+03  0.00000000000E+00 0. -1.
<scales pt_clust_5="13000.00000" pt_clust_6="13000.00000" pt_clust_7="13000.00000" pt_clust_8="13000.00000" pt_clust_9="188.79156"></scales>
<clustering>
<clus scale="   79.593">  7  8 -1 -1</clus>
<clus scale="   89.448">  5  6 -1 -1</clus>
<clus scale="  100.167">  1  7  2 -1</clus>
<clus scale="  188.792">  2  9  1 -1</clus>
<clus scale="  188.792">  2  5  1 -1</clus>
</clustering>
</event>
<event>
 9    1  0.1445593E-005  0.1019146E+03  0.7546771E-02  0.1276447E+00
          4   -1    0    0  502    0 -0.00000000000E+00  0.00000000000E+00  0.25855415315E+03  0.25855415315E+03  0.00000000000E+00 0. -1.
         21   -1    0    0  501  502  0.00000000000E+00 -0.00000000000E+00 -0.17433311916E+03  0.17433311916E+03  0.00000000000E+00 0.  1.
         23    2    1    2    0    0 -0.11032264228E+02  0.75249862369E+02  0.16068821426E+03  0.19916891551E+03  0.89795891121E+02 0.  0.
         23    2    1    2    0    0 -0.21252559235E+02 -0.29616613900E+01  0.33722817094E+02  0.98035899040E+02  0.89517408338E+02 0.  0.
        -11    1    3    3    0    0  0.20669144782E+02  0.77639382174E+02  0.84425198709E+02  0.11654484711E+03  0.00000000000E+00 0.  1.
         11    1    3    3    0    0 -0.31701409010E+02 -0.23895198051E+01  0.76263015550E+02  0.82624068400E+02  0.00000000000E+00 0. -1.
        -11    1    4    4    0    0 -0.51959608567E+02  0.16144658529E+02  0.28722689410E+02  0.61525960443E+02  0.00000000000E+00 0.  1.
         11    1    4    4    0    0  0.30707049332E+02 -0.19106319919E+02  0.50001276841E+01  0.36509938597E+02  0.00000000000E+00 0. -1.
          4    1    1    2  501    0  0.32284823463E+02 -0.72288200979E+02 -0.11018999736E+03  0.13568245777E+03  0.00000000000E+00 0. -1.
<scales pt_clust_5="13000.00000" pt_clust_6="13000.00000" pt_clust_7="13000.00000" pt_clust_8="13000.00000" pt_clust_9="79.17003"></scales>
<clustering>
<clus scale="   79.170">  2  9  1 -1</clus>
<clus scale="   89.517">  7  8 -1 -1</clus>
<clus scale="   89.796">  5  6 -1 -1</clus>
<clus scale="  101.669">  2  7  1 -1</clus>
<clus scale="   79.170">  2  5  1 -1</clus>
</clustering>
</event>
<event>
 9    1  0.1445593E-005  0.1216583E+03  0.7546771E-02  0.1246893E+00
         21   -1    0    0  501  502  0.00000000000E+00  0.00000000000E+00  0.19994678102E+03  0.19994678102E+03  0.00000000000E+00 0.  1.
         -3   -1    0    0    0  501 -0.00000000000E+00 -0.00000000000E+00 -0.28621339871E+03  0.28621339871E+03  0.00000000000E+00 0.  1.
         23    2    1    2    0    0  0.80240435381E+01  0.54820184310E+02 -0.17470696801E+03  0.20470337916E+03  0.91166391203E+02 0.  0.
         23    2    1    2    0    0  0.37747754265E+02  0.57989214311E+02  0.10975595114E+03  0.15786322172E+03  0.89926559110E+02 0.  0.
        -11    1    3    3    0    0  0.28408220533E+02  0.22445381216E+02 -0.15946156914E+03  0.16352007267E+03  0.00000000000E+00 0.  1.
         11    1    3    3    0    0 -0.20384176995E+02  0.32374803093E+02 -0.15245398873E+02  0.41183306495E+02  0.00000000000E+00 0. -1.
        -13    1    4    4    0    0  0.18988189252E+02 -0.23149591390E+02  0.33716573998E+02  0.45091709601E+02  0.00000000000E+00 0. -1.
         13    1    4    4    0    0  0.18759565012E+02  0.81138805700E+02  0.76039377146E+02  0.11277151212E+03  0.00000000000E+00 0.  1.
         -3    1    1    2    0  502 -0.45771797803E+02 -0.11280939862E+03 -0.21315600819E+02  0.12359357884E+03  0.00000000000E+00 0.  1.
<scales pt_clust_5="13000.00000" pt_clust_6="13000.00000" pt_clust_7="13000.00000" pt_clust_8="13000.00000" pt_clust_9="81.93883"></scales>
<clustering>
<clus scale="   89.927">  7  8 -1 -1</clus>
<clus scale="   91.166">  5  6 -1 -1</clus>
<clus scale="  106.682">  2  5  1 -1</clus>
<clus scale="   81.939">  1  9  2 -1</clus>
<clus scale="   81.939">  1  5  2 -1</clus>
</clustering>
</event>
<event>
 9    1  0.1445593E-005  0.1476930E+03  0.7546771E-02  0.1203690E+00
         -3   -1    0    0    0  501 -0.00000000000E+00  0.00000000000E+00  0.36751929012E+03  0.36751929012E+03  0.00000000000E+00 0.  1.
         21   -1    0    0  501  502  0.00000000000E+00 -0.00000000000E+00 -0.18202571093E+03  0.18202571093E+03  0.00000000000E+00 0.  1.
         23    2    1    2    0    0  0.34361524177E+02  0.11180703223E+03  0.29647984759E+03  0.33186463159E+03  0.92478683343E+02 0.  0.
         23    2    1    2    0    0 -0.57400838396E+02 -0.91568079692E+02 -0.50453815800E+02  0.14982314422E+03  0.90674238606E+02 0.  0.
        -13    1    3    3    0    0  0.35703468558E+02  0.35350307161E+02  0.39980058255E+02  0.64208931945E+02  0.00000000000E+00 0. -1.
         13    1    3    3    0    0 -0.13419443808E+01  0.76456725071E+02  0.25649978934E+03  0.26765569965E+03  0.00000000000E+00 0.  1.
        -13    1    4    4    0    0 -0.51038339921E+02 -0.26115629092E+01 -0.26046504804E+02  0.57359853689E+02  0.00000000000E+00 0.  1.
         13    1    4    4    0    0 -0.63624984750E+01 -0.88956516783E+02 -0.24407310997E+02  0.92463290527E+02  0.00000000000E+00 0. -1.
         -3    1    1    2    0  502  0.23039314219E+02 -0.20238952540E+02 -0.60532452599E+02  0.67857225240E+02  0.00000000000E+00 0.  1.
<scales pt_clust_5="13000.00000" pt_clust_6="13000.00000" pt_clust_7="13000.00000" pt_clust_8="13000.00000" pt_clust_9="30.66635"></scales>
<clustering>
<clus scale="   30.666">  2  9  1 -1</clus>
<clus scale="   90.674">  7  8 -1 -1</clus>
<clus scale="   92.479">  5  6 -1 -1</clus>
<clus scale="  146.570">  2  7  1 -1</clus>
<clus scale="   30.666">  2  5  1 -1</clus>
</clustering>
</event>
<event>
 9    1  0.1445593E-005  0.1685854E+03  0.7546771E-02  0.1179558E+00
         21   -1    0    0  501  502  0.00000000000E+00  0.00000000000E+00  0.19177916210E+03  0.19177916210E+03  0.00000000000E+00 0.  1.
          1   -1    0    0  502    0 -0.00000000000E+00 -0.00000000000E+00 -0.27060234880E+03  0.27060234880E+03  0.00000000000E+00 0. -1.
         23    2    1    2    0    0  0.14894496564E+03 -0.52826731838E+02 -0.38073164494E+02  0.18603481325E+03  0.90466123511E+02 0.  0.
         23    2    1    2    0    0 -0.72329262554E+02  0.12267895621E+03 -0.22120378509E+02  0.17100742277E+03  0.92046613064E+02 0.  0.
        -11    1    4    4    0    0 -0.86878198449E+02  0.10217014070E+03 -0.40232020580E+02  0.14001847913E+03  0.00000000000E+00 0.  1.
         11    1    4    4    0    0  0.14548935896E+02  0.20508815510E+02  0.18111642071E+02  0.30988943639E+02  0.00000000000E+00 0. -1.
        -11    1    3    3    0    0  0.36357824161E+02 -0.58441362516E+02 -0.21422187202E+02  0.72084633140E+02  0.00000000000E+00 0. -1.
         11    1    3    3    0    0  0.11258714148E+03  0.56146306784E+01 -0.16650977293E+02  0.11395018011E+03  0.00000000000E+00 0.  1.
          1    1    1    2  501    0 -0.76615703083E+02 -0.69852224375E+02 -0.18629643690E+02  0.10533927488E+03  0.00000000000E+00 0. -1.
<scales pt_clust_5="13000.00000" pt_clust_6="13000.00000" pt_clust_7="13000.00000" pt_clust_8="13000.00000" pt_clust_9="103.67888"></scales>
<clustering>
<clus scale="   90.466">  7  8 -1 -1</clus>
<clus scale="   92.047">  5  6 -1 -1</clus>
<clus scale="  103.679">  1  9  2 -1</clus>
<clus scale="  167.728">  2  7  1 -1</clus>
<clus scale="  103.679">  1  5  2 -1</clus>
</clustering>
</event>
<event>
 9    1  0.1445593E-005  0.9993917E+02  0.7546771E-02  0.1283702E+00
          3   -1    0    0  502    0 -0.00000000000E+00  0.00000000000E+00  0.26728341758E+03  0.26728341758E+03  0.00000000000E+00 0. -1.
         21   -1    0    0  501  502  0.00000000000E+00 -0.00000000000E+00 -0.18253757658E+03  0.18253757658E+03  0.00000000000E+00 0. -1.
         23    2    1    2    0    0 -0.26785682594E+02 -0.27312751862E+01  0.11825292817E+03  0.15414148603E+03  0.95136270877E+02 0.  0.
         23    2    1    2    0    0  0.31133419404E+02 -0.22632056193E+02  0.11194233322E+03  0.14797123049E+03  0.88785693192E+02 0.  0.
        -11    1    3    3    0    0 -0.57869271943E+02 -0.44062869535E+01  0.41591546975E+02  0.71401153910E+02  0.00000000000E+00 0.  1.
         11    1    3    3    0    0  0.31083589349E+02  0.16750117673E+01  0.76661381200E+02  0.82740332116E+02  0.00000000000E+00 0. -1.
        -13    1    4    4    0    0  0.14144192768E+01 -0.25221235369E+02  0.11522325304E+03  0.11795977847E+03  0.00000000000E+00 0.  1.
         13    1    4    4    0    0  0.29719000127E+02  0.25891791766E+01 -0.32809198259E+01  0.30011452019E+02  0.00000000000E+00 0. -1.
          3    1    1    2  501    0 -0.43477368100E+01  0.25363331379E+02 -0.14544942038E+03  0.14770827764E+03  0.00000000000E+00 0. -1.
<scales pt_clust_5="13000.00000" pt_clust_6="13000.00000" pt_clust_7="13000.00000" pt_clust_8="13000.00000" pt_clust_9="25.73327"></scales>
<clustering>
<clus scale="   25.733">  2  9  1 -1</clus>
<clus scale="   88.786">  7  8 -1 -1</clus>
<clus scale="   93.914">  2  7  1 -1</clus>
<clus scale="   95.136">  5  6 -1 -1</clus>
<clus scale="   25.733">  2  5  1 -1</clus>
</clustering>
</event>
<event>
 9    1  0.1445593E-005  0.1170931E+03  0.7546771E-02  0.1250696E+00
         21   -1    0    0  501  502  0.00000000000E+00  0.00000000000E+00  0.50582703828E+02  0.50582703828E+02  0.00000000000E+00 0. -1.
         -3   -1    0    0    0  501 -0.00000000000E+00 -0.00000000000E+00 -0.38945763690E+03  0.38945763690E+03  0.00000000000E+00 0.  1.
         23    2    1    2    0    0  0.38875194935E+02 -0.29016971567E+02 -0.12962458039E+03  0.16474772508E+03  0.89364510053E+02 0.  0.
         23    2    1    2    0    0 -0.84664048356E+02  0.33108331180E+02 -0.15604414147E+03  0.20497718895E+03  0.96962421705E+02 0.  0.
        -11    1    3    3    0    0  0.66371581547E+02 -0.31053164264E+02 -0.10310982350E+03  0.12649553965E+03  0.00000000000E+00 0.  1.
         11    1    3    3    0    0 -0.27496386613E+02  0.20361926973E+01 -0.26514756888E+02  0.38252185432E+02  0.00000000000E+00 0. -1.
        -13    1    4    4    0    0 -0.16425136306E+02 -0.14934876720E+02 -0.10462338151E+03  0.10695273538E+03  0.00000000000E+00 0.  1.
         13    1    4    4    0    0 -0.68238912050E+02  0.48043207900E+02 -0.51420759963E+02  0.98024453573E+02  0.00000000000E+00 0. -1.
         -3    1    1    2    0  502  0.45788853421E+02 -0.40913596136E+01 -0.53206211203E+02  0.70315426697E+02  0.00000000000E+00 0.  1.
<scales pt_clust_5="13000.00000" pt_clust_6="13000.00000" pt_clust_7="13000.00000" pt_clust_8="13000.00000" pt_clust_9="45.97128"></scales>
<clustering>
<clus scale="   45.971">  1  9  2 -1</clus>
<clus scale="   89.365">  5  6 -1 -1</clus>
<clus scale="   96.962">  7  8 -1 -1</clus>
<clus scale="  110.883">  2  5  1 -1</clus>
<clus scale="   45.971">  1  5  2 -1</clus>
</clustering>
</event>
<event>
 9    1  0.1445593E-005  0.1402794E+03  0.7546771E-02  0.1213249E+00
          2   -1    0    0  502    0 -0.00000000000E+00  0.00000000000E+00  0.15348359244E+03  0.15348359244E+03  0.00000000000E+00 0. -1.
         21   -1    0    0  501  502  0.00000000000E+00 -0.00000000000E+00 -0.36583860059E+03  0.36583860059E+03  0.00000000000E+00 0.  1.
         23    2    1    2    0    0 -0.74299452199E+02 -0.75186010997E+02  0.27805074555E+02  0.14217625845E+03  0.90926461759E+02 0.  0.
         23    2    1    2    0    0  0.13612291902E+03 -0.21153367110E+01 -0.63990071157E+02  0.17507289735E+03  0.89564872842E+02 0.  0.
        -11    1    3    3    0    0 -0.43174852414E+02 -0.32442736626E+02  0.59639503181E+02  0.80457873327E+02  0.00000000000E+00 0. -1.
         11    1    3    3    0    0 -0.31124599785E+02 -0.42743274371E+02 -0.31834428625E+02  0.61718385119E+02  0.00000000000E+00 0.  1.
        -11    1    4    4    0    0  0.74821291299E+02  0.31645769660E+02 -0.66587949545E+02  0.10504111287E+03  0.00000000000E+00 0.  1.
         11    1    4    4    0    0  0.61301627722E+02 -0.33761106371E+02  0.25978783880E+01  0.70031784476E+02  0.00000000000E+00 0. -1.
          2    1    1    2  501    0 -0.61823466822E+02  0.77301347708E+02 -0.17617001155E+03  0.20207303724E+03  0.00000000000E+00 0. -1.
<scales pt_clust_5="13000.00000" pt_clust_6="13000.00000" pt_clust_7="13000.00000" pt_clust_8="13000.00000" pt_clust_9="98.98303"></scales>
<clustering>
<clus scale="   89.565">  7  8 -1 -1</clus>
<clus scale="   90.926">  5  6 -1 -1</clus>
<clus scale="   98.983">  2  9  1 -1</clus>
<clus scale="  139.401">  2  7  1 -1</clus>
<clus scale="   98.983">  2  5  1 -1</clus>
</clustering>
</event>
<event>
 9    1  0.1445593E-005  0.1047896E+03  0.7546771E-02  0.1270985E+00
         21   -1    0    0  501  502  0.00000000000E+00  0.00000000000E+00  0.24419907730E+02  0.24419907730E+02  0.00000000000E+00 0.  1.
         -1   -1    0    0    0  501 -0.00000000000E+00 -0.00000000000E+00 -0.82502267420E+03  0.82502267420E+03  0.00000000000E+00 0.  1.
         23    2    1    2    0    0  0.27481226417E+02  0.65511817828E+02 -0.44646555392E+03  0.46165659963E+03  0.93532395814E+02 0.  0.
         23    2    1    2    0    0  0.14913787140E+02 -0.23690709705E+02 -0.24650828504E+03  0.26478058284E+03  0.92513521619E+02 0.  0.
        -11    1    3    3    0    0  0.48492086671E+02  0.78763315075E+02 -0.34319940669E+03  0.35544475664E+03  0.00000000000E+00 0.  1.
         11    1    3    3    0    0 -0.21010860254E+02 -0.13251497247E+02 -0.10326614723E+03  0.10621184299E+03  0.00000000000E+00 0. -1.
        -11    1    4    4    0    0  0.51852592908E+02 -0.15544854370E+02 -0.18322261127E+03  0.19105198028E+03  0.00000000000E+00 0.  1.
         11    1    4    4    0    0 -0.36938805768E+02 -0.81458553351E+01 -0.63285673769E+02  0.73728602558E+02  0.00000000000E+00 0. -1.
         -1    1    1    2    0  502 -0.42395013557E+02 -0.41821108123E+02 -0.10762892752E+03  0.12300539947E+03  0.00000000000E+00 0.  1.
<scales pt_clust_5="13000.00000" pt_clust_6="13000.00000" pt_clust_7="13000.00000" pt_clust_8="13000.00000" pt_clust_9="59.55117"></scales>
<clustering>
<clus scale="   59.551">  1  9  2 -1</clus>
<clus scale="   92.514">  7  8 -1 -1</clus>
<clus scale="   93.532">  5  6 -1 -1</clus>
<clus scale="  103.881">  1  7  2 -1</clus>
<clus scale="   59.551">  1  5  2 -1</clus>
</clustering>
</event>
<event>
 9    1  0.1445593E-005  0.2510547E+03  0.7546771E-02  0.1112653E+00
          1   -1    0    0  502    0 -0.00000000000E+00  0.00000000000E+00  0.26728161305E+03  0.26728161305E+03  0.00000000000E+00 0. -1.
         21   -1    0    0  501  502  0.00000000000E+00 -0.00000000000E+00 -0.78852125041E+03  0.78852125041E+03  0.00000000000E+00 0.  1.
         23    2    1    2    0    0 -0.22810344845E+03 -0.42353862890E+02  0.16826431472E+03  0.30057655033E+03  0.90599945403E+02 0.  0.
         23    2    1    2    0    0  0.25199703018E+03  0.26518863502E+02 -0.54351649552E+03  0.60645135580E+03  0.90373185808E+02 0.  0.
        -13    1    3    3    0    0 -0.16982965287E+03 -0.69659253836E+02  0.13688180428E+03  0.22897849459E+03  0.00000000000E+00 0. -1.
         13    1    3    3    0    0 -0.58273795573E+02  0.27305390945E+02  0.31382510439E+02  0.71598055746E+02  0.00000000000E+00 0.  1.
        -13    1    4    4    0    0  0.13129582010E+03  0.58836478173E+02 -0.30233111771E+03  0.33481999384E+03  0.00000000000E+00 0.  1.
         13    1    4    4    0    0  0.12070121008E+03 -0.32317614671E+02 -0.24118537781E+03  0.27163136196E+03  0.00000000000E+00 0. -1.
          1    1    1    2  501    0 -0.23893581732E+02  0.15834999388E+02 -0.14598745656E+03  0.14877495732E+03  0.00000000000E+00 0. -1.
<scales pt_clust_5="13000.00000" pt_clust_6="13000.00000" pt_clust_7="13000.00000" pt_clust_8="13000.00000" pt_clust_9="28.66445"></scales>
<clustering>
<clus scale="   28.664">  2  9  1 -1</clus>
<clus scale="   90.373">  7  8 -1 -1</clus>
<clus scale="   90.600">  5  6 -1 -1</clus>
<clus scale="  250.973">  2  7  1 -1</clus>
<clus scale="   28.664">  2  5  1 -1</clus>
</clustering>
</event>
<event>
 9    1  0.1445593E-005  0.9426328E+02  0.7546771E-02  0.1292878E+00
         21   -1    0    0  501  502  0.00000000000E+00  0.00000000000E+00  0.11242341231E+03  0.11242341231E+03  0.00000000000E+00 0. -1.
          2   -1    0    0  502    0 -0.00000000000E+00 -0.00000000000E+00 -0.29520335543E+03  0.29520335543E+03  0.00000000000E+00 0. -1.
         23    2    1    2    0    0 -0.24406348614E+02 -0.53961330448E+01 -0.14344025010E+03  0.17202057423E+03  0.91603408796E+02 0.  0.
         23    2    1    2    0    0  0.99449935656E+01  0.21865174683E+02 -0.11949567696E+03  0.15250780674E+03  0.91664745375E+02 0.  0.
        -13    1    3    3    0    0 -0.35136836111E+02 -0.42985091812E+02 -0.76886748588E+02  0.94836108516E+02  0.00000000000E+00 0. -1.
         13    1    3    3    0    0  0.10730487497E+02  0.37588958767E+02 -0.66553501515E+02  0.77184465711E+02  0.00000000000E+00 0.  1.
        -13    1    4    4    0    0 -0.20949642058E+01  0.43938689207E+02 -0.11952672907E+03  0.12736418745E+03  0.00000000000E+00 0. -1.
         13    1    4    4    0    0  0.12039957771E+02 -0.22073514524E+02  0.31052111477E-01  0.25143619286E+02  0.00000000000E+00 0.  1.
          2    1    1    2  501    0  0.14461355048E+02 -0.16469041638E+02  0.80155983947E+02  0.83098386776E+02  0.00000000000E+00 0. -1.
<scales pt_clust_5="13000.00000" pt_clust_6="13000.00000" pt_clust_7="13000.00000" pt_clust_8="13000.00000" pt_clust_9="21.91712"></scales>
<clustering>
<clus scale="   21.917">  1  9  2 -1</clus>
<clus scale="   91.603">  5  6 -1 -1</clus>
<clus scale="   91.665">  7  8 -1 -1</clus>
<clus scale="   94.204">  2  5  1 -1</clus>
<clus scale="   21.917">  1  5  2 -1</clus>
</clustering>
</event>
<event>
 9    1  0.1445593E-005  0.1133490E+03  0.7546771E-02  0.1255349E+00
         21   -1    0    0  501  502  0.00000000000E+00  0.00000000000E+00  0.15222547305E+03  0.15222547305E+03  0.00000000000E+00 0. -1.
          2   -1    0    0  502    0 -0.00000000000E+00 -0.00000000000E+00 -0.40391289871E+03  0.40391289871E+03  0.00000000000E+00 0. -1.
         23    2    1    2    0    0  0.14848310854E+02 -0.50587315971E+02 -0.23188547945E+03  0.25520623604E+03  0.92627201518E+02 0.  0.
         23    2    1    2    0    0 -0.30339568971E+02  0.90129724145E+02 -0.12889177895E+03  0.18386731295E+03  0.90278687791E+02 0.  0.
        -11    1    4    4    0    0  0.44112285340E+01  0.51111490760E+02 -0.12047624575E+03  0.13094414541E+03  0.00000000000E+00 0.  1.
         11    1    4    4    0    0 -0.34750797505E+02  0.39018233385E+02 -0.84155331981E+01  0.52923167542E+02  0.00000000000E+00 0. -1.
        -13    1    3    3    0    0 -0.24339682874E+02  0.15515472367E+02 -0.49642932216E+02  0.57424478789E+02  0.00000000000E+00 0.  1.
         13    1    3    3    0    0  0.39187993728E+02 -0.66102788339E+02 -0.18224254724E+03  0.19778175725E+03  0.00000000000E+00 0. -1.
          2    1    1    2  501    0  0.15491258117E+02 -0.39542408173E+02  0.10908983274E+03  0.11706482277E+03  0.00000000000E+00 0. -1.
<scales pt_clust_5="13000.00000" pt_clust_6="13000.00000" pt_clust_7="13000.00000" pt_clust_8="13000.00000" pt_clust_9="42.46859"></scales>
<clustering>
<clus scale="   42.469">  1  9  2 -1</clus>
<clus scale="   90.279">  5  6 -1 -1</clus>
<clus scale="   92.627">  7  8 -1 -1</clus>
<clus scale="  111.438">  1  5  2 -1</clus>
<clus scale="   42.469">  1  5  2 -1</clus>
</clustering>
</event>
<event>
 9    1  0.1445593E-005  0.1060348E+03  0.7546771E-02  0.1268636E+00
         21   -1    0    0  501  502  0.00000000000E+00  0.00000000000E+00  0.79034974444E+02  0.79034974444E+02  0.00000000000E+00 0. -1.
          2   -1    0    0  502    0 -0.00000000000E+00 -0.00000000000E+00 -0.80004466592E+03  0.80004466592E+03  0.00000000000E+00 0. -1.
         23    2    1    2    0    0  0.41250613135E+02 -0.52223500855E+02 -0.46113629896E+03  0.47459903912E+03  0.90380609573E+02 0.  0.
         23    2    1    2    0    0 -0.20033076925E+02  0.33100869098E+02 -0.32150676418E+03  0.33655025905E+03  0.91665073754E+02 0.  0.
        -11    1    4    4    0    0 -0.18760417652E+02 -0.28771545427E+02 -0.76648015166E+02  0.83992102757E+02  0.00000000000E+00 0.  1.
         11    1    4    4    0    0 -0.12726592735E+01  0.61872414525E+02 -0.24485874901E+03  0.25255815629E+03  0.00000000000E+00 0. -1.
        -11    1    3    3    0    0  0.65964560531E+02 -0.54661406526E+02 -0.38854364641E+03  0.39787605831E+03  0.00000000000E+00 0. -1.
         11    1    3    3    0    0 -0.24713947396E+02  0.24379056702E+01 -0.72592652549E+02  0.76722980808E+02  0.00000000000E+00 0.  1.
          2    1    1    2  501    0 -0.21217536209E+02  0.19122631757E+02  0.61633371665E+02  0.67930342197E+02  0.00000000000E+00 0. -1.
<scales pt_clust_5="13000.00000" pt_clust_6="13000.00000" pt_clust_7="13000.00000" pt_clust_8="13000.00000" pt_clust_9="28.56324"></scales>
<clustering>
<clus scale="   28.563">  1  9  2 -1</clus>
<clus scale="   90.381">  7  8 -1 -1</clus>
<clus scale="   91.665">  5  6 -1 -1</clus>
<clus scale="  104.926">  2  7  1 -1</clus>
<clus scale="   28.563">  1  5  2 -1</clus>
</clustering>
</event>
<event>
 9    1  0.1445593E-005  0.1124902E+03  0.7546771E-02  0.1257573E+00
         21   -1    0    0  501  502  0.00000000000E+00  0.00000000000E+00  0.15177278665E+03  0.15177278665E+03  0.00000000000E+00 0.  1.
          2   -1    0    0  502    0 -0.00000000000E+00 -0.00000000000E+00 -0.29407514993E+03  0.29407514993E+03  0.00000000000E+00 0. -1.
         23    2    1    2    0    0  0.41934851388E+02  0.52797972405E+02 -0.23174737904E+03  0.25701277973E+03  0.88332121017E+02 0.  0.
         23    2    1    2    0    0 -0.44608025460E+02 -0.25513622795E+02  0.11754307670E+02  0.10644931028E+03  0.92479570857E+02 0.  0.
        -11    1    4    4    0    0 -0.71005990109E+02 -0.31999990943E+02  0.14158376061E+02  0.79160025672E+02  0.00000000000E+00 0.  1.
         11    1    4    4    0    0  0.26397964649E+02  0.64863681479E+01 -0.24040683916E+01  0.27289284604E+02  0.00000000000E+00 0. -1.
        -11    1    3    3    0    0  0.51569672649E+02  0.24588643766E+02 -0.60585280935E+02  0.83274298588E+02  0.00000000000E+00 0. -1.
         11    1    3    3    0    0 -0.96348212610E+01  0.28209328639E+02 -0.17116209810E+03  0.17373848114E+03  0.00000000000E+00 0.  1.
          2    1    1    2  501    0  0.26731740721E+01 -0.27284349609E+02  0.77690708089E+02  0.82385846579E+02  0.00000000000E+00 0. -1.
<scales pt_clust_5="13000.00000" pt_clust_6="13000.00000" pt_clust_7="13000.00000" pt_clust_8="13000.00000" pt_clust_9="27.41499"></scales>
<clustering>
<clus scale="   27.415">  1  9  2 -1</clus>
<clus scale="   88.332">  7  8 -1 -1</clus>
<clus scale="   92.480">  5  6 -1 -1</clus>
<clus scale="  109.106">  2  7  1 -1</clus>
<clus scale="   27.415">  1  5  2 -1</clus>
</clustering>
</event>
<event>
 9    1  0.1445593E-005  0.9448881E+02  0.7546771E-02  0.1293070E+00
         21   -1    0    0  501  502  0.00000000000E+00  0.00000000000E+00  0.45753766965E+02  0.45753766965E+02  0.00000000000E+00 0. -1.
         -2   -1    0    0    0  501 -0.00000000000E+00 -0.00000000000E+00 -0.43844973436E+03  0.43844973436E+03  0.00000000000E+00 0.  1.
         23    2    1    2    0    0 -0.21905718469E+02 -0.73978307077E+00 -0.33314993517E+03  0.34610119706E+03  0.91196225381E+02 0.  0.
         23    2    1    2    0    0  0.28608382446E+01  0.21347935369E+02 -0.36393171257E+02  0.10172293683E+03  0.92515805262E+02 0.  0.
        -11    1    3    3    0    0  0.34166203008E+02  0.37134490486E+01 -0.85603110907E+02  0.92244304587E+02  0.00000000000E+00 0. -1.
         11    1    3    3    0    0 -0.56071921477E+02 -0.44532321194E+01 -0.24754682426E+03  0.25385689247E+03  0.00000000000E+00 0.  1.
        -11    1    4    4    0    0  0.29500824123E+02  0.23165781211E+02  0.17641393432E+02  0.41450823940E+02  0.00000000000E+00 0. -1.
         11    1    4    4    0    0 -0.26639985879E+02 -0.18178458427E+01 -0.54034564689E+02  0.60272112890E+02  0.00000000000E+00 0.  1.
         -2    1    1    2    0  502  0.19044880224E+02 -0.20608152298E+02 -0.23152860974E+02  0.36379367438E+02  0.00000000000E+00 0.  1.
<scales pt_clust_5="13000.00000" pt_clust_6="13000.00000" pt_clust_7="13000.00000" pt_clust_8="13000.00000" pt_clust_9="28.06071"></scales>
<clustering>
<clus scale="   28.061">  1  9  2 -1</clus>
<clus scale="   91.196">  5  6 -1 -1</clus>
<clus scale="   92.516">  7  8 -1 -1</clus>
<clus scale="   93.197">  2  5  1 -1</clus>
<clus scale="   28.061">  1  5  2 -1</clus>
</clustering>
</event>
<event>
 9    1  0.1445593E-005  0.9302975E+02  0.7546771E-02  0.1298424E+00
         21   -1    0    0  501  502  0.00000000000E+00  0.00000000000E+00  0.17648081712E+03  0.17648081712E+03  0.00000000000E+00 0.  1.
          1   -1    0    0  502    0 -0.00000000000E+00 -0.00000000000E+00 -0.89634001201E+02  0.89634001201E+02  0.00000000000E+00 0. -1.
         23    2    1    2    0    0  0.71112802782E+01 -0.30218927568E+01 -0.28514684761E+02  0.97543562840E+02  0.92962128103E+02 0.  0.
         23    2    1    2    0    0  0.13053922674E+02 -0.20793525543E+02  0.87303761937E+02  0.12660643376E+03  0.88342892294E+02 0.  0.
        -11    1    3    3    0    0  0.43964567979E+02 -0.10827789212E+02  0.69461544240E+01  0.45808004957E+02  0.00000000000E+00 0.  1.
         11    1    3    3    0    0 -0.36853287701E+02  0.78058964552E+01 -0.35460839185E+02  0.51735557884E+02  0.00000000000E+00 0. -1.
        -13    1    4    4    0    0  0.29574176489E+02 -0.49977543894E+02  0.57922325301E+02  0.82020622876E+02  0.00000000000E+00 0.  1.
         13    1    4    4    0    0 -0.16520253815E+02  0.29184018351E+02  0.29381436636E+02  0.44585810882E+02  0.00000000000E+00 0. -1.
          1    1    1    2  501    0 -0.20165202952E+02  0.23815418299E+02  0.28057738743E+02  0.41964821723E+02  0.00000000000E+00 0. -1.
<scales pt_clust_5="13000.00000" pt_clust_6="13000.00000" pt_clust_7="13000.00000" pt_clust_8="13000.00000" pt_clust_9="31.20592"></scales>
<clustering>
<clus scale="   31.206">  1  9  2 -1</clus>
<clus scale="   88.343">  7  8 -1 -1</clus>
<clus scale="   88.414">  1  7  2 -1</clus>
<clus scale="   92.962">  5  6 -1 -1</clus>
<clus scale="   31.206">  1  5  2 -1</clus>
</clustering>
</event>
<event>
 9    1  0.1445593E-005  0.1026406E+03  0.7546771E-02  0.1277119E+00
          2   -1    0    0  502    0 -0.00000000000E+00  0.00000000000E+00  0.78064549037E+03  0.78064549037E+03  0.00000000000E+00 0. -1.
         21   -1    0    0  501  502  0.00000000000E+00 -0.00000000000E+00 -0.19403894729E+02  0.19403894729E+02  0.00000000000E+00 0.  1.
         23    2    1    2    0    0  0.36322417071E+02  0.47662842085E+02  0.46730665458E+03  0.47998765562E+03  0.91769143122E+02 0.  0.
         23    2    1    2    0    0 -0.90857193199E+01 -0.26211473364E+02  0.22842166280E+03  0.24594028486E+03  0.86836490314E+02 0.  0.
        -11    1    3    3    0    0  0.61280964792E+02  0.55772378515E+02  0.37337888662E+03  0.38246268814E+03  0.00000000000E+00 0. -1.
         11    1    3    3    0    0 -0.24958547721E+02 -0.81095364301E+01  0.93927767968E+02  0.97524967475E+02  0.00000000000E+00 0.  1.
        -13    1    4    4    0    0  0.36124442793E+02 -0.53900475957E+01  0.13769569585E+03  0.14245747658E+03  0.00000000000E+00 0.  1.
         13    1    4    4    0    0 -0.45210162113E+02 -0.20821425768E+02  0.90725966954E+02  0.10348280828E+03  0.00000000000E+00 0. -1.
          2    1    1    2  501    0 -0.27236697751E+02 -0.21451368722E+02  0.65513278257E+02  0.74121444619E+02  0.00000000000E+00 0. -1.
<scales pt_clust_5="13000.00000" pt_clust_6="13000.00000" pt_clust_7="13000.00000" pt_clust_8="13000.00000" pt_clust_9="34.66986"></scales>
<clustering>
<clus scale="   34.670">  2  9  1 -1</clus>
<clus scale="   86.836">  7  8 -1 -1</clus>
<clus scale="   91.769">  5  6 -1 -1</clus>
<clus scale="   98.255">  2  7  1 -1</clus>
<clus scale="   34.670">  2  5  1 -1</clus>
</clustering>
</event>
<event>
 9    1  0.1445593E-005  0.1042218E+03  0.7546771E-02  0.1273698E+00
         21   -1    0    0  501  502  0.00000000000E+00  0.00000000000E+00  0.18170407425E+03  0.18170407425E+03  0.00000000000E+00 0. -1.
          1   -1    0    0  502    0 -0.00000000000E+00 -0.00000000000E+00 -0.26766605063E+03  0.26766605063E+03  0.00000000000E+00 0. -1.
         23    2    1    2    0    0 -0.39540192346E+02  0.15442416671E+02 -0.19189732271E+03  0.21683552508E+03  0.91603315597E+02 0.  0.
         23    2    1    2    0    0  0.97945555618E+01 -0.52408044581E+02 -0.70271143366E+01  0.11001203832E+03  0.95972557449E+02 0.  0.
        -11    1    4    4    0    0  0.36921097232E+02 -0.34099887130E+02  0.31613355903E+02  0.59374859954E+02  0.00000000000E+00 0.  1.
         11    1    4    4    0    0 -0.27126541670E+02 -0.18308157451E+02 -0.38640470240E+02  0.50637178363E+02  0.00000000000E+00 0. -1.
        -13    1    3    3    0    0  0.18518297752E+01 -0.34581093395E+02 -0.50379656073E+02  0.61134205156E+02  0.00000000000E+00 0. -1.
         13    1    3    3    0    0 -0.41392022121E+02  0.50023510066E+02 -0.14151766664E+03  0.15570131992E+03  0.00000000000E+00 0.  1.
          1    1    1    2  501    0  0.29745636784E+02  0.36965627910E+02  0.11296246066E+03  0.12252256149E+03  0.00000000000E+00 0. -1.
<scales pt_clust_5="13000.00000" pt_clust_6="13000.00000" pt_clust_7="13000.00000" pt_clust_8="13000.00000" pt_clust_9="47.44745"></scales>
<clustering>
<clus scale="   47.447">  1  9  2 -1</clus>
<clus scale="   91.603">  7  8 -1 -1</clus>
<clus scale="   95.973">  5  6 -1 -1</clus>
<clus scale="  100.213">  2  7  1 -1</clus>
<clus scale="   47.447">  1  5  2 -1</clus>
</clustering>
</event>
<event>
 9    1  0.1445593E-005  0.1020313E+03  0.7546771E-02  0.1277242E+00
         21   -1    0    0  501  502  0.00000000000E+00  0.00000000000E+00  0.72591069311E+02  0.72591069311E+02  0.00000000000E+00 0. -1.
          3   -1    0    0  502    0 -0.00000000000E+00 -0.00000000000E+00 -0.47937369636E+03  0.47937369636E+03  0.00000000000E+00 0. -1.
         23    2    1    2    0    0  0.38463524249E+02  0.31992904273E+01 -0.33163319112E+03  0.34579757275E+03  0.90031715017E+02 0.  0.
         23    2    1    2    0    0 -0.57382077407E+02  0.19695980773E+02 -0.11294502954E+03  0.15809836733E+03  0.92508808161E+02 0.  0.
        -11    1    4    4    0    0 -0.22041289593E+02 -0.37097670474E+02 -0.52344993601E+02  0.67838440111E+02  0.00000000000E+00 0.  1.
         11    1    4    4    0    0 -0.35340787814E+02  0.56793651247E+02 -0.60600035941E+02  0.90259927218E+02  0.00000000000E+00 0. -1.
        -13    1    3    3    0    0 -0.24579201042E+02  0.13498677423E+02 -0.16450178706E+03  0.16687477149E+03  0.00000000000E+00 0.  1.
         13    1    3    3    0    0  0.63042725291E+02 -0.10299386996E+02 -0.16713140406E+03  0.17892280125E+03  0.00000000000E+00 0. -1.
          3    1    1    2  501    0  0.18918553157E+02 -0.22895271200E+02  0.37795593616E+02  0.48068825591E+02  0.00000000000E+00 0. -1.
<scales pt_clust_5="13000.00000" pt_clust_6="13000.00000" pt_clust_7="13000.00000" pt_clust_8="13000.00000" pt_clust_9="29.70025"></scales>
<clustering>
<clus scale="   29.700">  1  9  2 -1</clus>
<clus scale="   90.032">  7  8 -1 -1</clus>
<clus scale="   92.509">  5  6 -1 -1</clus>
<clus scale="   99.791">  2  7  1 -1</clus>
<clus scale="   29.700">  1  5  2 -1</clus>
</clustering>
</event>
<event>
 9    1  0.1445593E-005  0.1113649E+03  0.7546771E-02  0.1259550E+00
         21   -1    0    0  501  502  0.00000000000E+00  0.00000000000E+00  0.42554823950E+02  0.42554823950E+02  0.00000000000E+00 0. -1.
         -1   -1    0    0    0  501 -0.00000000000E+00 -0.00000000000E+00 -0.48938197609E+03  0.48938197609E+03  0.00000000000E+00 0.  1.
         23    2    1    2    0    0 -0.43046352141E+02 -0.41673844043E+02 -0.31484174244E+03  0.33359064328E+03  0.92561853862E+02 0.  0.
         23    2    1    2    0    0  0.30268696249E+02  0.65172042043E+02 -0.78423975948E+02  0.13847745889E+03  0.88668470046E+02 0.  0.
        -11    1    4    4    0    0  0.18182107129E+02  0.83002555851E+02 -0.80227829416E+02  0.11686110521E+03  0.00000000000E+00 0. -1.
         11    1    4    4    0    0  0.12086589120E+02 -0.17830513807E+02  0.18038534680E+01  0.21616353682E+02  0.00000000000E+00 0.  1.
        -13    1    3    3    0    0 -0.32795155359E+02  0.25745630040E+02 -0.10641475931E+03  0.11429112249E+03  0.00000000000E+00 0. -1.
         13    1    3    3    0    0 -0.10251196781E+02 -0.67419474083E+02 -0.20842698313E+03  0.21929952079E+03  0.00000000000E+00 0.  1.
         -1    1    1    2    0  502  0.12777655892E+02 -0.23498198000E+02 -0.53561433741E+02  0.59868697863E+02  0.00000000000E+00 0.  1.
<scales pt_clust_5="13000.00000" pt_clust_6="13000.00000" pt_clust_7="13000.00000" pt_clust_8="13000.00000" pt_clust_9="26.74761"></scales>
<clustering>
<clus scale="   26.748">  1  9  2 -1</clus>
<clus scale="   88.668">  5  6 -1 -1</clus>
<clus scale="   92.562">  7  8 -1 -1</clus>
<clus scale="  108.151">  1  5  2 -1</clus>
<clus scale="   26.748">  1  5  2 -1</clus>
</clustering>
</event>
<event>
 9    1  0.1445593E-005  0.1059634E+03  0.7546771E-02  0.1269754E+00
          1   -1    0    0  502    0 -0.00000000000E+00  0.00000000000E+00  0.19628820234E+03  0.19628820234E+03  0.00000000000E+00 0. -1.
         21   -1    0    0  501  502  0.00000000000E+00 -0.00000000000E+00 -0.23675279811E+03  0.23675279811E+03  0.00000000000E+00 0. -1.
         23    2    1    2    0    0 -0.82509998831E+02  0.23604110117E+01  0.68314440464E+02  0.13967991081E+03  0.89611066623E+02 0.  0.
         23    2    1    2    0    0 -0.47344440320E+01 -0.58763653895E+02  0.35299557921E+02  0.11573350193E+03  0.93126809787E+02 0.  0.
        -11    1    4    4    0    0 -0.15324014442E+02  0.22039582250E+02 -0.19717318898E+00  0.26844133096E+02  0.00000000000E+00 0.  1.
         11    1    4    4    0    0  0.10589570410E+02 -0.80803236146E+02  0.35496731110E+02  0.88889368839E+02  0.00000000000E+00 0. -1.
        -13    1    3    3    0    0  0.10400196069E+02 -0.18167927522E+02  0.31145068023E+02  0.37526696242E+02  0.00000000000E+00 0.  1.
         13    1    3    3    0    0 -0.92910194900E+02  0.20528338533E+02  0.37169372441E+02  0.10215321457E+03  0.00000000000E+00 0. -1.
          1    1    1    2  501    0  0.87244442863E+02  0.56403242883E+02 -0.14407859416E+03  0.17762758770E+03  0.00000000000E+00 0. -1.
<scales pt_clust_5="13000.00000" pt_clust_6="13000.00000" pt_clust_7="13000.00000" pt_clust_8="13000.00000" pt_clust_9="103.88897"></scales>
<clustering>
<clus scale="   89.611">  7  8 -1 -1</clus>
<clus scale="   93.127">  5  6 -1 -1</clus>
<clus scale="  103.889">  2  9  1 -1</clus>
<clus scale="  102.887">  1  7  2 -1</clus>
<clus scale="  103.889">  2  5  1 -1</clus>
</clustering>
</event>
<event>
 9    1  0.1445593E-005  0.9100865E+02  0.7546771E-02  0.1301586E+00
          1   -1    0    0  502    0 -0.00000000000E+00  0.00000000000E+00  0.54148071243E+03  0.54148071243E+03  0.00000000000E+00 0. -1.
         21   -1    0    0  501  502  0.00000000000E+00 -0.00000000000E+00 -0.40364225957E+02  0.40364225957E+02  0.00000000000E+00 0. -1.
         23    2    1    2    0    0  0.65851295235E+01 -0.14739502627E+02  0.36374597787E+03  0.37459320458E+03  0.88024517205E+02 0.  0.
         23    2    1    2    0    0  0.14034932847E+02  0.11347517269E+02  0.15485797274E+03  0.18000280834E+03  0.89968182160E+02 0.  0.
        -11    1    3    3    0    0  0.35084059904E+02 -0.38494294890E+02  0.22752608941E+03  0.23341127514E+03  0.00000000000E+00 0. -1.
         11    1    3    3    0    0 -0.28498930380E+02  0.23754792263E+02  0.13621988846E+03  0.14118192944E+03  0.00000000000E+00 0.  1.
        -13    1    4    4    0    0 -0.24192860563E+02 -0.14908375974E+02  0.11620947062E+03  0.11963358741E+03  0.00000000000E+00 0.  1.
         13    1    4    4    0    0  0.38227793410E+02  0.26255893243E+02  0.38648502125E+02  0.60369220929E+02  0.00000000000E+00 0. -1.
          1    1    1    2  501    0 -0.20620062371E+02  0.33919853577E+01 -0.17487464143E+02  0.27248925465E+02  0.00000000000E+00 0. -1.
<scales pt_clust_5="13000.00000" pt_clust_6="13000.00000" pt_clust_7="13000.00000" pt_clust_8="13000.00000" pt_clust_9="20.89719"></scales>
<clustering>
<clus scale="   20.897">  2  9  1 -1</clus>
<clus scale="   88.025">  5  6 -1 -1</clus>
<clus scale="   89.088">  1  5  2 -1</clus>
<clus scale="   89.968">  7  8 -1 -1</clus>
<clus scale="   20.897">  2  5  1 -1</clus>
</clustering>
</event>
<event>
 9    1  0.1445593E-005  0.1574755E+03  0.7546771E-02  0.1191660E+00
         -3   -1    0    0    0  501 -0.00000000000E+00  0.00000000000E+00  0.50599978212E+02  0.50599978212E+02  0.00000000000E+00 0.  1.
         21   -1    0    0  501  502  0.00000000000E+00 -0.00000000000E+00 -0.71540290905E+03  0.71540290905E+03  0.00000000000E+00 0.  1.
         23    2    1    2    0    0  0.87439550939E+02  0.81288276433E+02 -0.19547641933E+03  0.24710886405E+03  0.92727025315E+02 0.  0.
         23    2    1    2    0    0 -0.12927632793E+03 -0.61487140049E+02 -0.31908718716E+03  0.36168634053E+03  0.92235234963E+02 0.  0.
        -11    1    4    4    0    0 -0.10725441450E+03 -0.73784233101E+02 -0.30751484071E+03  0.33393562215E+03  0.00000000000E+00 0. -1.
         11    1    4    4    0    0 -0.22021913429E+02  0.12297093052E+02 -0.11572346445E+02  0.27750718384E+02  0.00000000000E+00 0.  1.
        -11    1    3    3    0    0  0.54413137621E+02  0.46512696907E+01 -0.31311449545E+02  0.62951018484E+02  0.00000000000E+00 0. -1.
         11    1    3    3    0    0  0.33026413318E+02  0.76637006742E+02 -0.16416496978E+03  0.18415784556E+03  0.00000000000E+00 0.  1.
         -3    1    1    2    0  502  0.41836776988E+02 -0.19801136384E+02 -0.15023932436E+03  0.15720768268E+03  0.00000000000E+00 0.  1.
<scales pt_clust_5="13000.00000" pt_clust_6="13000.00000" pt_clust_7="13000.00000" pt_clust_8="13000.00000" pt_clust_9="46.28608"></scales>
<clustering>
<clus scale="   46.286">  2  9  1 -1</clus>
<clus scale="   92.235">  5  6 -1 -1</clus>
<clus scale="   92.727">  7  8 -1 -1</clus>
<clus scale="  157.186">  2  5  1 -1</clus>
<clus scale="   46.286">  2  5  1 -1</clus>
</clustering>
</event>
<event>
 9    1  0.1445593E-005  0.1078171E+03  0.7546771E-02  0.1264969E+00
          1   -1    0    0  502    0 -0.00000000000E+00  0.00000000000E+00  0.11915611023E+03  0.11915611023E+03  0.00000000000E+00 0. -1.
         21   -1    0    0  501  502  0.00000000000E+00 -0.00000000000E+00 -0.14413880876E+03  0.14413880876E+03  0.00000000000E+00 0. -1.
         23    2    1    2    0    0  0.13131782465E+02 -0.44916167432E+02  0.59729018680E+01  0.10089271048E+03  0.89183841942E+02 0.  0.
         23    2    1    2    0    0 -0.80531864862E+01  0.78373529428E+02 -0.29275708695E+01  0.11846182107E+03  0.88415883488E+02 0.  0.
        -11    1    4    4    0    0  0.23119329900E+02  0.36557989676E+02 -0.36362789620E+02  0.56508782442E+02  0.00000000000E+00 0.  1.
         11    1    4    4    0    0 -0.31172516386E+02  0.41815539752E+02  0.33435218750E+02  0.61953038630E+02  0.00000000000E+00 0. -1.
        -13    1    3    3    0    0 -0.34420574388E+02 -0.35828792954E+02 -0.84054929811E+01  0.50389787240E+02  0.00000000000E+00 0. -1.
         13    1    3    3    0    0  0.47552356854E+02 -0.90873744778E+01  0.14378394849E+02  0.50502923239E+02  0.00000000000E+00 0.  1.
          1    1    1    2  501    0 -0.50785959791E+01 -0.33457361996E+02 -0.28028029524E+02  0.43940387434E+02  0.00000000000E+00 0. -1.
<scales pt_clust_5="13000.00000" pt_clust_6="13000.00000" pt_clust_7="13000.00000" pt_clust_8="13000.00000" pt_clust_9="33.84061"></scales>
<clustering>
<clus scale="   33.841">  2  9  1 -1</clus>
<clus scale="   88.416">  5  6 -1 -1</clus>
<clus scale="   89.184">  7  8 -1 -1</clus>
<clus scale="  107.183">  2  5  1 -1</clus>
<clus scale="   33.841">  2  5  1 -1</clus>
</clustering>
</event>
<event>
 9    1  0.1445593E-005  0.1293842E+03  0.7546771E-02  0.1229652E+00
         21   -1    0    0  501  502  0.00000000000E+00  0.00000000000E+00  0.81693564327E+02  0.81693564327E+02  0.00000000000E+00 0.  1.
          2   -1    0    0  502    0 -0.00000000000E+00 -0.00000000000E+00 -0.80975640122E+03  0.80975640122E+03  0.00000000000E+00 0. -1.
         23    2    1    2    0    0 -0.84014327249E+02  0.77614814270E+02 -0.55522747794E+03  0.57412381416E+03  0.90874282109E+02 0.  0.
         23    2    1    2    0    0  0.42218522431E+02 -0.47457082037E+02 -0.22180889498E+03  0.24622913777E+03  0.85994326106E+02 0.  0.
        -11    1    3    3    0    0 -0.33995240104E+02  0.12465445552E+01 -0.48513551160E+02  0.59251960889E+02  0.00000000000E+00 0.  1.
         11    1    3    3    0    0 -0.50019087146E+02  0.76368269715E+02 -0.50671392678E+03  0.51487185327E+03  0.00000000000E+00 0. -1.
        -13    1    4    4    0    0 -0.17528489808E+02 -0.16250472326E+02 -0.13863994407E+02  0.27632157836E+02  0.00000000000E+00 0. -1.
         13    1    4    4    0    0  0.59747012239E+02 -0.31206609711E+02 -0.20794490057E+03  0.21859697993E+03  0.00000000000E+00 0.  1.
          2    1    1    2  501    0  0.41795804818E+02 -0.30157732233E+02  0.48973536029E+02  0.71097013616E+02  0.00000000000E+00 0. -1.
<scales pt_clust_5="13000.00000" pt_clust_6="13000.00000" pt_clust_7="13000.00000" pt_clust_8="13000.00000" pt_clust_9="51.54006"></scales>
<clustering>
<clus scale="   51.540">  1  9  2 -1</clus>
<clus scale="   85.994">  7  8 -1 -1</clus>
<clus scale="   90.874">  5  6 -1 -1</clus>
<clus scale="  126.005">  1  7  2 -1</clus>
<clus scale="   51.540">  1  5  2 -1</clus>
</clustering>
</event>
<event>
 9    1  0.1445593E-005  0.9313087E+02  0.7546771E-02  0.1296306E+00
         21   -1    0    0  501  502  0.00000000000E+00  0.00000000000E+00  0.19765668876E+03  0.19765668876E+03  0.00000000000E+00 0. -1.
          1   -1    0    0  502    0 -0.00000000000E+00 -0.00000000000E+00 -0.27166310237E+03  0.27166310237E+03  0.00000000000E+00 0. -1.
         23    2    1    2    0    0  0.20946301686E+02 -0.33235726840E+01 -0.20235464543E+03  0.22215482411E+03  0.89194000138E+02 0.  0.
         23    2    1    2    0    0 -0.20622742787E+02 -0.28188015375E+02 -0.16788828612E+02  0.98646109025E+02  0.90715645446E+02 0.  0.
        -11    1    3    3    0    0 -0.22272406715E+02  0.93466466854E+01 -0.12825455440E+02  0.27347983698E+02  0.00000000000E+00 0.  1.
         11    1    3    3    0    0  0.43218708400E+02 -0.12670219369E+02 -0.18952918999E+03  0.19480684041E+03  0.00000000000E+00 0. -1.
        -11    1    4    4    0    0 -0.22557327843E+01 -0.46252862762E+02 -0.42060597495E+02  0.62558049088E+02  0.00000000000E+00 0. -1.
         11    1    4    4    0    0 -0.18367010002E+02  0.18064847387E+02  0.25271768882E+02  0.36088059937E+02  0.00000000000E+00 0.  1.
          1    1    1    2  501    0 -0.32355889895E+00  0.31511588059E+02  0.14513706043E+03  0.14851885800E+03  0.00000000000E+00 0. -1.
<scales pt_clust_5="13000.00000" pt_clust_6="13000.00000" pt_clust_7="13000.00000" pt_clust_8="13000.00000" pt_clust_9="31.51325"></scales>
<clustering>
<clus scale="   31.513">  1  9  2 -1</clus>
<clus scale="   89.194">  5  6 -1 -1</clus>
<clus scale="   90.716">  7  8 -1 -1</clus>
<clus scale="   91.649">  2  5  1 -1</clus>
<clus scale="   31.513">  1  5  2 -1</clus>
</clustering>
</event>
<event>
 9    1  0.1445593E-005  0.1103515E+03  0.7546771E-02  0.1264796E+00
         21   -1    0    0  501  502  0.00000000000E+00  0.00000000000E+00  0.20790946489E+03  0.20790946489E+03  0.00000000000E+00 0. -1.
          1   -1    0    0  502    0 -0.00000000000E+00 -0.00000000000E+00 -0.33339577106E+03  0.33339577106E+03  0.00000000000E+00 0. -1.
         23    2    1    2    0    0 -0.56846248579E+02  0.35184833735E+02 -0.23720688376E+03  0.26275717632E+03  0.91130453190E+02 0.  0.
         23    2    1    2    0    0  0.30109475001E+02 -0.47256448525E+02 -0.53726750884E+02  0.11052009337E+03  0.78666224425E+02 0.  0.
        -11    1    4    4    0    0  0.15976689667E+02 -0.32314039777E+02  0.14804177302E+02  0.38969416791E+02  0.00000000000E+00 0.  1.
         11    1    4    4    0    0  0.14132785334E+02 -0.14942408748E+02 -0.68530928186E+02  0.71550676576E+02  0.00000000000E+00 0. -1.
        -11    1    3    3    0    0 -0.11887415529E+02 -0.28949590344E+02 -0.99842039964E+02  0.10463184206E+03  0.00000000000E+00 0.  1.
         11    1    3    3    0    0 -0.44958833050E+02  0.64134424079E+02 -0.13736484380E+03  0.15812533425E+03  0.00000000000E+00 0. -1.
          1    1    1    2  501    0  0.26736773578E+02  0.12071614790E+02  0.16544732849E+03  0.16802796627E+03  0.00000000000E+00 0. -1.
<scales pt_clust_5="13000.00000" pt_clust_6="13000.00000" pt_clust_7="13000.00000" pt_clust_8="13000.00000" pt_clust_9="29.33563"></scales>
<clustering>
<clus scale="   29.336">  1  9  2 -1</clus>
<clus scale="   78.666">  5  6 -1 -1</clus>
<clus scale="   91.130">  7  8 -1 -1</clus>
<clus scale="  100.305">  1  5  2 -1</clus>
<clus scale="   29.336">  1  5  2 -1</clus>
</clustering>
</event>
<event>
 9    1  0.1445593E-005  0.1200297E+03  0.7546771E-02  0.1243265E+00
         21   -1    0    0  501  502  0.00000000000E+00  0.00000000000E+00  0.82036739251E+02  0.82036739251E+02  0.00000000000E+00 0. -1.
          2   -1    0    0  502    0 -0.00000000000E+00 -0.00000000000E+00 -0.38949990211E+03  0.38949990211E+03  0.00000000000E+00 0. -1.
         23    2    1    2    0    0  0.65147912148E+02 -0.24347520159E+02 -0.18499493354E+03  0.21733381067E+03  0.90409112535E+02 0.  0.
         23    2    1    2    0    0 -0.83992687234E+02  0.31931108642E+02 -0.16397311926E+03  0.20799360812E+03  0.91103183101E+02 0.  0.
        -13    1    4    4    0    0 -0.37503284026E+02  0.42391302983E+02 -0.26500189680E+02  0.62496231362E+02  0.00000000000E+00 0.  1.
         13    1    4    4    0    0 -0.46489403208E+02 -0.10460194341E+02 -0.13747292958E+03  0.14549737676E+03  0.00000000000E+00 0. -1.
        -13    1    3    3    0    0  0.27688595125E+02 -0.47061000824E+02 -0.15474828998E+03  0.16409884019E+03  0.00000000000E+00 0. -1.
         13    1    3    3    0    0  0.37459317023E+02  0.22713480665E+02 -0.30246643561E+02  0.53234970484E+02  0.00000000000E+00 0.  1.
          2    1    1    2  501    0  0.18844775086E+02 -0.75835884834E+01  0.41504889937E+02  0.46209222575E+02  0.00000000000E+00 0. -1.
<scales pt_clust_5="13000.00000" pt_clust_6="13000.00000" pt_clust_7="13000.00000" pt_clust_8="13000.00000" pt_clust_9="20.31345"></scales>
<clustering>
<clus scale="   20.313">  1  9  2 -1</clus>
<clus scale="   90.409">  7  8 -1 -1</clus>
<clus scale="   91.103">  5  6 -1 -1</clus>
<clus scale="  119.504">  2  7  1 -1</clus>
<clus scale="   20.313">  1  5  2 -1</clus>
</clustering>
</event>
<event>
 9    1  0.1445593E-005  0.1734519E+03  0.7546771E-02  0.1175040E+00
         21   -1    0    0  501  502  0.00000000000E+00  0.00000000000E+00  0.88411789065E+02  0.88411789065E+02  0.00000000000E+00 0. -1.
          1   -1    0    0  502    0 -0.00000000000E+00 -0.00000000000E+00 -0.50517614119E+03  0.50517614119E+03  0.00000000000E+00 0. -1.
         23    2    1    2    0    0 -0.60914864251E+02 -0.11292174584E+03 -0.14978218244E+03  0.21796283408E+03  0.92796301083E+02 0.  0.
         23    2    1    2    0    0  0.12210804829E+03  0.11482295079E+03 -0.15683068714E+03  0.24960299708E+03  0.98036249599E+02 0.  0.
        -11    1    4    4    0    0  0.10593809001E+03  0.64415028282E+02 -0.56688709052E+02  0.13632969052E+03  0.00000000000E+00 0. -1.
         11    1    4    4    0    0  0.16169958277E+02  0.50407922512E+02 -0.10014197808E+03  0.11327330655E+03  0.00000000000E+00 0.  1.
        -13    1    3    3    0    0  0.16245100375E+02 -0.61160202659E+02 -0.43482655088E+02  0.76780303262E+02  0.00000000000E+00 0. -1.
         13    1    3    3    0    0 -0.77159964626E+02 -0.51761543179E+02 -0.10629952735E+03  0.14118253082E+03  0.00000000000E+00 0.  1.
          1    1    1    2  501    0 -0.61193184040E+02 -0.19012049558E+01 -0.11015148254E+03  0.12602209909E+03  0.00000000000E+00 0. -1.
<scales pt_clust_5="13000.00000" pt_clust_6="13000.00000" pt_clust_7="13000.00000" pt_clust_8="13000.00000" pt_clust_9="61.22274"></scales>
<clustering>
<clus scale="   61.223">  1  9  2 -1</clus>
<clus scale="   92.796">  7  8 -1 -1</clus>
<clus scale="   98.036">  5  6 -1 -1</clus>
<clus scale="  170.545">  2  7  1 -1</clus>
<clus scale="   61.223">  1  5  2 -1</clus>
</clustering>
</event>
<event>
 9    1  0.1445593E-005  0.9499278E+02  0.7546771E-02  0.1291583E+00
         21   -1    0    0  501  502  0.00000000000E+00  0.00000000000E+00  0.90643251503E+02  0.90643251503E+02  0.00000000000E+00 0.  1.
         -1   -1    0    0    0  501 -0.00000000000E+00 -0.00000000000E+00 -0.32128353648E+03  0.32128353648E+03  0.00000000000E+00 0.  1.
         23    2    1    2    0    0  0.19916169026E+02  0.23679670619E+02 -0.24518626467E+03  0.26338812801E+03  0.91102255762E+02 0.  0.
         23    2    1    2    0    0  0.47871243975E+01 -0.31623637031E+01 -0.27141984069E+02  0.95916431675E+02  0.91816978070E+02 0.  0.
        -11    1    3    3    0    0  0.53651142096E+01  0.56616474335E+02 -0.18181060823E+03  0.19049752461E+03  0.00000000000E+00 0.  1.
         11    1    3    3    0    0  0.14551054816E+02 -0.32936803715E+02 -0.63375656434E+02  0.72890603398E+02  0.00000000000E+00 0. -1.
        -13    1    4    4    0    0  0.43144457732E+02  0.10477063691E+02 -0.32266773458E+02  0.54884950268E+02  0.00000000000E+00 0.  1.
         13    1    4    4    0    0 -0.38357333334E+02 -0.13639427394E+02  0.51247893884E+01  0.41031481407E+02  0.00000000000E+00 0. -1.
         -1    1    1    2    0  502 -0.24703293423E+02 -0.20517306916E+02  0.41687963758E+02  0.52622228301E+02  0.00000000000E+00 0.  1.
<scales pt_clust_5="13000.00000" pt_clust_6="13000.00000" pt_clust_7="13000.00000" pt_clust_8="13000.00000" pt_clust_9="32.11250"></scales>
<clustering>
<clus scale="   32.112">  1  9  2 -1</clus>
<clus scale="   91.102">  5  6 -1 -1</clus>
<clus scale="   91.817">  7  8 -1 -1</clus>
<clus scale="   94.302">  2  5  1 -1</clus>
<clus scale="   32.112">  1  5  2 -1</clus>
</clustering>
</event>
<event>
 9    1  0.1445593E-005  0.9772161E+02  0.7546771E-02  0.1286341E+00
         21   -1    0    0  501  502  0.00000000000E+00  0.00000000000E+00  0.59072467790E+02  0.59072467790E+02  0.00000000000E+00 0. -1.
          1   -1    0    0  502    0 -0.00000000000E+00 -0.00000000000E+00 -0.71690730526E+03  0.71690730526E+03  0.00000000000E+00 0. -1.
         23    2    1    2    0    0 -0.31862319498E+02 -0.89775182957E+01 -0.47306262817E+03  0.48301304456E+03  0.91747195082E+02 0.  0.
         23    2    1    2    0    0  0.16254105612E+02 -0.20658085927E+02 -0.22223220261E+03  0.24271599241E+03  0.93983767917E+02 0.  0.
        -13    1    4    4    0    0 -0.31286414134E+02 -0.17063611923E+02 -0.36698335221E+02  0.51154416908E+02  0.00000000000E+00 0.  1.
         13    1    4    4    0    0  0.47540519745E+02 -0.35944740048E+01 -0.18553386739E+03  0.19156157550E+03  0.00000000000E+00 0. -1.
        -13    1    3    3    0    0 -0.43649171907E+02 -0.43028148594E+02 -0.31301428709E+03  0.31895864262E+03  0.00000000000E+00 0.  1.
         13    1    3    3    0    0  0.11786852409E+02  0.34050630298E+02 -0.16004834108E+03  0.16405440194E+03  0.00000000000E+00 0. -1.
          1    1    1    2  501    0  0.15608213886E+02  0.29635604223E+02  0.37459993306E+02  0.50250736083E+02  0.00000000000E+00 0. -1.
<scales pt_clust_5="13000.00000" pt_clust_6="13000.00000" pt_clust_7="13000.00000" pt_clust_8="13000.00000" pt_clust_9="33.49456"></scales>
<clustering>
<clus scale="   33.495">  1  9  2 -1</clus>
<clus scale="   91.747">  7  8 -1 -1</clus>
<clus scale="   93.984">  5  6 -1 -1</clus>
<clus scale="   95.573">  2  7  1 -1</clus>
<clus scale="   33.495">  1  5  2 -1</clus>
</clustering>
</event>
<event>
 9    1  0.1445593E-005  0.1126008E+03  0.7546771E-02  0.1263696E+00
          2   -1    0    0  502    0 -0.00000000000E+00  0.00000000000E+00  0.16342644376E+03  0.16342644376E+03  0.00000000000E+00 0. -1.
         21   -1    0    0  501  502  0.00000000000E+00 -0.00000000000E+00 -0.25026343143E+03  0.25026343143E+03  0.00000000000E+00 0. -1.
         23    2    1    2    0    0  0.29170237459E+01  0.38434247358E+02  0.85571883650E+02  0.13908208745E+03  0.10264297044E+03 0.  0.
         23    2    1    2    0    0  0.56757583805E+01 -0.10113015933E+03 -0.16438936282E+03  0.21081965562E+03  0.84625889828E+02 0.  0.
        -11    1    4    4    0    0 -0.36090270317E+02 -0.73580642386E+02 -0.10222371845E+03  0.13102025477E+03  0.00000000000E+00 0.  1.
         11    1    4    4    0    0  0.41766028697E+02 -0.27549516944E+02 -0.62165644363E+02  0.79799400850E+02  0.00000000000E+00 0. -1.
        -11    1    3    3    0    0 -0.39199374021E+02  0.37291133574E+02  0.80008329153E+02  0.96584430944E+02  0.00000000000E+00 0. -1.
         11    1    3    3    0    0  0.42116397767E+02  0.11431137837E+01  0.55635544969E+01  0.42497656507E+02  0.00000000000E+00 0.  1.
          2    1    1    2  501    0 -0.85927821264E+01  0.62695911972E+02 -0.80195085074E+01  0.63788132120E+02  0.00000000000E+00 0. -1.
<scales pt_clust_5="13000.00000" pt_clust_6="13000.00000" pt_clust_7="13000.00000" pt_clust_8="13000.00000" pt_clust_9="63.28205"></scales>
<clustering>
<clus scale="   63.282">  2  9  1 -1</clus>
<clus scale="   84.626">  5  6 -1 -1</clus>
<clus scale="   96.462">  2  5  1 -1</clus>
<clus scale="  102.643">  7  8 -1 -1</clus>
<clus scale="   63.282">  2  5  1 -1</clus>
</clustering>
</event>
<event>
 9    1  0.1445593E-005  0.1497758E+03  0.7546771E-02  0.1202202E+00
          1   -1    0    0  502    0 -0.00000000000E+00  0.00000000000E+00  0.20973530976E+03  0.20973530976E+03  0.00000000000E+00 0. -1.
         21   -1    0    0  501  502  0.00000000000E+00 -0.00000000000E+00 -0.12734792203E+03  0.12734792203E+03  0.00000000000E+00 0. -1.
         23    2    1    2    0    0 -0.87264299144E+02  0.58576793311E+02  0.52669592861E+02  0.15126945914E+03  0.95194877158E+02 0.  0.
         23    2    1    2    0    0  0.10275235054E+03 -0.79952135827E+02  0.24035844408E+02  0.15881248444E+03  0.87711423616E+02 0.  0.
        -13    1    3    3    0    0  0.14079481339E+02  0.27952115946E+02  0.29254134173E+02  0.42841066127E+02  0.00000000000E+00 0.  1.
         13    1    3    3    0    0 -0.10134378048E+03  0.30624677364E+02  0.23415458688E+02  0.10842839302E+03  0.00000000000E+00 0. -1.
        -13    1    4    4    0    0  0.26950544695E+02 -0.68203045086E+01  0.43573817146E+02  0.51686806379E+02  0.00000000000E+00 0.  1.
         13    1    4    4    0    0  0.75801805840E+02 -0.73131831319E+02 -0.19537972739E+02  0.10712567806E+03  0.00000000000E+00 0. -1.
          1    1    1    2  501    0 -0.15488051391E+02  0.21375342517E+02  0.56819504606E+01  0.27001288203E+02  0.00000000000E+00 0. -1.
<scales pt_clust_5="13000.00000" pt_clust_6="13000.00000" pt_clust_7="13000.00000" pt_clust_8="13000.00000" pt_clust_9="26.39669"></scales>
<clustering>
<clus scale="   26.397">  2  9  1 -1</clus>
<clus scale="   87.711">  7  8 -1 -1</clus>
<clus scale="   95.195">  5  6 -1 -1</clus>
<clus scale="  145.134">  2  7  1 -1</clus>
<clus scale="   26.397">  2  5  1 -1</clus>
</clustering>
</event>
<event>
 9    1  0.1445593E-005  0.2142102E+03  0.7546771E-02  0.1150864E+00
          1   -1    0    0  502    0 -0.00000000000E+00  0.00000000000E+00  0.38725785950E+03  0.38725785950E+03  0.00000000000E+00 0. -1.
         21   -1    0    0  501  502  0.00000000000E+00 -0.00000000000E+00 -0.51886610886E+03  0.51886610886E+03  0.00000000000E+00 0. -1.
         23    2    1    2    0    0 -0.11504782225E+03  0.57326107467E+02 -0.73817820355E+02  0.17484609061E+03  0.92735110916E+02 0.  0.
         23    2    1    2    0    0  0.25722210923E+03  0.64475552930E+02  0.24609421504E+03  0.37435344704E+03  0.96217619127E+02 0.  0.
        -11    1    3    3    0    0 -0.89396476200E+02  0.40420259629E+01 -0.13723299534E+02  0.90533954299E+02  0.00000000000E+00 0. -1.
         11    1    3    3    0    0 -0.25651346049E+02  0.53284081504E+02 -0.60094520821E+02  0.84312136307E+02  0.00000000000E+00 0.  1.
        -11    1    4    4    0    0  0.22098609937E+03  0.26002385769E+02  0.22776403928E+03  0.31841394091E+03  0.00000000000E+00 0. -1.
         11    1    4    4    0    0  0.36236009854E+02  0.38473167161E+02  0.18330175766E+02  0.55939506122E+02  0.00000000000E+00 0.  1.
          1    1    1    2  501    0 -0.14217428698E+03 -0.12180166040E+03 -0.30388464405E+03  0.35692443071E+03  0.00000000000E+00 0. -1.
<scales pt_clust_5="13000.00000" pt_clust_6="13000.00000" pt_clust_7="13000.00000" pt_clust_8="13000.00000" pt_clust_9="191.38493"></scales>
<clustering>
<clus scale="   92.735">  5  6 -1 -1</clus>
<clus scale="   96.218">  7  8 -1 -1</clus>
<clus scale="  158.500">  1  5  2 -1</clus>
<clus scale="  191.385">  2  9  1 -1</clus>
<clus scale="  191.385">  2  5  1 -1</clus>
</clustering>
</event>
<event>
 9    1  0.1445593E-005  0.1197919E+03  0.7546771E-02  0.1243831E+00
          3   -1    0    0  502    0 -0.00000000000E+00  0.00000000000E+00  0.13043330841E+03  0.13043330841E+03  0.00000000000E+00 0. -1.
         21   -1    0    0  501  502  0.00000000000E+00 -0.00000000000E+00 -0.19367646594E+03  0.19367646594E+03  0.00000000000E+00 0. -1.
         23    2    1    2    0    0  0.48926961978E+02  0.47373704069E+02  0.35513887917E+02  0.12008573410E+03  0.92310518653E+02 0.  0.
         23    2    1    2    0    0 -0.50860479504E+02 -0.88698807747E+02 -0.80106532565E+02  0.15864404119E+03  0.91085719922E+02 0.  0.
        -11    1    3    3    0    0  0.34642333937E+02 -0.18986419255E+02 -0.68171653400E+01  0.40088017661E+02  0.00000000000E+00 0.  1.
         11    1    3    3    0    0  0.14284628041E+02  0.66360123324E+02  0.42331053257E+02  0.79997716440E+02  0.00000000000E+00 0. -1.
        -11    1    4    4    0    0 -0.27911719139E+01 -0.39241535326E+02  0.14186156397E+02  0.41820279396E+02  0.00000000000E+00 0.  1.
         11    1    4    4    0    0 -0.48069307590E+02 -0.49457272420E+02 -0.94292688962E+02  0.11682376179E+03  0.00000000000E+00 0. -1.
          3    1    1    2  501    0  0.19335175259E+01  0.41325103678E+02 -0.18650512877E+02  0.45379999059E+02  0.00000000000E+00 0. -1.
<scales pt_clust_5="13000.00000" pt_clust_6="13000.00000" pt_clust_7="13000.00000" pt_clust_8="13000.00000" pt_clust_9="41.37031"></scales>
<clustering>
<clus scale="   41.370">  2  9  1 -1</clus>
<clus scale="   91.086">  7  8 -1 -1</clus>
<clus scale="   92.311">  5  6 -1 -1</clus>
<clus scale="  118.851">  2  7  1 -1</clus>
<clus scale="   41.370">  2  5  1 -1</clus>
</clustering>
</event>
<event>
 9    1  0.1445593E-005  0.9442289E+02  0.7546771E-02  0.1293515E+00
          1   -1    0    0  502    0 -0.00000000000E+00  0.00000000000E+00  0.27394086865E+03  0.27394086865E+03  0.00000000000E+00 0. -1.
         21   -1    0    0  501  502  0.00000000000E+00 -0.00000000000E+00 -0.43595668818E+02  0.43595668818E+02  0.00000000000E+00 0.  1.
         23    2    1    2    0    0 -0.11490259632E+02 -0.18550706731E+02  0.11807594889E+03  0.15152581857E+03  0.92422882442E+02 0.  0.
         23    2    1    2    0    0 -0.13020651266E+02  0.20163661069E+02  0.10424030144E+03  0.14016791710E+03  0.90580869690E+02 0.  0.
        -13    1    3    3    0    0 -0.11494360770E+02  0.23735103428E+02  0.10348659122E+03  0.10679396063E+03  0.00000000000E+00 0. -1.
         13    1    3    3    0    0  0.41011376362E-02 -0.42285810159E+02  0.14589357677E+02  0.44731857943E+02  0.00000000000E+00 0.  1.
        -13    1    4    4    0    0 -0.50501967919E+02  0.23470254124E+02  0.55850598531E+02  0.78870723013E+02  0.00000000000E+00 0.  1.
         13    1    4    4    0    0  0.37481316653E+02 -0.33065930556E+01  0.48389702907E+02  0.61297194089E+02  0.00000000000E+00 0. -1.
          1    1    1    2  501    0  0.24510910898E+02 -0.16129543378E+01  0.80289495026E+01  0.25842801800E+02  0.00000000000E+00 0. -1.
<scales pt_clust_5="13000.00000" pt_clust_6="13000.00000" pt_clust_7="13000.00000" pt_clust_8="13000.00000" pt_clust_9="24.56392"></scales>
<clustering>
<clus scale="   24.564">  2  9  1 -1</clus>
<clus scale="   90.581">  7  8 -1 -1</clus>
<clus scale="   92.423">  5  6 -1 -1</clus>
<clus scale="   92.621">  2  7  1 -1</clus>
<clus scale="   24.564">  2  5  1 -1</clus>
</clustering>
</event>
<event>
 9    1  0.1445593E-005  0.1127012E+03  0.7546771E-02  0.1262674E+00
          1   -1    0    0  502    0 -0.00000000000E+00  0.00000000000E+00  0.97119796909E+03  0.97119796909E+03  0.00000000000E+00 0. -1.
         21   -1    0    0  501  502  0.00000000000E+00 -0.00000000000E+00 -0.17518233947E+02  0.17518233947E+02  0.00000000000E+00 0.  1.
         23    2    1    2    0    0  0.26259446255E+02  0.93518685926E+01  0.42890278681E+03  0.43942914201E+03  0.91451376990E+02 0.  0.
         23    2    1    2    0    0 -0.51730695589E+02  0.23087361671E+02  0.38948579382E+03  0.40784878936E+03  0.10692221592E+03 0.  0.
        -13    1    3    3    0    0  0.44900129829E+02  0.39092003698E+02  0.29892814402E+03  0.30479869044E+03  0.00000000000E+00 0. -1.
         13    1    3    3    0    0 -0.18640683574E+02 -0.29740135105E+02  0.12997464279E+03  0.13463045157E+03  0.00000000000E+00 0.  1.
        -13    1    4    4    0    0  0.27654424212E+02  0.80486548234E+01  0.40911885535E+02  0.50033292926E+02  0.00000000000E+00 0. -1.
         13    1    4    4    0    0 -0.79385119801E+02  0.15038706847E+02  0.34857390828E+03  0.35781549643E+03  0.00000000000E+00 0.  1.
          1    1    1    2  501    0  0.25471249334E+02 -0.32439230263E+02  0.13529115451E+03  0.14143827167E+03  0.00000000000E+00 0. -1.
<scales pt_clust_5="13000.00000" pt_clust_6="13000.00000" pt_clust_7="13000.00000" pt_clust_8="13000.00000" pt_clust_9="41.24425"></scales>
<clustering>
<clus scale="   41.244">  2  9  1 -1</clus>
<clus scale="   91.451">  5  6 -1 -1</clus>
<clus scale="   98.146">  1  5  2 -1</clus>
<clus scale="  106.922">  7  8 -1 -1</clus>
<clus scale="   41.244">  2  5  1 -1</clus>
</clustering>
</event>
<event>
 9    1  0.1445593E-005  0.1239039E+03  0.7546771E-02  0.1238276E+00
         -2   -1    0    0    0  501 -0.00000000000E+00  0.00000000000E+00  0.27866448799E+03  0.27866448799E+03  0.00000000000E+00 0.  1.
         21   -1    0    0  501  502  0.00000000000E+00 -0.00000000000E+00 -0.12445022148E+03  0.12445022148E+03  0.00000000000E+00 0.  1.
         23    2    1    2    0    0 -0.70626513442E+02  0.11464681895E+02  0.14397500627E+03  0.18435232434E+03  0.90207725435E+02 0.  0.
         23    2    1    2    0    0  0.12205123169E+03 -0.29435558089E+01  0.45768881265E+02  0.15567938261E+03  0.85065339603E+02 0.  0.
        -11    1    4    4    0    0  0.78224011805E+02  0.29650583589E+02  0.55237014039E+02  0.10024610142E+03  0.00000000000E+00 0.  1.
         11    1    4    4    0    0  0.43827219883E+02 -0.32594139398E+02 -0.94681327736E+01  0.55433281195E+02  0.00000000000E+00 0. -1.
        -13    1    3    3    0    0 -0.28081511094E+02  0.46673431709E+02  0.99547219227E+02  0.11347523672E+03  0.00000000000E+00 0.  1.
         13    1    3    3    0    0 -0.42545002347E+02 -0.35208749815E+02  0.44427787040E+02  0.70877087620E+02  0.00000000000E+00 0. -1.
         -2    1    1    2    0  502 -0.51424718246E+02 -0.85211260859E+01 -0.35529621021E+02  0.63083002515E+02  0.00000000000E+00 0.  1.
<scales pt_clust_5="13000.00000" pt_clust_6="13000.00000" pt_clust_7="13000.00000" pt_clust_8="13000.00000" pt_clust_9="52.12592"></scales>
<clustering>
<clus scale="   52.126">  2  9  1 -1</clus>
<clus scale="   85.065">  5  6 -1 -1</clus>
<clus scale="   90.208">  7  8 -1 -1</clus>
<clus scale="  120.212">  2  5  1 -1</clus>
<clus scale="   52.126">  2  5  1 -1</clus>
</clustering>
</event>
<event>
 9    1  0.1445593E-005  0.9440936E+02  0.7546771E-02  0.1292560E+00
          3   -1    0    0  502    0 -0.00000000000E+00  0.00000000000E+00  0.37251566697E+03  0.37251566697E+03  0.00000000000E+00 0. -1.
         21   -1    0    0  501  502  0.00000000000E+00 -0.00000000000E+00 -0.33100896308E+02  0.33100896308E+02  0.00000000000E+00 0.  1.
         23    2    1    2    0    0  0.25932496665E+02 -0.81639073145E+01  0.21854355902E+03  0.23844834326E+03  0.91417621104E+02 0.  0.
         23    2    1    2    0    0 -0.19146823288E+02 -0.11984141056E+02  0.10165559268E+03  0.13851112267E+03  0.91330450022E+02 0.  0.
        -11    1    4    4    0    0 -0.25156513582E+02  0.36573579477E+02  0.57193803242E+02  0.72398950411E+02  0.00000000000E+00 0.  1.
         11    1    4    4    0    0  0.60096902936E+01 -0.48557720533E+02  0.44461789438E+02  0.66112172259E+02  0.00000000000E+00 0. -1.
        -13    1    3    3    0    0 -0.22743288439E+02 -0.32428247495E+02  0.72636152715E+02  0.82733663558E+02  0.00000000000E+00 0.  1.
         13    1    3    3    0    0  0.48675785104E+02  0.24264340180E+02  0.14590740631E+03  0.15571467970E+03  0.00000000000E+00 0. -1.
          3    1    1    2  501    0 -0.67856733772E+01  0.20148048371E+02  0.19215618964E+02  0.28657097350E+02  0.00000000000E+00 0. -1.
<scales pt_clust_5="13000.00000" pt_clust_6="13000.00000" pt_clust_7="13000.00000" pt_clust_8="13000.00000" pt_clust_9="21.26004"></scales>
<clustering>
<clus scale="   21.260">  2  9  1 -1</clus>
<clus scale="   91.330">  5  6 -1 -1</clus>
<clus scale="   91.418">  7  8 -1 -1</clus>
<clus scale="   94.325">  2  5  1 -1</clus>
<clus scale="   21.260">  2  5  1 -1</clus>
</clustering>
</event>
<event>
 9    1  0.1445593E-005  0.9641225E+02  0.7546771E-02  0.1291360E+00
         21   -1    0    0  501  502  0.00000000000E+00  0.00000000000E+00  0.43756908744E+03  0.43756908744E+03  0.00000000000E+00 0. -1.
         -3   -1    0    0    0  501 -0.00000000000E+00 -0.00000000000E+00 -0.47801795635E+02  0.47801795635E+02  0.00000000000E+00 0.  1.
         23    2    1    2    0    0 -0.19340714130E+02  0.31397413547E+02  0.47396005314E+02  0.11063049690E+03  0.92913210710E+02 0.  0.
         23    2    1    2    0    0  0.17173005155E+02  0.26234562379E+02  0.24148399133E+03  0.25853199604E+03  0.86839567831E+02 0.  0.
        -11    1    4    4    0    0 -0.23506995577E+02 -0.75751955440E+01  0.23042976273E+02  0.33777820890E+02  0.00000000000E+00 0.  1.
         11    1    4    4    0    0  0.40680000732E+02  0.33809757923E+02  0.21844101506E+03  0.22475417515E+03  0.00000000000E+00 0. -1.
        -13    1    3    3    0    0  0.20625531856E+02 -0.17297933284E+02  0.38546588836E+02  0.47015641771E+02  0.00000000000E+00 0. -1.
         13    1    3    3    0    0 -0.39966245986E+02  0.48695346831E+02  0.88494164775E+01  0.63614855130E+02  0.00000000000E+00 0.  1.
         -3    1    1    2    0  502  0.21677089753E+01 -0.57631975926E+02  0.10088729516E+03  0.11620839013E+03  0.00000000000E+00 0.  1.
<scales pt_clust_5="13000.00000" pt_clust_6="13000.00000" pt_clust_7="13000.00000" pt_clust_8="13000.00000" pt_clust_9="57.67273"></scales>
<clustering>
<clus scale="   57.673">  1  9  2 -1</clus>
<clus scale="   86.840">  5  6 -1 -1</clus>
<clus scale="   90.574">  1  5  2 -1</clus>
<clus scale="   92.913">  7  8 -1 -1</clus>
<clus scale="   57.673">  1  5  2 -1</clus>
</clustering>
</event>
<event>
 9    1  0.1445593E-005  0.9849615E+02  0.7546771E-02  0.1286948E+00
          1   -1    0    0  502    0 -0.00000000000E+00  0.00000000000E+00  0.52419776615E+03  0.52419776615E+03  0.00000000000E+00 0. -1.
         21   -1    0    0  501  502  0.00000000000E+00 -0.00000000000E+00 -0.29645268319E+02  0.29645268319E+02  0.00000000000E+00 0.  1.
         23    2    1    2    0    0  0.15973253200E+02  0.15712565532E+02  0.28484692997E+03  0.30138128808E+03  0.95869065678E+02 0.  0.
         23    2    1    2    0    0 -0.30329304476E+02  0.10820273434E+02  0.19882668121E+03  0.22039247876E+03  0.89464241500E+02 0.  0.
        -11    1    4    4    0    0 -0.88140507116E+01 -0.33137310416E+02  0.13864913405E+03  0.14282629731E+03  0.00000000000E+00 0.  1.
         11    1    4    4    0    0 -0.21515253764E+02  0.43957583850E+02  0.60177547159E+02  0.77566181448E+02  0.00000000000E+00 0. -1.
        -11    1    3    3    0    0  0.25948733071E+02  0.49582509450E+02  0.22536400339E+03  0.23220830307E+03  0.00000000000E+00 0. -1.
         11    1    3    3    0    0 -0.99754798707E+01 -0.33869943918E+02  0.59482926588E+02  0.69172985010E+02  0.00000000000E+00 0.  1.
          1    1    1    2  501    0  0.14356051276E+02 -0.26532838967E+02  0.10878886653E+02  0.32069267635E+02  0.00000000000E+00 0. -1.
<scales pt_clust_5="13000.00000" pt_clust_6="13000.00000" pt_clust_7="13000.00000" pt_clust_8="13000.00000" pt_clust_9="30.16766"></scales>
<clustering>
<clus scale="   30.168">  2  9  1 -1</clus>
<clus scale="   89.464">  5  6 -1 -1</clus>
<clus scale="   92.274">  2  5  1 -1</clus>
<clus scale="   95.869">  7  8 -1 -1</clus>
<clus scale="   30.168">  2  5  1 -1</clus>
</clustering>
</event>
<event>
 9    1  0.1445593E-005  0.1043135E+03  0.7546771E-02  0.1275477E+00
          1   -1    0    0  502    0 -0.00000000000E+00  0.00000000000E+00  0.23976844299E+03  0.23976844299E+03  0.00000000000E+00 0. -1.
         21   -1    0    0  501  502  0.00000000000E+00 -0.00000000000E+00 -0.78382591691E+02  0.78382591691E+02  0.00000000000E+00 0. -1.
         23    2    1    2    0    0  0.57587080862E-01  0.44321528529E+02  0.10906191422E+03  0.15068858161E+03  0.94064585722E+02 0.  0.
         23    2    1    2    0    0  0.32380827357E+02 -0.40528880983E+02  0.77301788007E+02  0.12634642281E+03  0.85420980765E+02 0.  0.
        -11    1    3    3    0    0  0.12547667675E+02  0.23560603696E+02  0.12083703246E+03  0.12375029060E+03  0.00000000000E+00 0. -1.
         11    1    3    3    0    0 -0.12490080594E+02  0.20760924833E+02 -0.11775118235E+02  0.26938291012E+02  0.00000000000E+00 0.  1.
        -13    1    4    4    0    0  0.50760699869E+02  0.45202724110E+01  0.44616406877E+02  0.67732601282E+02  0.00000000000E+00 0. -1.
         13    1    4    4    0    0 -0.18379872511E+02 -0.45049153394E+02  0.32685381130E+02  0.58613821533E+02  0.00000000000E+00 0.  1.
          1    1    1    2  501    0 -0.32438414438E+02 -0.37926475462E+01 -0.24977850930E+02  0.41116030253E+02  0.00000000000E+00 0. -1.
<scales pt_clust_5="13000.00000" pt_clust_6="13000.00000" pt_clust_7="13000.00000" pt_clust_8="13000.00000" pt_clust_9="32.65938"></scales>
<clustering>
<clus scale="   32.659">  2  9  1 -1</clus>
<clus scale="   85.421">  7  8 -1 -1</clus>
<clus scale="   94.065">  5  6 -1 -1</clus>
<clus scale="   96.591">  2  7  1 -1</clus>
<clus scale="   32.659">  2  5  1 -1</clus>
</clustering>
</event>
<event>
 9    1  0.1445593E-005  0.1272992E+03  0.7546771E-02  0.1239690E+00
          1   -1    0    0  502    0 -0.00000000000E+00  0.00000000000E+00  0.81176287638E+02  0.81176287638E+02  0.00000000000E+00 0. -1.
         21   -1    0    0  501  502  0.00000000000E+00 -0.00000000000E+00 -0.41143770098E+03  0.41143770098E+03  0.00000000000E+00 0. -1.
         23    2    1    2    0    0 -0.84914080152E+02 -0.36215965199E+02 -0.52391024453E+02  0.15511819000E+03  0.11311426206E+03 0.  0.
         23    2    1    2    0    0  0.56731919046E+01  0.35499038800E+02 -0.86041880673E+02  0.12994385592E+03  0.90497699414E+02 0.  0.
        -11    1    4    4    0    0 -0.32078408949E+02  0.13135942894E+01 -0.69228329417E+02  0.76310624716E+02  0.00000000000E+00 0.  1.
         11    1    4    4    0    0  0.37751600854E+02  0.34185444511E+02 -0.16813551256E+02  0.53633231203E+02  0.00000000000E+00 0. -1.
        -11    1    3    3    0    0 -0.24696219943E+02 -0.44151477915E+01  0.35787293677E+02  0.43705001982E+02  0.00000000000E+00 0. -1.
         11    1    3    3    0    0 -0.60217860209E+02 -0.31800817408E+02 -0.88178318130E+02  0.11141318802E+03  0.00000000000E+00 0.  1.
          1    1    1    2  501    0  0.79240888247E+02  0.71692639879E+00 -0.19182850821E+03  0.20755194270E+03  0.00000000000E+00 0. -1.
<scales pt_clust_5="13000.00000" pt_clust_6="13000.00000" pt_clust_7="13000.00000" pt_clust_8="13000.00000" pt_clust_9="79.24413"></scales>
<clustering>
<clus scale="   79.244">  2  9  1 -1</clus>
<clus scale="   90.498">  5  6 -1 -1</clus>
<clus scale="  107.704">  2  5  1 -1</clus>
<clus scale="  113.114">  7  8 -1 -1</clus>
<clus scale="   79.244">  2  5  1 -1</clus>
</clustering>
</event>
<event>
 9    1  0.1445593E-005  0.1504118E+03  0.7546771E-02  0.1200116E+00
          1   -1    0    0  502    0 -0.00000000000E+00  0.00000000000E+00  0.89877287422E+03  0.89877287422E+03  0.00000000000E+00 0. -1.
         21   -1    0    0  501  502  0.00000000000E+00 -0.00000000000E+00 -0.60631232038E+02  0.60631232038E+02  0.00000000000E+00 0. -1.
         23    2    1    2    0    0  0.17591210855E+02 -0.12251471153E+03  0.65208338551E+03  0.66985215032E+03  0.90387257914E+02 0.  0.
         23    2    1    2    0    0  0.40029319317E+02  0.10365896941E+03  0.72895354393E+02  0.16117163439E+03  0.91186812074E+02 0.  0.
        -11    1    3    3    0    0 -0.34321053597E+02 -0.76603442318E+02  0.35186987848E+03  0.36174360184E+03  0.00000000000E+00 0. -1.
         11    1    3    3    0    0  0.51912264452E+02 -0.45911269209E+02  0.30021350703E+03  0.30810854848E+03  0.00000000000E+00 0.  1.
        -13    1    4    4    0    0  0.13830049299E+02  0.83793425571E+02  0.90306260243E+02  0.12396704833E+03  0.00000000000E+00 0.  1.
         13    1    4    4    0    0  0.26199270018E+02  0.19865543837E+02 -0.17410905850E+02  0.37204586061E+02  0.00000000000E+00 0. -1.
          1    1    1    2  501    0 -0.57620530172E+02  0.18855742119E+02  0.11316290228E+03  0.12838032155E+03  0.00000000000E+00 0. -1.
<scales pt_clust_5="13000.00000" pt_clust_6="13000.00000" pt_clust_7="13000.00000" pt_clust_8="13000.00000" pt_clust_9="60.62729"></scales>
<clustering>
<clus scale="   60.627">  2  9  1 -1</clus>
<clus scale="   90.387">  5  6 -1 -1</clus>
<clus scale="   91.187">  7  8 -1 -1</clus>
<clus scale="  149.928">  1  5  2 -1</clus>
<clus scale="   60.627">  2  5  1 -1</clus>
</clustering>
</event>
<event>
 9    1  0.1445593E-005  0.1299811E+03  0.7546771E-02  0.1228640E+00
          2   -1    0    0  502    0 -0.00000000000E+00  0.00000000000E+00  0.45858186656E+03  0.45858186656E+03  0.00000000000E+00 0. -1.
         21   -1    0    0  501  502  0.00000000000E+00 -0.00000000000E+00 -0.45047987394E+02  0.45047987394E+02  0.00000000000E+00 0.  1.
         23    2    1    2    0    0 -0.10249781979E+01  0.76489198610E+02  0.17746322480E+03  0.21625336646E+03  0.97060157960E+02 0.  0.
         23    2    1    2    0    0 -0.18676453416E+02 -0.95705371023E+02  0.20994177372E+03  0.24942749418E+03  0.92898861924E+02 0.  0.
        -11    1    4    4    0    0 -0.41330238187E+01 -0.57247537061E+02  0.29835786326E+02  0.64687993717E+02  0.00000000000E+00 0.  1.
         11    1    4    4    0    0 -0.14543429598E+02 -0.38457833962E+02  0.18010598739E+03  0.18473950046E+03  0.00000000000E+00 0. -1.
        -11    1    3    3    0    0  0.39050433048E+02  0.38831055773E+02  0.39610069838E+02  0.67836161789E+02  0.00000000000E+00 0.  1.
         11    1    3    3    0    0 -0.40075411246E+02  0.37658142837E+02  0.13785315496E+03  0.14841720467E+03  0.00000000000E+00 0. -1.
          2    1    1    2  501    0  0.19701431614E+02  0.19216172413E+02  0.26128880650E+02  0.37948993318E+02  0.00000000000E+00 0. -1.
<scales pt_clust_5="13000.00000" pt_clust_6="13000.00000" pt_clust_7="13000.00000" pt_clust_8="13000.00000" pt_clust_9="27.52104"></scales>
<clustering>
<clus scale="   27.521">  2  9  1 -1</clus>
<clus scale="   92.899">  5  6 -1 -1</clus>
<clus scale="   97.060">  7  8 -1 -1</clus>
<clus scale="  126.904">  2  5  1 -1</clus>
<clus scale="   27.521">  2  5  1 -1</clus>
</clustering>
</event>
<event>
 9    1  0.1445593E-005  0.1327864E+03  0.7546771E-02  0.1227964E+00
         21   -1    0    0  501  502  0.00000000000E+00  0.00000000000E+00  0.63414086335E+03  0.63414086335E+03  0.00000000000E+00 0.  1.
          1   -1    0    0  502    0 -0.00000000000E+00 -0.00000000000E+00 -0.12231552150E+03  0.12231552150E+03  0.00000000000E+00 0. -1.
         23    2    1    2    0    0 -0.23981475256E+02 -0.72907402557E+02 -0.70381327780E+02  0.13815814665E+03  0.90793951790E+02 0.  0.
         23    2    1    2    0    0  0.21523618522E+02  0.10580944759E+03  0.32050493878E+03  0.35452488556E+03  0.10632766973E+03 0.  0.
        -11    1    4    4    0    0  0.60563927059E+02  0.49046889049E+02  0.12572055654E+03  0.14791634434E+03  0.00000000000E+00 0. -1.
         11    1    4    4    0    0 -0.39040308537E+02  0.56762558539E+02  0.19478438224E+03  0.20660854122E+03  0.00000000000E+00 0.  1.
        -11    1    3    3    0    0 -0.31026299812E-01 -0.66792863595E+02 -0.86020667323E+02  0.10890749651E+03  0.00000000000E+00 0. -1.
         11    1    3    3    0    0 -0.23950448956E+02 -0.61145389620E+01  0.15639339543E+02  0.29250650134E+02  0.00000000000E+00 0.  1.
          1    1    1    2  501    0  0.24578567335E+01 -0.32902045031E+02  0.26170173085E+03  0.26377335263E+03  0.00000000000E+00 0. -1.
<scales pt_clust_5="13000.00000" pt_clust_6="13000.00000" pt_clust_7="13000.00000" pt_clust_8="13000.00000" pt_clust_9="32.99372"></scales>
<clustering>
<clus scale="   32.994">  1  9  2 -1</clus>
<clus scale="   90.794">  7  8 -1 -1</clus>
<clus scale="  106.328">  5  6 -1 -1</clus>
<clus scale="  120.707">  2  7  1 -1</clus>
<clus scale="   32.994">  1  5  2 -1</clus>
</clustering>
</event>
<event>
 9    1  0.1445593E-005  0.9688425E+02  0.7546771E-02  0.1287000E+00
         21   -1    0    0  501  502  0.00000000000E+00  0.00000000000E+00  0.12919758192E+03  0.12919758192E+03  0.00000000000E+00 0.  1.
         -3   -1    0    0    0  501 -0.00000000000E+00 -0.00000000000E+00 -0.38538521083E+03  0.38538521083E+03  0.00000000000E+00 0.  1.
         23    2    1    2    0    0  0.10487881919E+02 -0.24263970377E+01 -0.15944592301E+03  0.18383952500E+03  0.90874009034E+02 0.  0.
         23    2    1    2    0    0 -0.30081001251E+02 -0.75249511342E+02 -0.17862758768E+03  0.21618876237E+03  0.90897801422E+02 0.  0.
        -11    1    4    4    0    0  0.16064469080E+02 -0.55188284414E+02 -0.14416445324E+03  0.15520052668E+03  0.00000000000E+00 0.  1.
         11    1    4    4    0    0 -0.46145470331E+02 -0.20061226928E+02 -0.34463134441E+02  0.60988235697E+02  0.00000000000E+00 0. -1.
        -11    1    3    3    0    0 -0.14674920469E+02 -0.22248958658E+02 -0.14712374025E+03  0.14951844167E+03  0.00000000000E+00 0.  1.
         11    1    3    3    0    0  0.25162802389E+02  0.19822561620E+02 -0.12322182755E+02  0.34321083332E+02  0.00000000000E+00 0. -1.
         -3    1    1    2    0  502  0.19593119332E+02  0.77675908380E+02  0.81885881778E+02  0.11455450538E+03  0.00000000000E+00 0.  1.
<scales pt_clust_5="13000.00000" pt_clust_6="13000.00000" pt_clust_7="13000.00000" pt_clust_8="13000.00000" pt_clust_9="80.10891"></scales>
<clustering>
<clus scale="   80.109">  1  9  2 -1</clus>
<clus scale="   90.874">  7  8 -1 -1</clus>
<clus scale="   90.898">  5  6 -1 -1</clus>
<clus scale="   96.862">  2  7  1 -1</clus>
<clus scale="   80.109">  1  5  2 -1</clus>
</clustering>
</event>
<event>
 9    1  0.1445593E-005  0.1984959E+03  0.7546771E-02  0.1151054E+00
         21   -1    0    0  501  502  0.00000000000E+00  0.00000000000E+00  0.62024446194E+02  0.62024446194E+02  0.00000000000E+00 0. -1.
          1   -1    0    0  502    0 -0.00000000000E+00 -0.00000000000E+00 -0.86179291825E+03  0.86179291825E+03  0.00000000000E+00 0. -1.
         23    2    1    2    0    0 -0.11723291851E+03  0.12701423159E+03 -0.53829308175E+03  0.57269830717E+03  0.91365950804E+02 0.  0.
         23    2    1    2    0    0  0.14298345147E+03 -0.11633089310E+03 -0.23765388728E+03  0.31444907397E+03  0.91769852872E+02 0.  0.
        -11    1    3    3    0    0 -0.89908876292E+02  0.13690487008E+03 -0.48622124268E+03  0.51306690238E+03  0.00000000000E+00 0. -1.
         11    1    3    3    0    0 -0.27324042215E+02 -0.98906384886E+01 -0.52071839071E+02  0.59631404787E+02  0.00000000000E+00 0.  1.
        -13    1    4    4    0    0  0.40746286696E+02 -0.16445953324E+02 -0.12487999670E+03  0.13238482857E+03  0.00000000000E+00 0.  1.
         13    1    4    4    0    0  0.10223716478E+03 -0.99884939774E+02 -0.11277389058E+03  0.18206424540E+03  0.00000000000E+00 0. -1.
          1    1    1    2  501    0 -0.25750532967E+02 -0.10683338489E+02 -0.23821503033E+02  0.36669983312E+02  0.00000000000E+00 0. -1.
<scales pt_clust_5="13000.00000" pt_clust_6="13000.00000" pt_clust_7="13000.00000" pt_clust_8="13000.00000" pt_clust_9="27.87873"></scales>
<clustering>
<clus scale="   27.879">  1  9  2 -1</clus>
<clus scale="   91.366">  5  6 -1 -1</clus>
<clus scale="   91.770">  7  8 -1 -1</clus>
<clus scale="  198.310">  2  5  1 -1</clus>
<clus scale="   27.879">  1  5  2 -1</clus>
</clustering>
</event>
<event>
 9    1  0.1445593E-005  0.1391140E+03  0.7546771E-02  0.1214571E+00
         21   -1    0    0  501  502  0.00000000000E+00  0.00000000000E+00  0.18636122906E+03  0.18636122906E+03  0.00000000000E+00 0. -1.
         -1   -1    0    0    0  501 -0.00000000000E+00 -0.00000000000E+00 -0.33045334759E+03  0.33045334759E+03  0.00000000000E+00 0.  1.
         23    2    1    2    0    0  0.84952121177E+01 -0.11132752137E+03 -0.20988960849E+03  0.25514074693E+03  0.92612997718E+02 0.  0.
         23    2    1    2    0    0  0.31800179862E+02  0.87533873017E+02 -0.46940957748E+02  0.13960903583E+03  0.92810554388E+02 0.  0.
        -11    1    4    4    0    0 -0.23709603714E+02  0.23245335826E+02 -0.43337692919E+02  0.54595298089E+02  0.00000000000E+00 0.  1.
         11    1    4    4    0    0  0.55509783576E+02  0.64288537192E+02 -0.36032648294E+01  0.85013737739E+02  0.00000000000E+00 0. -1.
        -13    1    3    3    0    0 -0.41539623331E+02 -0.44788479041E+02 -0.76409154331E+02  0.97825901615E+02  0.00000000000E+00 0. -1.
         13    1    3    3    0    0  0.50034835449E+02 -0.66539042330E+02 -0.13348045416E+03  0.15731484531E+03  0.00000000000E+00 0.  1.
         -1    1    1    2    0  502 -0.40295391980E+02  0.23793648353E+02  0.11273844770E+03  0.12206479389E+03  0.00000000000E+00 0.  1.
<scales pt_clust_5="13000.00000" pt_clust_6="13000.00000" pt_clust_7="13000.00000" pt_clust_8="13000.00000" pt_clust_9="46.79590"></scales>
<clustering>
<clus scale="   46.796">  1  9  2 -1</clus>
<clus scale="   92.613">  7  8 -1 -1</clus>
<clus scale="   92.811">  5  6 -1 -1</clus>
<clus scale="  138.982">  2  7  1 -1</clus>
<clus scale="   46.796">  1  5  2 -1</clus>
</clustering>
</event>
<event>
 9    1  0.1445593E-005  0.1030978E+03  0.7546771E-02  0.1275537E+00
          1   -1    0    0  502    0 -0.00000000000E+00  0.00000000000E+00  0.20992154220E+03  0.20992154220E+03  0.00000000000E+00 0. -1.
         21   -1    0    0  501  502  0.00000000000E+00 -0.00000000000E+00 -0.16986142987E+03  0.16986142987E+03  0.00000000000E+00 0.  1.
         23    2    1    2    0    0 -0.40841005488E+02 -0.39223250497E+00  0.12649450404E+03  0.15965591986E+03  0.88436483523E+02 0.  0.
         23    2    1    2    0    0  0.62664547305E+02  0.58323077344E+01  0.18343252164E+02  0.11296261756E+03  0.91995743181E+02 0.  0.
        -11    1    4    4    0    0  0.15167652835E+02 -0.41558850187E+02  0.46537177906E+01  0.44484298473E+02  0.00000000000E+00 0.  1.
         11    1    4    4    0    0  0.47496894470E+02  0.47391157921E+02  0.13689534373E+02  0.68478319086E+02  0.00000000000E+00 0. -1.
        -13    1    3    3    0    0  0.30567586599E+01  0.38520391751E+02  0.53957975110E+02  0.66367367223E+02  0.00000000000E+00 0. -1.
         13    1    3    3    0    0 -0.43897764148E+02 -0.38912624256E+02  0.72536528933E+02  0.93288552638E+02  0.00000000000E+00 0.  1.
          1    1    1    2  501    0 -0.21823541817E+02 -0.54400752295E+01 -0.10477764388E+03  0.10716443464E+03  0.00000000000E+00 0. -1.
<scales pt_clust_5="13000.00000" pt_clust_6="13000.00000" pt_clust_7="13000.00000" pt_clust_8="13000.00000" pt_clust_9="22.49136"></scales>
<clustering>
<clus scale="   22.491">  2  9  1 -1</clus>
<clus scale="   88.436">  7  8 -1 -1</clus>
<clus scale="   91.996">  5  6 -1 -1</clus>
<clus scale="   99.935">  1  7  2 -1</clus>
<clus scale="   22.491">  2  5  1 -1</clus>
</clustering>
</event>
<event>
 9    1  0.1445593E-005  0.1031431E+03  0.7546771E-02  0.1277512E+00
          3   -1    0    0  502    0 -0.00000000000E+00  0.00000000000E+00  0.22408045802E+03  0.22408045802E+03  0.00000000000E+00 0. -1.
         21   -1    0    0  501  502  0.00000000000E+00 -0.00000000000E+00 -0.14280491634E+03  0.14280491634E+03  0.00000000000E+00 0. -1.
         23    2    1    2    0    0  0.25117716599E+02 -0.15260205438E+02  0.11351699036E+03  0.14840412700E+03  0.90961004024E+02 0.  0.
         23    2    1    2    0    0 -0.39686291214E+02 -0.94869780677E+01  0.59747705597E+02  0.12211387237E+03  0.98371769517E+02 0.  0.
        -11    1    3    3    0    0 -0.28010600867E+02 -0.26401508582E+00  0.76969068952E+01  0.29050057499E+02  0.00000000000E+00 0. -1.
         11    1    3    3    0    0  0.53128317466E+02 -0.14996190353E+02  0.10582008347E+03  0.11935406950E+03  0.00000000000E+00 0.  1.
        -13    1    4    4    0    0 -0.21757751994E+02 -0.33183399537E+02  0.77807560431E+02  0.87341595113E+02  0.00000000000E+00 0. -1.
         13    1    4    4    0    0 -0.17928539220E+02  0.23696421469E+02 -0.18059854834E+02  0.34772277257E+02  0.00000000000E+00 0.  1.
          3    1    1    2  501    0  0.14568574615E+02  0.24747183506E+02 -0.91989154282E+02  0.96367374994E+02  0.00000000000E+00 0. -1.
<scales pt_clust_5="13000.00000" pt_clust_6="13000.00000" pt_clust_7="13000.00000" pt_clust_8="13000.00000" pt_clust_9="28.71701"></scales>
<clustering>
<clus scale="   28.717">  2  9  1 -1</clus>
<clus scale="   90.961">  5  6 -1 -1</clus>
<clus scale="   96.101">  1  5  2 -1</clus>
<clus scale="   98.372">  7  8 -1 -1</clus>
<clus scale="   28.717">  2  5  1 -1</clus>
</clustering>
</event>
<event>
 9    1  0.1445593E-005  0.1714197E+03  0.7546771E-02  0.1176402E+00
         21   -1    0    0  501  502  0.00000000000E+00  0.00000000000E+00  0.20715433953E+03  0.20715433953E+03  0.00000000000E+00 0. -1.
          1   -1    0    0  502    0 -0.00000000000E+00 -0.00000000000E+00 -0.68948250352E+03  0.68948250352E+03  0.00000000000E+00 0. -1.
         23    2    1    2    0    0  0.11128589198E+03 -0.27993452521E+01 -0.24402649954E+03  0.28319760765E+03  0.90882156746E+02 0.  0.
         23    2    1    2    0    0 -0.19556457162E+03 -0.92721993165E+02 -0.36490127632E+03  0.43384334552E+03  0.90687580745E+02 0.  0.
        -13    1    3    3    0    0  0.28376963085E+02 -0.51890322502E+01 -0.38510212904E+01  0.29103409673E+02  0.00000000000E+00 0. -1.
         13    1    3    3    0    0  0.82908928896E+02  0.23896869981E+01 -0.24017547825E+03  0.25409419798E+03  0.00000000000E+00 0.  1.
        -13    1    4    4    0    0 -0.17523901295E+03 -0.75611799578E+02 -0.35907170933E+03  0.40664277731E+03  0.00000000000E+00 0. -1.
         13    1    4    4    0    0 -0.20325558660E+02 -0.17110193587E+02 -0.58295669885E+01  0.27200568206E+02  0.00000000000E+00 0.  1.
          1    1    1    2  501    0  0.84278679634E+02  0.95521338417E+02  0.12659961188E+03  0.17959588988E+03  0.00000000000E+00 0. -1.
<scales pt_clust_5="13000.00000" pt_clust_6="13000.00000" pt_clust_7="13000.00000" pt_clust_8="13000.00000" pt_clust_9="127.38611"></scales>
<clustering>
<clus scale="   90.688">  7  8 -1 -1</clus>
<clus scale="   90.882">  5  6 -1 -1</clus>
<clus scale="  127.386">  1  9  2 -1</clus>
<clus scale="  171.317">  1  7  2 -1</clus>
<clus scale="  127.386">  1  5  2 -1</clus>
</clustering>
</event>
<event>
 9    1  0.1445593E-005  0.9363174E+02  0.7546771E-02  0.1295820E+00
         -1   -1    0    0    0  501 -0.00000000000E+00  0.00000000000E+00  0.48716416876E+02  0.48716416876E+02  0.00000000000E+00 0.  1.
         21   -1    0    0  501  502  0.00000000000E+00 -0.00000000000E+00 -0.39059314217E+03  0.39059314217E+03  0.00000000000E+00 0. -1.
         23    2    1    2    0    0 -0.11284197704E+02 -0.31282502949E+01 -0.42357167372E+02  0.10107964699E+03  0.91026624346E+02 0.  0.
         23    2    1    2    0    0  0.47635406174E+02 -0.32063834853E+02 -0.18214851050E+03  0.21041811296E+03  0.88320331517E+02 0.  0.
        -11    1    4    4    0    0  0.51482851819E+02 -0.57764877733E+02 -0.11694088075E+03  0.14022280386E+03  0.00000000000E+00 0. -1.
         11    1    4    4    0    0 -0.38474456448E+01  0.25701042880E+02 -0.65207629748E+02  0.70195309105E+02  0.00000000000E+00 0.  1.
        -13    1    3    3    0    0 -0.38090283922E+02  0.28283069564E+02 -0.96801027592E+01  0.48420100605E+02  0.00000000000E+00 0.  1.
         13    1    3    3    0    0  0.26806086218E+02 -0.31411319859E+02 -0.32677064612E+02  0.52659546383E+02  0.00000000000E+00 0. -1.
         -1    1    1    2    0  502 -0.36351208470E+02  0.35192085148E+02 -0.11737104743E+03  0.12781179910E+03  0.00000000000E+00 0.  1.
<scales pt_clust_5="13000.00000" pt_clust_6="13000.00000" pt_clust_7="13000.00000" pt_clust_8="13000.00000" pt_clust_9="50.59539"></scales>
<clustering>
<clus scale="   50.595">  2  9  1 -1</clus>
<clus scale="   88.320">  5  6 -1 -1</clus>
<clus scale="   91.003">  2  5  1 -1</clus>
<clus scale="   91.027">  7  8 -1 -1</clus>
<clus scale="   50.595">  2  5  1 -1</clus>
</clustering>
</event>
<event>
 9    1  0.1445593E-005  0.1068952E+03  0.7546771E-02  0.1267183E+00
          2   -1    0    0  502    0 -0.00000000000E+00  0.00000000000E+00  0.81643331719E+02  0.81643331719E+02  0.00000000000E+00 0. -1.
         21   -1    0    0  501  502  0.00000000000E+00 -0.00000000000E+00 -0.31520096802E+03  0.31520096802E+03  0.00000000000E+00 0.  1.
         23    2    1    2    0    0  0.78223282777E+01 -0.37664446400E+02 -0.12157272597E+02  0.99867698093E+02  0.91356217649E+02 0.  0.
         23    2    1    2    0    0 -0.18713674074E+02  0.76736481442E+02 -0.71131962029E+02  0.14133008586E+03  0.93143695248E+02 0.  0.
        -11    1    3    3    0    0  0.44754760956E+02 -0.24691893283E+01 -0.18435648922E+02  0.48466056941E+02  0.00000000000E+00 0.  1.
         11    1    3    3    0    0 -0.36932432679E+02 -0.35195257072E+02  0.62783763249E+01  0.51401641153E+02  0.00000000000E+00 0. -1.
        -13    1    4    4    0    0 -0.45612268395E+02  0.38335940373E+02 -0.43604203443E+01  0.59742251531E+02  0.00000000000E+00 0. -1.
         13    1    4    4    0    0  0.26898594321E+02  0.38400541069E+02 -0.66771541685E+02  0.81587834325E+02  0.00000000000E+00 0.  1.
          2    1    1    2  501    0  0.10891345796E+02 -0.39072035042E+02 -0.15026840167E+03  0.15564651579E+03  0.00000000000E+00 0. -1.
<scales pt_clust_5="13000.00000" pt_clust_6="13000.00000" pt_clust_7="13000.00000" pt_clust_8="13000.00000" pt_clust_9="40.56162"></scales>
<clustering>
<clus scale="   40.562">  2  9  1 -1</clus>
<clus scale="   91.356">  5  6 -1 -1</clus>
<clus scale="   93.144">  7  8 -1 -1</clus>
<clus scale="  105.341">  1  5  2 -1</clus>
<clus scale="   40.562">  2  5  1 -1</clus>
</clustering>
</event>
<event>
 9    1  0.1445593E-005  0.1434498E+03  0.7546771E-02  0.1209104E+00
          1   -1    0    0  502    0 -0.00000000000E+00  0.00000000000E+00  0.52137358681E+03  0.52137358681E+03  0.00000000000E+00 0. -1.
         21   -1    0    0  501  502  0.00000000000E+00 -0.00000000000E+00 -0.11011312608E+03  0.11011312608E+03  0.00000000000E+00 0.  1.
         23    2    1    2    0    0 -0.72385871973E+01  0.10011892488E+03  0.32856303736E+03  0.35544534929E+03  0.91167595911E+02 0.  0.
         23    2    1    2    0    0 -0.52415788260E+01 -0.14389505454E+03  0.12752804230E+03  0.21215170508E+03  0.89508008172E+02 0.  0.
        -11    1    3    3    0    0  0.35920400580E+02  0.57912511839E+02  0.22982700541E+03  0.23971772280E+03  0.00000000000E+00 0. -1.
         11    1    3    3    0    0 -0.43158987778E+02  0.42206413040E+02  0.98736031948E+02  0.11572762649E+03  0.00000000000E+00 0.  1.
        -13    1    4    4    0    0 -0.43841299929E+02 -0.10853463179E+03  0.92073041235E+02  0.14892706537E+03  0.00000000000E+00 0.  1.
         13    1    4    4    0    0  0.38599721103E+02 -0.35360422746E+02  0.35455001066E+02  0.63224639711E+02  0.00000000000E+00 0. -1.
          1    1    1    2  501    0  0.12480166023E+02  0.43776129657E+02 -0.44830618941E+02  0.63889658524E+02  0.00000000000E+00 0. -1.
<scales pt_clust_5="13000.00000" pt_clust_6="13000.00000" pt_clust_7="13000.00000" pt_clust_8="13000.00000" pt_clust_9="45.52037"></scales>
<clustering>
<clus scale="   45.520">  2  9  1 -1</clus>
<clus scale="   89.508">  7  8 -1 -1</clus>
<clus scale="   91.168">  5  6 -1 -1</clus>
<clus scale="  142.401">  2  7  1 -1</clus>
<clus scale="   45.520">  2  5  1 -1</clus>
</clustering>
</event>
<event>
 9    1  0.1445593E-005  0.9217658E+02  0.7546771E-02  0.1299895E+00
         21   -1    0    0  501  502  0.00000000000E+00  0.00000000000E+00  0.77065835931E+03  0.77065835931E+03  0.00000000000E+00 0.  1.
          3   -1    0    0  502    0 -0.00000000000E+00 -0.00000000000E+00 -0.14599435624E+02  0.14599435624E+02  0.00000000000E+00 0. -1.
         23    2    1    2    0    0 -0.42630871773E+01 -0.90166176254E+01  0.26766363181E+03  0.28286087591E+03  0.90922945532E+02 0.  0.
         23    2    1    2    0    0 -0.18078562391E+02  0.20762355498E+02  0.35108692246E+03  0.36278782198E+03  0.87149680621E+02 0.  0.
        -11    1    3    3    0    0 -0.35278521643E+02 -0.29577334095E+02  0.87260861944E+02  0.98660279793E+02  0.00000000000E+00 0.  1.
         11    1    3    3    0    0  0.31015434466E+02  0.20560716469E+02  0.18040276986E+03  0.18420059612E+03  0.00000000000E+00 0. -1.
        -13    1    4    4    0    0 -0.50834775104E+02  0.10836399717E+02  0.26681249693E+03  0.27182808986E+03  0.00000000000E+00 0.  1.
         13    1    4    4    0    0  0.32756212713E+02  0.99259557807E+01  0.84274425536E+02  0.90959732128E+02  0.00000000000E+00 0. -1.
          3    1    1    2  501    0  0.22341649568E+02 -0.11745737873E+02  0.13730836941E+03  0.13960909704E+03  0.00000000000E+00 0. -1.
<scales pt_clust_5="13000.00000" pt_clust_6="13000.00000" pt_clust_7="13000.00000" pt_clust_8="13000.00000" pt_clust_9="25.24107"></scales>
<clustering>
<clus scale="   25.241">  1  9  2 -1</clus>
<clus scale="   87.150">  7  8 -1 -1</clus>
<clus scale="   88.457">  1  7  2 -1</clus>
<clus scale="   90.923">  5  6 -1 -1</clus>
<clus scale="   25.241">  1  5  2 -1</clus>
</clustering>
</event>
<event>
 9    1  0.1445593E-005  0.1076090E+03  0.7546771E-02  0.1265351E+00
          1   -1    0    0  502    0 -0.00000000000E+00  0.00000000000E+00  0.91915407820E+03  0.91915407820E+03  0.00000000000E+00 0. -1.
         21   -1    0    0  501  502  0.00000000000E+00 -0.00000000000E+00 -0.26902673251E+02  0.26902673251E+02  0.00000000000E+00 0. -1.
         23    2    1    2    0    0 -0.26184843649E+02  0.21758050503E+02  0.27058391311E+03  0.28737410919E+03  0.90604446897E+02 0.  0.
         23    2    1    2    0    0  0.94947230332E+02 -0.31602903829E+02  0.29366832628E+03  0.32340866540E+03  0.91314615010E+02 0.  0.
        -11    1    4    4    0    0  0.67616466651E+02 -0.59038659022E+02  0.15184207901E+03  0.17639038176E+03  0.00000000000E+00 0.  1.
         11    1    4    4    0    0  0.27330763681E+02  0.27435755193E+02  0.14182624728E+03  0.14701828363E+03  0.00000000000E+00 0. -1.
        -13    1    3    3    0    0  0.32296792456E+02 -0.31548474894E+01  0.10929645597E+03  0.11401206583E+03  0.00000000000E+00 0. -1.
         13    1    3    3    0    0 -0.58481636106E+02  0.24912897992E+02  0.16128745714E+03  0.17336204336E+03  0.00000000000E+00 0.  1.
          1    1    1    2  501    0 -0.68762386682E+02  0.98448533258E+01  0.32799916555E+03  0.33527397686E+03  0.00000000000E+00 0. -1.
<scales pt_clust_5="13000.00000" pt_clust_6="13000.00000" pt_clust_7="13000.00000" pt_clust_8="13000.00000" pt_clust_9="69.46360"></scales>
<clustering>
<clus scale="   69.464">  2  9  1 -1</clus>
<clus scale="   90.604">  7  8 -1 -1</clus>
<clus scale="   91.315">  5  6 -1 -1</clus>
<clus scale="  107.007">  1  7  2 -1</clus>
<clus scale="   69.464">  2  5  1 -1</clus>
</clustering>
</event>
<event>
 9    1  0.1445593E-005  0.1184982E+03  0.7546771E-02  0.1248620E+00
         -3   -1    0    0    0  501 -0.00000000000E+00  0.00000000000E+00  0.27052523152E+03  0.27052523152E+03  0.00000000000E+00 0.  1.
         21   -1    0    0  501  502  0.00000000000E+00 -0.00000000000E+00 -0.15941639752E+03  0.15941639752E+03  0.00000000000E+00 0.  1.
         23    2    1    2    0    0  0.76154126937E+02 -0.21799593916E+02  0.18155882691E+03  0.21524989947E+03  0.84227301084E+02 0.  0.
         23    2    1    2    0    0 -0.56392295046E+02  0.12474739668E+02  0.28508496145E+02  0.11334941135E+03  0.93271885535E+02 0.  0.
        -11    1    3    3    0    0  0.47839095304E+02  0.16630855481E+02  0.36201698790E+02  0.62255340244E+02  0.00000000000E+00 0. -1.
         11    1    3    3    0    0  0.28315031632E+02 -0.38430449397E+02  0.14535712812E+03  0.15299455922E+03  0.00000000000E+00 0.  1.
        -13    1    4    4    0    0 -0.23299515185E+02 -0.35530076945E+02  0.34507015758E+02  0.54735618313E+02  0.00000000000E+00 0.  1.
         13    1    4    4    0    0 -0.33092779861E+02  0.48004816613E+02 -0.59985196124E+01  0.58613793040E+02  0.00000000000E+00 0. -1.
         -3    1    1    2    0  502 -0.19761831890E+02  0.93248542482E+01 -0.98958489057E+02  0.10134231822E+03  0.00000000000E+00 0.  1.
<scales pt_clust_5="13000.00000" pt_clust_6="13000.00000" pt_clust_7="13000.00000" pt_clust_8="13000.00000" pt_clust_9="21.85138"></scales>
<clustering>
<clus scale="   21.851">  2  9  1 -1</clus>
<clus scale="   84.227">  5  6 -1 -1</clus>
<clus scale="   93.272">  7  8 -1 -1</clus>
<clus scale="  111.519">  1  5  2 -1</clus>
<clus scale="   21.851">  2  5  1 -1</clus>
</clustering>
</event>
<event>
 9    1  0.1445593E-005  0.1350231E+03  0.7546771E-02  0.1220405E+00
          1   -1    0    0  502    0 -0.00000000000E+00  0.00000000000E+00  0.26911895687E+03  0.26911895687E+03  0.00000000000E+00 0. -1.
         21   -1    0    0  501  502  0.00000000000E+00 -0.00000000000E+00 -0.26779335554E+03  0.26779335554E+03  0.00000000000E+00 0. -1.
         23    2    1    2    0    0  0.89763883115E+02  0.14443457731E+02  0.83095792287E+02  0.15321365207E+03  0.91122688185E+02 0.  0.
         23    2    1    2    0    0 -0.91054606852E+02 -0.65748464321E+02  0.11191744317E+03  0.18332708231E+03  0.92029902925E+02 0.  0.
        -13    1    4    4    0    0 -0.15290525032E+02 -0.32262626190E+02 -0.89423340186E+01  0.36805468916E+02  0.00000000000E+00 0.  1.
         13    1    4    4    0    0 -0.75764081820E+02 -0.33485838132E+02  0.12085977718E+03  0.14652161339E+03  0.00000000000E+00 0. -1.
        -13    1    3    3    0    0  0.39684525521E+02  0.46171750149E+02  0.14568850415E+02  0.62601465478E+02  0.00000000000E+00 0.  1.
         13    1    3    3    0    0  0.50079357594E+02 -0.31728292418E+02  0.68526941872E+02  0.90612186593E+02  0.00000000000E+00 0. -1.
          1    1    1    2  501    0  0.12907237372E+01  0.51305006591E+02 -0.19368763412E+03  0.20037157803E+03  0.00000000000E+00 0. -1.
<scales pt_clust_5="13000.00000" pt_clust_6="13000.00000" pt_clust_7="13000.00000" pt_clust_8="13000.00000" pt_clust_9="51.32124"></scales>
<clustering>
<clus scale="   51.321">  2  9  1 -1</clus>
<clus scale="   91.123">  7  8 -1 -1</clus>
<clus scale="   92.030">  5  6 -1 -1</clus>
<clus scale="  134.406">  1  7  2 -1</clus>
<clus scale="   51.321">  2  5  1 -1</clus>
</clustering>
</event>
<event>
 9    1  0.1445593E-005  0.9886208E+02  0.7546771E-02  0.1284516E+00
          2   -1    0    0  502    0 -0.00000000000E+00  0.00000000000E+00  0.22639286385E+03  0.22639286385E+03  0.00000000000E+00 0. -1.
         21   -1    0    0  501  502  0.00000000000E+00 -0.00000000000E+00 -0.18822409733E+03  0.18822409733E+03  0.00000000000E+00 0. -1.
         23    2    1    2    0    0  0.26565306797E+02  0.27878862877E+02  0.14254617331E+03  0.17558597668E+03  0.95016194211E+02 0.  0.
         23    2    1    2    0    0 -0.12299435132E+02  0.64961035165E+01  0.31761779193E+02  0.97896185923E+02  0.91549861471E+02 0.  0.
        -11    1    3    3    0    0  0.55476563771E+02 -0.46807501074E+01  0.57472560787E+02  0.80016584486E+02  0.00000000000E+00 0.  1.
         11    1    3    3    0    0 -0.28911256974E+02  0.32559612985E+02  0.85073612519E+02  0.95569392195E+02  0.00000000000E+00 0. -1.
        -13    1    4    4    0    0  0.35202204090E+02  0.21938089996E+02  0.67119540279E+01  0.42018154319E+02  0.00000000000E+00 0.  1.
         13    1    4    4    0    0 -0.47501639222E+02 -0.15441986480E+02  0.25049825165E+02  0.55878031604E+02  0.00000000000E+00 0. -1.
          2    1    1    2  501    0 -0.14265871666E+02 -0.34374966394E+02 -0.13613918598E+03  0.14113479858E+03  0.00000000000E+00 0. -1.
<scales pt_clust_5="13000.00000" pt_clust_6="13000.00000" pt_clust_7="13000.00000" pt_clust_8="13000.00000" pt_clust_9="37.21765"></scales>
<clustering>
<clus scale="   37.218">  2  9  1 -1</clus>
<clus scale="   91.550">  7  8 -1 -1</clus>
<clus scale="   95.016">  5  6 -1 -1</clus>
<clus scale="   95.535">  2  7  1 -1</clus>
<clus scale="   37.218">  2  5  1 -1</clus>
</clustering>
</event>
<event>
 9    1  0.1445593E-005  0.1054368E+03  0.7546771E-02  0.1271721E+00
         21   -1    0    0  501  502  0.00000000000E+00  0.00000000000E+00  0.29072525444E+03  0.29072525444E+03  0.00000000000E+00 0. -1.
          2   -1    0    0  502    0 -0.00000000000E+00 -0.00000000000E+00 -0.56893330611E+02  0.56893330611E+02  0.00000000000E+00 0. -1.
         23    2    1    2    0    0 -0.52038614352E+02 -0.13329809438E+02  0.59240955656E+02  0.12486090351E+03  0.95890839996E+02 0.  0.
         23    2    1    2    0    0  0.33129866183E+02  0.27276873595E+01  0.78682658783E+02  0.12442991558E+03  0.90481018922E+02 0.  0.
        -11    1    4    4    0    0  0.58624782706E+02 -0.48434827955E+01  0.78168422998E+02  0.97829580531E+02  0.00000000000E+00 0.  1.
         11    1    4    4    0    0 -0.25494916523E+02  0.75711701551E+01  0.51423578466E+00  0.26600335044E+02  0.00000000000E+00 0. -1.
        -13    1    3    3    0    0  0.24069947670E+02  0.14114896967E+02  0.77494755433E+01  0.28959403799E+02  0.00000000000E+00 0.  1.
         13    1    3    3    0    0 -0.76108562021E+02 -0.27444706405E+02  0.51491480113E+02  0.95901499711E+02  0.00000000000E+00 0. -1.
          2    1    1    2  501    0  0.18908748168E+02  0.10602122078E+02  0.95908309388E+02  0.98327765964E+02  0.00000000000E+00 0. -1.
<scales pt_clust_5="13000.00000" pt_clust_6="13000.00000" pt_clust_7="13000.00000" pt_clust_8="13000.00000" pt_clust_9="21.67823"></scales>
<clustering>
<clus scale="   21.678">  1  9  2 -1</clus>
<clus scale="   90.481">  5  6 -1 -1</clus>
<clus scale="   95.891">  7  8 -1 -1</clus>
<clus scale="  100.542">  1  5  2 -1</clus>
<clus scale="   21.678">  1  5  2 -1</clus>
</clustering>
</event>
<event>
 9    1  0.1445593E-005  0.9430055E+02  0.7546771E-02  0.1293895E+00
         21   -1    0    0  501  502  0.00000000000E+00  0.00000000000E+00  0.14132454304E+03  0.14132454304E+03  0.00000000000E+00 0. -1.
         -1   -1    0    0    0  501 -0.00000000000E+00 -0.00000000000E+00 -0.33324135807E+03  0.33324135807E+03  0.00000000000E+00 0.  1.
         23    2    1    2    0    0  0.13222396666E+02  0.10950897427E+01 -0.28952001862E+03  0.30437906206E+03  0.92998608807E+02 0.  0.
         23    2    1    2    0    0 -0.41116871961E+02 -0.22384050711E+02  0.59438088540E+02  0.11834190084E+03  0.90996023210E+02 0.  0.
        -13    1    4    4    0    0 -0.30437098006E+02  0.12562785763E+02 -0.14413387163E+02  0.35944210253E+02  0.00000000000E+00 0.  1.
         13    1    4    4    0    0 -0.10679773955E+02 -0.34946836474E+02  0.73851475704E+02  0.82397690592E+02  0.00000000000E+00 0. -1.
        -13    1    3    3    0    0  0.43390759198E+02 -0.27252405717E+02 -0.18484774264E+03  0.19181798550E+03  0.00000000000E+00 0.  1.
         13    1    3    3    0    0 -0.30168362533E+02  0.28347495460E+02 -0.10467227598E+03  0.11256107655E+03  0.00000000000E+00 0. -1.
         -1    1    1    2    0  502  0.27894475296E+02  0.21288960968E+02  0.38165115047E+02  0.51844938207E+02  0.00000000000E+00 0.  1.
<scales pt_clust_5="13000.00000" pt_clust_6="13000.00000" pt_clust_7="13000.00000" pt_clust_8="13000.00000" pt_clust_9="35.09019"></scales>
<clustering>
<clus scale="   35.090">  1  9  2 -1</clus>
<clus scale="   90.996">  5  6 -1 -1</clus>
<clus scale="   92.326">  1  5  2 -1</clus>
<clus scale="   92.999">  7  8 -1 -1</clus>
<clus scale="   35.090">  1  5  2 -1</clus>
</clustering>
</event>
<event>
 9    1  0.1445593E-005  0.1245969E+03  0.7546771E-02  0.1236131E+00
          2   -1    0    0  502    0 -0.00000000000E+00  0.00000000000E+00  0.59011749638E+03  0.59011749638E+03  0.00000000000E+00 0. -1.
         21   -1    0    0  501  502  0.00000000000E+00 -0.00000000000E+00 -0.81695393465E+02  0.81695393465E+02  0.00000000000E+00 0.  1.
         23    2    1    2    0    0  0.83434802228E+02  0.84437993209E+01  0.39502884586E+03  0.41417796598E+03  0.91994208918E+02 0.  0.
         23    2    1    2    0    0 -0.85285270096E+02  0.12353537590E+02  0.16207604258E+03  0.20466354423E+03  0.90511521776E+02 0.  0.
        -11    1    3    3    0    0  0.14996319643E+02  0.22304587685E+02  0.22181827530E+02  0.34848496484E+02  0.00000000000E+00 0.  1.
         11    1    3    3    0    0  0.68438482585E+02 -0.13860788364E+02  0.37284701833E+03  0.37932946950E+03  0.00000000000E+00 0. -1.
        -13    1    4    4    0    0  0.37196256191E+01 -0.20256046202E+02  0.68250431318E+02  0.71290002087E+02  0.00000000000E+00 0. -1.
         13    1    4    4    0    0 -0.89004895716E+02  0.32609583792E+02  0.93825611260E+02  0.13337354215E+03  0.00000000000E+00 0.  1.
          2    1    1    2  501    0  0.18504678681E+01 -0.20797336910E+02 -0.48682785521E+02  0.52971379630E+02  0.00000000000E+00 0. -1.
<scales pt_clust_5="13000.00000" pt_clust_6="13000.00000" pt_clust_7="13000.00000" pt_clust_8="13000.00000" pt_clust_9="20.87950"></scales>
<clustering>
<clus scale="   20.879">  2  9  1 -1</clus>
<clus scale="   90.512">  7  8 -1 -1</clus>
<clus scale="   91.994">  5  6 -1 -1</clus>
<clus scale="  123.506">  2  7  1 -1</clus>
<clus scale="   20.879">  2  5  1 -1</clus>
</clustering>
</event>
<event>
 9    1  0.1445593E-005  0.9060264E+02  0.7546771E-02  0.1304997E+00
          3   -1    0    0  502    0 -0.00000000000E+00  0.00000000000E+00  0.43220344251E+02  0.43220344251E+02  0.00000000000E+00 0. -1.
         21   -1    0    0  501  502  0.00000000000E+00 -0.00000000000E+00 -0.37846118473E+03  0.37846118473E+03  0.00000000000E+00 0.  1.
         23    2    1    2    0    0  0.74023194538E+01  0.46944092219E+01 -0.53362986908E+02  0.99379553140E+02  0.83377787206E+02 0.  0.
         23    2    1    2    0    0  0.17226245073E+02 -0.33747896901E+02 -0.11171561796E+03  0.14792922062E+03  0.89258114201E+02 0.  0.
        -11    1    4    4    0    0 -0.15661648297E+02 -0.54047051062E+02 -0.50922251424E+02  0.75891018216E+02  0.00000000000E+00 0. -1.
         11    1    4    4    0    0  0.32887893369E+02  0.20299154160E+02 -0.60793366538E+02  0.72038202400E+02  0.00000000000E+00 0.  1.
        -13    1    3    3    0    0  0.16382083418E+02 -0.30792136761E+02 -0.52169589985E+02  0.62755035357E+02  0.00000000000E+00 0.  1.
         13    1    3    3    0    0 -0.89797639639E+01  0.35486545983E+02 -0.11933969227E+01  0.36624517783E+02  0.00000000000E+00 0. -1.
          3    1    1    2  501    0 -0.24628564527E+02  0.29053487680E+02 -0.17016223561E+03  0.17437275522E+03  0.00000000000E+00 0. -1.
<scales pt_clust_5="13000.00000" pt_clust_6="13000.00000" pt_clust_7="13000.00000" pt_clust_8="13000.00000" pt_clust_9="38.08768"></scales>
<clustering>
<clus scale="   38.088">  2  9  1 -1</clus>
<clus scale="   83.378">  7  8 -1 -1</clus>
<clus scale="   84.816">  1  7  2 -1</clus>
<clus scale="   89.258">  5  6 -1 -1</clus>
<clus scale="   38.088">  2  5  1 -1</clus>
</clustering>
</event>
<event>
 9    1  0.1445593E-005  0.9547938E+02  0.7546771E-02  0.1290559E+00
          1   -1    0    0  502    0 -0.00000000000E+00  0.00000000000E+00  0.47423731981E+03  0.47423731981E+03  0.00000000000E+00 0. -1.
         21   -1    0    0  501  502  0.00000000000E+00 -0.00000000000E+00 -0.31061740255E+02  0.31061740255E+02  0.00000000000E+00 0.  1.
         23    2    1    2    0    0 -0.23755948822E+02  0.27340993884E+02  0.28416120435E+03  0.30043652072E+03  0.90568415434E+02 0.  0.
         23    2    1    2    0    0  0.12601647917E+02 -0.74412144077E+01  0.15660058625E+03  0.18192248640E+03  0.91421410194E+02 0.  0.
        -11    1    4    4    0    0  0.35023054259E+02  0.14975557734E+01  0.14748179298E+02  0.38031116149E+02  0.00000000000E+00 0.  1.
         11    1    4    4    0    0 -0.22421406342E+02 -0.89387701811E+01  0.14185240695E+03  0.14389137025E+03  0.00000000000E+00 0. -1.
        -13    1    3    3    0    0 -0.12445913497E+02  0.59364544110E+02  0.21491365136E+03  0.22330904012E+03  0.00000000000E+00 0. -1.
         13    1    3    3    0    0 -0.11310035325E+02 -0.32023550226E+02  0.69247552992E+02  0.77127480599E+02  0.00000000000E+00 0.  1.
          1    1    1    2  501    0  0.11154300906E+02 -0.19899779477E+02  0.24137889530E+01  0.22940052943E+02  0.00000000000E+00 0. -1.
<scales pt_clust_5="13000.00000" pt_clust_6="13000.00000" pt_clust_7="13000.00000" pt_clust_8="13000.00000" pt_clust_9="22.81271"></scales>
<clustering>
<clus scale="   22.813">  2  9  1 -1</clus>
<clus scale="   90.568">  7  8 -1 -1</clus>
<clus scale="   91.421">  5  6 -1 -1</clus>
<clus scale="   94.663">  1  7  2 -1</clus>
<clus scale="   22.813">  2  5  1 -1</clus>
</clustering>
</event>
<event>
 9    1  0.1445593E-005  0.1456043E+03  0.7546771E-02  0.1219289E+00
         -2   -1    0    0    0  501 -0.00000000000E+00  0.00000000000E+00  0.20566514066E+03  0.20566514066E+03  0.00000000000E+00 0.  1.
         21   -1    0    0  501  502  0.00000000000E+00 -0.00000000000E+00 -0.21763775337E+03  0.21763775337E+03  0.00000000000E+00 0.  1.
         23    2    1    2    0    0  0.62908235260E+02 -0.14258758353E+02  0.84164962650E+02  0.13828624631E+03  0.88761403369E+02 0.  0.
         23    2    1    2    0    0 -0.10588572516E+02  0.11944974372E+03 -0.64046716117E+02  0.16322866079E+03  0.90339663021E+02 0.  0.
        -11    1    3    3    0    0 -0.15793382984E+02  0.17120806865E+02  0.88281207762E+01  0.24909610399E+02  0.00000000000E+00 0. -1.
         11    1    3    3    0    0  0.78701618244E+02 -0.31379565218E+02  0.75336841874E+02  0.11337663591E+03  0.00000000000E+00 0.  1.
        -11    1    4    4    0    0  0.32167139204E+02  0.82839976512E+02 -0.59099791643E+02  0.10672381143E+03  0.00000000000E+00 0.  1.
         11    1    4    4    0    0 -0.42755711720E+02  0.36609767212E+02 -0.49469244738E+01  0.56504849365E+02  0.00000000000E+00 0. -1.
         -2    1    1    2    0  502 -0.52319662744E+02 -0.10519098537E+03 -0.32090859238E+02  0.12178798693E+03  0.00000000000E+00 0.  1.
<scales pt_clust_5="13000.00000" pt_clust_6="13000.00000" pt_clust_7="13000.00000" pt_clust_8="13000.00000" pt_clust_9="114.19003"></scales>
<clustering>
<clus scale="   88.761">  5  6 -1 -1</clus>
<clus scale="   90.340">  7  8 -1 -1</clus>
<clus scale="  109.724">  1  5  2 -1</clus>
<clus scale="  114.190">  2  9  1 -1</clus>
<clus scale="  114.190">  2  5  1 -1</clus>
</clustering>
</event>
<event>
 9    1  0.1445593E-005  0.2577983E+03  0.7546771E-02  0.1108694E+00
          2   -1    0    0  502    0 -0.00000000000E+00  0.00000000000E+00  0.88268225732E+03  0.88268225732E+03  0.00000000000E+00 0. -1.
         21   -1    0    0  501  502  0.00000000000E+00 -0.00000000000E+00 -0.26559374674E+03  0.26559374674E+03  0.00000000000E+00 0. -1.
         23    2    1    2    0    0 -0.18156840822E+03 -0.84989679005E+02  0.32764751890E+03  0.39423765061E+03  0.88769905485E+02 0.  0.
         23    2    1    2    0    0  0.20792222953E+03  0.27526349108E+03  0.39684544773E+03  0.53396026585E+03  0.92874178727E+02 0.  0.
        -11    1    3    3    0    0 -0.13283964476E+03 -0.14600857933E+02  0.19975708012E+03  0.24033819366E+03  0.00000000000E+00 0. -1.
         11    1    3    3    0    0 -0.48728763459E+02 -0.70388821072E+02  0.12789043878E+03  0.15389945696E+03  0.00000000000E+00 0.  1.
        -11    1    4    4    0    0  0.62659402049E+02  0.15859184472E+03  0.20247143551E+03  0.26471164703E+03  0.00000000000E+00 0. -1.
         11    1    4    4    0    0  0.14526282748E+03  0.11667164636E+03  0.19437401222E+03  0.26924861882E+03  0.00000000000E+00 0.  1.
          2    1    1    2  501    0 -0.26353821304E+02 -0.19027381208E+03 -0.10740445605E+03  0.22007808759E+03  0.00000000000E+00 0. -1.
<scales pt_clust_5="13000.00000" pt_clust_6="13000.00000" pt_clust_7="13000.00000" pt_clust_8="13000.00000" pt_clust_9="192.09021"></scales>
<clustering>
<clus scale="   88.770">  5  6 -1 -1</clus>
<clus scale="   92.874">  7  8 -1 -1</clus>
<clus scale="  192.090">  2  9  1 -1</clus>
<clus scale="  256.348">  1  5  2 -1</clus>
<clus scale="  192.090">  2  5  1 -1</clus>
</clustering>
</event>
<event>
 9    1  0.1445593E-005  0.9673696E+02  0.7546771E-02  0.1288582E+00
         21   -1    0    0  501  502  0.00000000000E+00  0.00000000000E+00  0.35016737651E+02  0.35016737651E+02  0.00000000000E+00 0.  1.
          1   -1    0    0  502    0 -0.00000000000E+00 -0.00000000000E+00 -0.55451914943E+03  0.55451914943E+03  0.00000000000E+00 0. -1.
         23    2    1    2    0    0  0.17691744800E+02 -0.29318277044E+02 -0.38162233519E+03  0.39344220065E+03  0.89378964720E+02 0.  0.
         23    2    1    2    0    0  0.59842910150E+01  0.26653850075E+02 -0.14263153429E+03  0.17179903284E+03  0.91787328351E+02 0.  0.
        -11    1    4    4    0    0  0.25728398201E+02 -0.25292091200E+02 -0.33031516829E+02  0.48915452112E+02  0.00000000000E+00 0.  1.
         11    1    4    4    0    0 -0.19744107186E+02  0.51945941276E+02 -0.10960001747E+03  0.12288358073E+03  0.00000000000E+00 0. -1.
        -13    1    3    3    0    0  0.45506432426E+02 -0.36234092620E+02 -0.32290850045E+03  0.32810614825E+03  0.00000000000E+00 0.  1.
         13    1    3    3    0    0 -0.27814687626E+02  0.69158155760E+01 -0.58713834745E+02  0.65336052401E+02  0.00000000000E+00 0. -1.
          1    1    1    2  501    0 -0.23676035815E+02  0.26644269684E+01  0.47514577035E+01  0.24294653595E+02  0.00000000000E+00 0. -1.
<scales pt_clust_5="13000.00000" pt_clust_6="13000.00000" pt_clust_7="13000.00000" pt_clust_8="13000.00000" pt_clust_9="23.82549"></scales>
<clustering>
<clus scale="   23.825">  1  9  2 -1</clus>
<clus scale="   89.379">  7  8 -1 -1</clus>
<clus scale="   91.787">  5  6 -1 -1</clus>
<clus scale="   94.455">  2  7  1 -1</clus>
<clus scale="   23.825">  1  5  2 -1</clus>
</clustering>
</event>
<event>
 9    1  0.1445593E-005  0.1427990E+03  0.7546771E-02  0.1213408E+00
         21   -1    0    0  501  502  0.00000000000E+00  0.00000000000E+00  0.62961337745E+02  0.62961337745E+02  0.00000000000E+00 0. -1.
          2   -1    0    0  502    0 -0.00000000000E+00 -0.00000000000E+00 -0.49582647573E+03  0.49582647573E+03  0.00000000000E+00 0. -1.
         23    2    1    2    0    0  0.19186194888E+02 -0.94236549954E+02 -0.32973886318E+03  0.35945162468E+03  0.10596751942E+03 0.  0.
         23    2    1    2    0    0 -0.52702164823E+02  0.83937928335E+02 -0.91415522729E+02  0.16236966932E+03  0.90465561021E+02 0.  0.
        -11    1    4    4    0    0 -0.20095190766E+02  0.80230011772E+01  0.15959413415E+02  0.26886578741E+02  0.00000000000E+00 0.  1.
         11    1    4    4    0    0 -0.32606974056E+02  0.75914927158E+02 -0.10737493614E+03  0.13548309058E+03  0.00000000000E+00 0. -1.
        -13    1    3    3    0    0 -0.52386901483E+01 -0.42003571677E+02 -0.24695419315E+02  0.49006200049E+02  0.00000000000E+00 0.  1.
         13    1    3    3    0    0  0.24424885036E+02 -0.52232978276E+02 -0.30504344386E+03  0.31044542463E+03  0.00000000000E+00 0. -1.
          2    1    1    2  501    0  0.33515969935E+02  0.10298621619E+02 -0.11710752082E+02  0.36966519477E+02  0.00000000000E+00 0. -1.
<scales pt_clust_5="13000.00000" pt_clust_6="13000.00000" pt_clust_7="13000.00000" pt_clust_8="13000.00000" pt_clust_9="35.06254"></scales>
<clustering>
<clus scale="   35.063">  1  9  2 -1</clus>
<clus scale="   90.466">  5  6 -1 -1</clus>
<clus scale="  105.968">  7  8 -1 -1</clus>
<clus scale="  131.706">  1  5  2 -1</clus>
<clus scale="   35.063">  1  5  2 -1</clus>
</clustering>
</event>
<event>
 9    1  0.1445593E-005  0.9356653E+02  0.7546771E-02  0.1295421E+00
         21   -1    0    0  501  502  0.00000000000E+00  0.00000000000E+00  0.79756405816E+02  0.79756405816E+02  0.00000000000E+00 0. -1.
         -3   -1    0    0    0  501 -0.00000000000E+00 -0.00000000000E+00 -0.17478958528E+03  0.17478958528E+03  0.00000000000E+00 0.  1.
         23    2    1    2    0    0 -0.70745604057E+00 -0.51595283970E+01 -0.46269556617E+02  0.10094945395E+03  0.89570079579E+02 0.  0.
         23    2    1    2    0    0 -0.19619184720E+02  0.40416822555E+02 -0.19865588009E+02  0.10368315684E+03  0.91307850000E+02 0.  0.
        -11    1    3    3    0    0  0.10802925213E-01  0.42215940046E+02 -0.24458484140E+02  0.48789375453E+02  0.00000000000E+00 0. -1.
         11    1    3    3    0    0 -0.71825896578E+00 -0.47375468443E+02 -0.21811072478E+02  0.52160078496E+02  0.00000000000E+00 0.  1.
        -13    1    4    4    0    0 -0.19161209675E+02 -0.19852160579E+02 -0.31948332489E+02  0.42213222866E+02  0.00000000000E+00 0.  1.
         13    1    4    4    0    0 -0.45797504514E+00  0.60268983134E+02  0.12082744481E+02  0.61469933978E+02  0.00000000000E+00 0. -1.
         -3    1    1    2    0  502  0.20326640761E+02 -0.35257294158E+02 -0.28898034843E+02  0.49913380308E+02  0.00000000000E+00 0.  1.
<scales pt_clust_5="13000.00000" pt_clust_6="13000.00000" pt_clust_7="13000.00000" pt_clust_8="13000.00000" pt_clust_9="40.69706"></scales>
<clustering>
<clus scale="   40.697">  1  9  2 -1</clus>
<clus scale="   89.570">  5  6 -1 -1</clus>
<clus scale="   91.308">  7  8 -1 -1</clus>
<clus scale="   91.871">  2  5  1 -1</clus>
<clus scale="   40.697">  1  5  2 -1</clus>
</clustering>
</event>
<event>
 9    1  0.1445593E-005  0.1189318E+03  0.7546771E-02  0.1257819E+00
         21   -1    0    0  501  502  0.00000000000E+00  0.00000000000E+00  0.46493632795E+03  0.46493632795E+03  0.00000000000E+00 0.  1.
          4   -1    0    0  502    0 -0.00000000000E+00 -0.00000000000E+00 -0.68382204942E+02  0.68382204942E+02  0.00000000000E+00 0. -1.
         23    2    1    2    0    0  0.24062675464E+02 -0.25507119106E+02  0.20334371697E+02  0.88602400184E+02  0.78786249882E+02 0.  0.
         23    2    1    2    0    0 -0.18472881222E+02  0.96597952950E+02  0.16083606347E+03  0.21783447756E+03  0.10913848288E+03 0.  0.
        -11    1    4    4    0    0 -0.59722742281E+01  0.28816795261E+02  0.14387502739E+03  0.14685400660E+03  0.00000000000E+00 0.  1.
         11    1    4    4    0    0 -0.12500606994E+02  0.67781157690E+02  0.16961036089E+02  0.70980470963E+02  0.00000000000E+00 0. -1.
        -11    1    3    3    0    0 -0.28856901721E+02 -0.66486048505E+01  0.11328005459E+02  0.31705652983E+02  0.00000000000E+00 0. -1.
         11    1    3    3    0    0  0.52919577184E+02 -0.18858514256E+02  0.90063662385E+01  0.56896747202E+02  0.00000000000E+00 0.  1.
          4    1    1    2  501    0 -0.55897942415E+01 -0.71090833844E+02  0.21538368784E+03  0.22688165515E+03  0.00000000000E+00 0. -1.
<scales pt_clust_5="13000.00000" pt_clust_6="13000.00000" pt_clust_7="13000.00000" pt_clust_8="13000.00000" pt_clust_9="71.31025"></scales>
<clustering>
<clus scale="   71.310">  1  9  2 -1</clus>
<clus scale="   78.786">  7  8 -1 -1</clus>
<clus scale="   91.874">  2  7  1 -1</clus>
<clus scale="  109.138">  5  6 -1 -1</clus>
<clus scale="   71.310">  1  5  2 -1</clus>
</clustering>
</event>
<event>
 9    1  0.1445593E-005  0.1063174E+03  0.7546771E-02  0.1270158E+00
         -1   -1    0    0    0  501 -0.00000000000E+00  0.00000000000E+00  0.14061931205E+03  0.14061931205E+03  0.00000000000E+00 0.  1.
         21   -1    0    0  501  502  0.00000000000E+00 -0.00000000000E+00 -0.16650889411E+03  0.16650889411E+03  0.00000000000E+00 0. -1.
         23    2    1    2    0    0  0.31476620979E+02 -0.37466611704E+02  0.80605740335E+02  0.12785353743E+03  0.86340703013E+02 0.  0.
         23    2    1    2    0    0 -0.33764783487E+02  0.63840843011E+02 -0.92145645395E+02  0.14916239557E+03  0.92427736349E+02 0.  0.
        -11    1    4    4    0    0 -0.12888784675E+02  0.84286856225E+02 -0.81813887489E+02  0.11816897685E+03  0.00000000000E+00 0.  1.
         11    1    4    4    0    0 -0.20875998812E+02 -0.20446013215E+02 -0.10331757906E+02  0.30993418724E+02  0.00000000000E+00 0. -1.
        -13    1    3    3    0    0 -0.12145224676E+02 -0.37848211107E+02  0.43299460931E+01  0.39984271903E+02  0.00000000000E+00 0. -1.
         13    1    3    3    0    0  0.43621845655E+02  0.38159940268E+00  0.76275794242E+02  0.87869265524E+02  0.00000000000E+00 0.  1.
         -1    1    1    2    0  502  0.22881625086E+01 -0.26374231306E+02 -0.14349677003E+02  0.30112273158E+02  0.00000000000E+00 0.  1.
<scales pt_clust_5="13000.00000" pt_clust_6="13000.00000" pt_clust_7="13000.00000" pt_clust_8="13000.00000" pt_clust_9="26.47330"></scales>
<clustering>
<clus scale="   26.473">  2  9  1 -1</clus>
<clus scale="   86.341">  7  8 -1 -1</clus>
<clus scale="   92.428">  5  6 -1 -1</clus>
<clus scale="  101.070">  1  7  2 -1</clus>
<clus scale="   26.473">  2  5  1 -1</clus>
</clustering>
</event>
<event>
 9    1  0.1445593E-005  0.1607155E+03  0.7546771E-02  0.1212686E+00
         21   -1    0    0  501  502  0.00000000000E+00  0.00000000000E+00  0.58872829081E+03  0.58872829081E+03  0.00000000000E+00 0.  1.
         -1   -1    0    0    0  501 -0.00000000000E+00 -0.00000000000E+00 -0.20252036085E+03  0.20252036085E+03  0.00000000000E+00 0.  1.
         23    2    1    2    0    0 -0.21013222048E+02 -0.13697778574E+02 -0.23540281216E+02  0.96723567914E+02  0.90399773847E+02 0.  0.
         23    2    1    2    0    0  0.13433683099E+03  0.77250106363E+02 -0.72945931010E+02  0.19465032581E+03  0.92486092976E+02 0.  0.
        -13    1    4    4    0    0  0.23700763107E+01  0.39923666218E+02 -0.32877062706E+02  0.51772749958E+02  0.00000000000E+00 0. -1.
         13    1    4    4    0    0  0.13196675468E+03  0.37326440145E+02 -0.40068868304E+02  0.14287757585E+03  0.00000000000E+00 0.  1.
        -13    1    3    3    0    0 -0.21345215319E+02  0.63205476105E+01 -0.55055914334E+02  0.59386204141E+02  0.00000000000E+00 0. -1.
         13    1    3    3    0    0  0.33199327141E+00 -0.20018326184E+02  0.31515633117E+02  0.37337363773E+02  0.00000000000E+00 0.  1.
         -1    1    1    2    0  502 -0.11332360894E+03 -0.63552327789E+02  0.48269414219E+03  0.49987475793E+03  0.00000000000E+00 0.  1.
<scales pt_clust_5="13000.00000" pt_clust_6="13000.00000" pt_clust_7="13000.00000" pt_clust_8="13000.00000" pt_clust_9="131.43741"></scales>
<clustering>
<clus scale="   90.400">  7  8 -1 -1</clus>
<clus scale="   92.486">  5  6 -1 -1</clus>
<clus scale="   93.815">  2  7  1 -1</clus>
<clus scale="  131.437">  1  9  2 -1</clus>
<clus scale="  131.437">  1  5  2 -1</clus>
</clustering>
</event>
<event>
 9    1  0.1445593E-005  0.1482273E+03  0.7546771E-02  0.1210380E+00
         21   -1    0    0  501  502  0.00000000000E+00  0.00000000000E+00  0.58393092588E+02  0.58393092588E+02  0.00000000000E+00 0. -1.
          2   -1    0    0  502    0 -0.00000000000E+00 -0.00000000000E+00 -0.70580209444E+03  0.70580209444E+03  0.00000000000E+00 0. -1.
         23    2    1    2    0    0  0.85342747682E+02  0.26188982836E+02 -0.58499825014E+03  0.60392823119E+03  0.12056993140E+03 0.  0.
         23    2    1    2    0    0 -0.67208650440E+02 -0.36463595626E+02 -0.69912841460E+02  0.13811533059E+03  0.91331498636E+02 0.  0.
        -13    1    3    3    0    0 -0.15268238187E+02  0.15147426932E+02 -0.18231868407E+02  0.28195117762E+02  0.00000000000E+00 0.  1.
         13    1    3    3    0    0  0.10061098587E+03  0.11041555904E+02 -0.56676638173E+03  0.57573311343E+03  0.00000000000E+00 0. -1.
        -13    1    4    4    0    0  0.19941247167E+02 -0.57554447423E+01 -0.32209185816E+02  0.38317230245E+02  0.00000000000E+00 0.  1.
         13    1    4    4    0    0 -0.87149897607E+02 -0.30708150884E+02 -0.37703655644E+02  0.99798100345E+02  0.00000000000E+00 0. -1.
          2    1    1    2  501    0 -0.18134097242E+02  0.10274612791E+02  0.75020897440E+01  0.22151625252E+02  0.00000000000E+00 0. -1.
<scales pt_clust_5="13000.00000" pt_clust_6="13000.00000" pt_clust_7="13000.00000" pt_clust_8="13000.00000" pt_clust_9="20.84258"></scales>
<clustering>
<clus scale="   20.843">  1  9  2 -1</clus>
<clus scale="   91.331">  7  8 -1 -1</clus>
<clus scale="  120.570">  5  6 -1 -1</clus>
<clus scale="  125.601">  1  7  2 -1</clus>
<clus scale="   20.843">  1  5  2 -1</clus>
</clustering>
</event>
<event>
 9    1  0.1445593E-005  0.1084318E+03  0.7546771E-02  0.1265126E+00
         21   -1    0    0  501  502  0.00000000000E+00  0.00000000000E+00  0.51369462876E+03  0.51369462876E+03  0.00000000000E+00 0.  1.
          1   -1    0    0  502    0 -0.00000000000E+00 -0.00000000000E+00 -0.14377424393E+03  0.14377424393E+03  0.00000000000E+00 0. -1.
         23    2    1    2    0    0  0.34563887816E+02 -0.34686790965E+02 -0.10494857875E+03  0.15006887548E+03  0.95439129273E+02 0.  0.
         23    2    1    2    0    0 -0.64129940764E+02  0.45956579599E+02  0.22390902122E+03  0.25445325915E+03  0.91578134943E+02 0.  0.
        -11    1    4    4    0    0  0.21147437222E+02 -0.42228537828E+01  0.48107725573E+02  0.52720013799E+02  0.00000000000E+00 0. -1.
         11    1    4    4    0    0 -0.85277377985E+02  0.50179433382E+02  0.17580129564E+03  0.20173324535E+03  0.00000000000E+00 0.  1.
        -13    1    3    3    0    0  0.57295824167E+02 -0.14225131961E+02 -0.10385893913E+03  0.11946482780E+03  0.00000000000E+00 0. -1.
         13    1    3    3    0    0 -0.22731936350E+02 -0.20461659005E+02 -0.10896396281E+01  0.30604047673E+02  0.00000000000E+00 0.  1.
          1    1    1    2  501    0  0.29566052947E+02 -0.11269788634E+02  0.25095994237E+03  0.25294673806E+03  0.00000000000E+00 0. -1.
<scales pt_clust_5="13000.00000" pt_clust_6="13000.00000" pt_clust_7="13000.00000" pt_clust_8="13000.00000" pt_clust_9="31.64111"></scales>
<clustering>
<clus scale="   31.641">  1  9  2 -1</clus>
<clus scale="   91.578">  5  6 -1 -1</clus>
<clus scale="   95.439">  7  8 -1 -1</clus>
<clus scale="  105.049">  1  5  2 -1</clus>
<clus scale="   31.641">  1  5  2 -1</clus>
</clustering>
</event>
<event>
 9    1  0.1445593E-005  0.2318656E+03  0.7546771E-02  0.1125804E+00
         21   -1    0    0  501  502  0.00000000000E+00  0.00000000000E+00  0.71705289504E+03  0.71705289504E+03  0.00000000000E+00 0.  1.
         -2   -1    0    0    0  501 -0.00000000000E+00 -0.00000000000E+00 -0.17734656424E+03  0.17734656424E+03  0.00000000000E+00 0.  1.
         23    2    1    2    0    0  0.18137562663E+03 -0.15942523606E+03 -0.51199402478E+01  0.25766869747E+03  0.89740849326E+02 0.  0.
         23    2    1    2    0    0 -0.12907860543E+03  0.20075598262E+02  0.38761083554E+03  0.42023597401E+03  0.96393972832E+02 0.  0.
        -13    1    3    3    0    0  0.16529199198E+03 -0.95943734474E+02  0.61518654804E+01  0.19121843072E+03  0.00000000000E+00 0.  1.
         13    1    3    3    0    0  0.16083634658E+02 -0.63481501584E+02 -0.11271805728E+02  0.66450266753E+02  0.00000000000E+00 0. -1.
        -13    1    4    4    0    0 -0.80567463139E+01 -0.25309188258E+02  0.12184975279E+03  0.12471097957E+03  0.00000000000E+00 0.  1.
         13    1    4    4    0    0 -0.12102185912E+03  0.45384786520E+02  0.26576108275E+03  0.29552499444E+03  0.00000000000E+00 0. -1.
         -2    1    1    2    0  502 -0.52297021203E+02  0.13934963780E+03  0.15721543551E+03  0.21649478780E+03  0.00000000000E+00 0.  1.
<scales pt_clust_5="13000.00000" pt_clust_6="13000.00000" pt_clust_7="13000.00000" pt_clust_8="13000.00000" pt_clust_9="148.83985"></scales>
<clustering>
<clus scale="   89.741">  5  6 -1 -1</clus>
<clus scale="   96.394">  7  8 -1 -1</clus>
<clus scale="  148.840">  1  9  2 -1</clus>
<clus scale="  229.180">  2  5  1 -1</clus>
<clus scale="  148.840">  1  5  2 -1</clus>
</clustering>
</event>
<event>
 9    1  0.1445593E-005  0.9646752E+02  0.7546771E-02  0.1289502E+00
         -1   -1    0    0    0  501 -0.00000000000E+00  0.00000000000E+00  0.69663968263E+03  0.69663968263E+03  0.00000000000E+00 0.  1.
         21   -1    0    0  501  502  0.00000000000E+00 -0.00000000000E+00 -0.32033386549E+02  0.32033386549E+02  0.00000000000E+00 0. -1.
         23    2    1    2    0    0 -0.21525257045E+02  0.17066170209E+02  0.49561461743E+03  0.50517670344E+03  0.93888560673E+02 0.  0.
         23    2    1    2    0    0 -0.47432647845E+01 -0.17792691003E+02  0.17356945039E+03  0.19682205102E+03  0.90958711771E+02 0.  0.
        -11    1    3    3    0    0 -0.25246249985E+02  0.54108066430E+02  0.27118425734E+03  0.27767959489E+03  0.00000000000E+00 0. -1.
         11    1    3    3    0    0  0.37209929395E+01 -0.37041896220E+02  0.22443036010E+03  0.22749710855E+03  0.00000000000E+00 0.  1.
        -13    1    4    4    0    0  0.22994479083E+02  0.24227350788E+02  0.30802254133E+02  0.45436653202E+02  0.00000000000E+00 0. -1.
         13    1    4    4    0    0 -0.27737743867E+02 -0.42020041792E+02  0.14276719625E+03  0.15138539782E+03  0.00000000000E+00 0.  1.
         -1    1    1    2    0  502  0.26268521830E+02  0.72652079367E+00 -0.45777717415E+01  0.26674314718E+02  0.00000000000E+00 0.  1.
<scales pt_clust_5="13000.00000" pt_clust_6="13000.00000" pt_clust_7="13000.00000" pt_clust_8="13000.00000" pt_clust_9="26.27857"></scales>
<clustering>
<clus scale="   26.279">  2  9  1 -1</clus>
<clus scale="   90.959">  7  8 -1 -1</clus>
<clus scale="   93.618">  2  7  1 -1</clus>
<clus scale="   93.889">  5  6 -1 -1</clus>
<clus scale="   26.279">  2  5  1 -1</clus>
</clustering>
</event>
<event>
 9    1  0.1445593E-005  0.1724076E+03  0.7546771E-02  0.1175418E+00
          3   -1    0    0  502    0 -0.00000000000E+00  0.00000000000E+00  0.46446840113E+02  0.46446840113E+02  0.00000000000E+00 0. -1.
         21   -1    0    0  501  502  0.00000000000E+00 -0.00000000000E+00 -0.10627527070E+04  0.10627527070E+04  0.00000000000E+00 0. -1.
         23    2    1    2    0    0 -0.13836610067E+03  0.84154877154E+02 -0.26326520911E+03  0.32165011244E+03  0.89011254007E+02 0.  0.
         23    2    1    2    0    0  0.82572430617E+02 -0.10182833124E+03 -0.41176613973E+03  0.44129290944E+03  0.89447541923E+02 0.  0.
        -11    1    3    3    0    0 -0.66308220752E+02  0.85048351609E+02 -0.19250718872E+03  0.22065588585E+03  0.00000000000E+00 0.  1.
         11    1    3    3    0    0 -0.72057879918E+02 -0.89347445476E+00 -0.70758020391E+02  0.10099422659E+03  0.00000000000E+00 0. -1.
        -13    1    4    4    0    0  0.92417120295E+02 -0.52238945568E+02 -0.30973974062E+03  0.32742714988E+03  0.00000000000E+00 0. -1.
         13    1    4    4    0    0 -0.98446896774E+01 -0.49589385673E+02 -0.10202639911E+03  0.11386575956E+03  0.00000000000E+00 0.  1.
          3    1    1    2  501    0  0.55793670052E+02  0.17673454087E+02 -0.34127451804E+03  0.34625652523E+03  0.00000000000E+00 0. -1.
<scales pt_clust_5="13000.00000" pt_clust_6="13000.00000" pt_clust_7="13000.00000" pt_clust_8="13000.00000" pt_clust_9="58.52593"></scales>
<clustering>
<clus scale="   58.526">  2  9  1 -1</clus>
<clus scale="   89.011">  5  6 -1 -1</clus>
<clus scale="   89.448">  7  8 -1 -1</clus>
<clus scale="  172.182">  1  5  2 -1</clus>
<clus scale="   58.526">  2  5  1 -1</clus>
</clustering>
</event>
<event>
 9    1  0.1445593E-005  0.1224588E+03  0.7546771E-02  0.1241046E+00
         21   -1    0    0  501  502  0.00000000000E+00  0.00000000000E+00  0.76793911582E+02  0.76793911582E+02  0.00000000000E+00 0.  1.
         -3   -1    0    0    0  501 -0.00000000000E+00 -0.00000000000E+00 -0.34396227964E+03  0.34396227964E+03  0.00000000000E+00 0.  1.
         23    2    1    2    0    0  0.82280968117E+02  0.10269644451E+02 -0.26048175559E+03  0.28876408466E+03  0.93050138552E+02 0.  0.
         23    2    1    2    0    0 -0.67258683980E+02  0.33709302794E+01  0.22940202647E+01  0.10980233270E+03  0.86695997579E+02 0.  0.
        -11    1    3    3    0    0  0.89215133465E+02  0.36806513654E+02 -0.18932418974E+03  0.21250343128E+03  0.00000000000E+00 0.  1.
         11    1    3    3    0    0 -0.69341653479E+01 -0.26536869203E+02 -0.71157565851E+02  0.76260653380E+02  0.00000000000E+00 0. -1.
        -13    1    4    4    0    0 -0.57558263166E+02 -0.34134579452E+02 -0.12969805109E+02  0.68164059573E+02  0.00000000000E+00 0.  1.
         13    1    4    4    0    0 -0.97004208147E+01  0.37505509731E+02  0.15263825373E+02  0.41638273129E+02  0.00000000000E+00 0. -1.
         -3    1    1    2    0  502 -0.15022284137E+02 -0.13640574730E+02 -0.89806327383E+01  0.22189773862E+02  0.00000000000E+00 0.  1.
<scales pt_clust_5="13000.00000" pt_clust_6="13000.00000" pt_clust_7="13000.00000" pt_clust_8="13000.00000" pt_clust_9="20.29124"></scales>
<clustering>
<clus scale="   20.291">  1  9  2 -1</clus>
<clus scale="   86.696">  7  8 -1 -1</clus>
<clus scale="   93.050">  5  6 -1 -1</clus>
<clus scale="  117.703">  1  7  2 -1</clus>
<clus scale="   20.291">  1  5  2 -1</clus>
</clustering>
</event>
<event>
 9    1  0.1445593E-005  0.1904849E+03  0.7546771E-02  0.1160892E+00
          3   -1    0    0  502    0 -0.00000000000E+00  0.00000000000E+00  0.24389738795E+03  0.24389738795E+03  0.00000000000E+00 0. -1.
         21   -1    0    0  501  502  0.00000000000E+00 -0.00000000000E+00 -0.25208010884E+03  0.25208010884E+03  0.00000000000E+00 0. -1.
         23    2    1    2    0    0 -0.39895767970E+02  0.14199236247E+03  0.12494408223E+03  0.22439878929E+03  0.11397495184E+03 0.  0.
         23    2    1    2    0    0  0.52383884087E+02 -0.15808800236E+03 -0.65881949493E+02  0.20131568019E+03  0.91933040952E+02 0.  0.
        -11    1    3    3    0    0  0.37727746621E+02  0.71998798825E+02  0.45845629775E+02  0.93322192788E+02  0.00000000000E+00 0.  1.
         11    1    3    3    0    0 -0.77623514591E+02  0.69993563643E+02  0.79098452457E+02  0.13107659650E+03  0.00000000000E+00 0. -1.
        -13    1    4    4    0    0  0.57351106513E+02 -0.91721118653E+02 -0.78397340322E+02  0.13359661670E+03  0.00000000000E+00 0. -1.
         13    1    4    4    0    0 -0.49672224260E+01 -0.66366883710E+02  0.12515390829E+02  0.67719063487E+02  0.00000000000E+00 0.  1.
          3    1    1    2  501    0 -0.12488116117E+02  0.16095639896E+02 -0.67244853622E+02  0.70263027308E+02  0.00000000000E+00 0. -1.
<scales pt_clust_5="13000.00000" pt_clust_6="13000.00000" pt_clust_7="13000.00000" pt_clust_8="13000.00000" pt_clust_9="20.37211"></scales>
<clustering>
<clus scale="   20.372">  2  9  1 -1</clus>
<clus scale="   91.933">  7  8 -1 -1</clus>
<clus scale="  113.975">  5  6 -1 -1</clus>
<clus scale="  178.174">  2  7  1 -1</clus>
<clus scale="   20.372">  2  5  1 -1</clus>
</clustering>
</event>
<event>
 9    1  0.1445593E-005  0.1499283E+03  0.7546771E-02  0.1200680E+00
         21   -1    0    0  501  502  0.00000000000E+00  0.00000000000E+00  0.64418825869E+03  0.64418825869E+03  0.00000000000E+00 0.  1.
          1   -1    0    0  502    0 -0.00000000000E+00 -0.00000000000E+00 -0.18701708462E+03  0.18701708462E+03  0.00000000000E+00 0. -1.
         23    2    1    2    0    0  0.13097113457E+01 -0.11704374277E+03 -0.12968207070E+03  0.19740757497E+03  0.91931268503E+02 0.  0.
         23    2    1    2    0    0  0.35385997930E+02  0.13049335932E+03  0.27687891884E+03  0.32136929653E+03  0.91299525621E+02 0.  0.
        -13    1    4    4    0    0  0.63474321754E+02  0.76935008619E+02  0.20057658378E+03  0.22400658704E+03  0.00000000000E+00 0.  1.
         13    1    4    4    0    0 -0.28088323824E+02  0.53558350703E+02  0.76302335061E+02  0.97362709500E+02  0.00000000000E+00 0. -1.
        -13    1    3    3    0    0  0.22583340172E+02 -0.19849884763E+02 -0.81481854868E+02  0.86852276027E+02  0.00000000000E+00 0.  1.
         13    1    3    3    0    0 -0.21273628826E+02 -0.97193858009E+02 -0.48200215834E+02  0.11055529894E+03  0.00000000000E+00 0. -1.
          1    1    1    2  501    0 -0.36695709276E+02 -0.13449616551E+02  0.30997432592E+03  0.31242847181E+03  0.00000000000E+00 0. -1.
<scales pt_clust_5="13000.00000" pt_clust_6="13000.00000" pt_clust_7="13000.00000" pt_clust_8="13000.00000" pt_clust_9="39.08283"></scales>
<clustering>
<clus scale="   39.083">  1  9  2 -1</clus>
<clus scale="   91.300">  5  6 -1 -1</clus>
<clus scale="   91.931">  7  8 -1 -1</clus>
<clus scale="  149.542">  1  5  2 -1</clus>
<clus scale="   39.083">  1  5  2 -1</clus>
</clustering>
</event>
<event>
 9    1  0.1445593E-005  0.1661875E+03  0.7546771E-02  0.1183124E+00
          3   -1    0    0  502    0 -0.00000000000E+00  0.00000000000E+00  0.63290625581E+03  0.63290625581E+03  0.00000000000E+00 0. -1.
         21   -1    0    0  501  502  0.00000000000E+00 -0.00000000000E+00 -0.19536237773E+03  0.19536237773E+03  0.00000000000E+00 0.  1.
         23    2    1    2    0    0  0.13230412650E+03 -0.48185302935E+02  0.52435252707E+03  0.55182190255E+03  0.98669317332E+02 0.  0.
         23    2    1    2    0    0 -0.81020543400E+02  0.76087569699E+02  0.29308373870E+02  0.14647863729E+03  0.90792971571E+02 0.  0.
        -11    1    4    4    0    0 -0.47129426117E+02 -0.63160064507E+01 -0.10807595501E+02  0.48763499301E+02  0.00000000000E+00 0.  1.
         11    1    4    4    0    0 -0.33891117283E+02  0.82403576150E+02  0.40115969370E+02  0.97715137985E+02  0.00000000000E+00 0. -1.
        -11    1    3    3    0    0  0.64686179882E+02 -0.58570204986E+02  0.17177937392E+03  0.19267310161E+03  0.00000000000E+00 0.  1.
         11    1    3    3    0    0  0.67617946615E+02  0.10384902051E+02  0.35257315314E+03  0.35914880093E+03  0.00000000000E+00 0. -1.
          3    1    1    2  501    0 -0.51283583097E+02 -0.27902266764E+02 -0.11611702286E+03  0.12996809371E+03  0.00000000000E+00 0. -1.
<scales pt_clust_5="13000.00000" pt_clust_6="13000.00000" pt_clust_7="13000.00000" pt_clust_8="13000.00000" pt_clust_9="58.38272"></scales>
<clustering>
<clus scale="   58.383">  2  9  1 -1</clus>
<clus scale="   90.793">  5  6 -1 -1</clus>
<clus scale="   98.669">  7  8 -1 -1</clus>
<clus scale="  161.635">  2  5  1 -1</clus>
<clus scale="   58.383">  2  5  1 -1</clus>
</clustering>
</event>
<event>
 9    1  0.1445593E-005  0.1986622E+03  0.7546771E-02  0.1151153E+00
         21   -1    0    0  501  502  0.00000000000E+00  0.00000000000E+00  0.73760319093E+03  0.73760319093E+03  0.00000000000E+00 0. -1.
          1   -1    0    0  502    0 -0.00000000000E+00 -0.00000000000E+00 -0.81580884599E+02  0.81580884599E+02  0.00000000000E+00 0. -1.
         23    2    1    2    0    0 -0.15404485889E+03 -0.34697294264E+02  0.18275064754E+03  0.25806045479E+03  0.90904776394E+02 0.  0.
         23    2    1    2    0    0  0.21489491119E+03  0.57770021803E+01  0.39090644309E+03  0.45471337256E+03  0.87995496065E+02 0.  0.
        -11    1    4    4    0    0  0.96148301518E+02  0.46268410885E+02  0.17230251224E+03  0.20266577771E+03  0.00000000000E+00 0.  1.
         11    1    4    4    0    0  0.11874660967E+03 -0.40491408705E+02  0.21860393085E+03  0.25204759485E+03  0.00000000000E+00 0. -1.
        -13    1    3    3    0    0 -0.58943301922E+02  0.51254253411E+01  0.14801260367E+02  0.60989016510E+02  0.00000000000E+00 0. -1.
         13    1    3    3    0    0 -0.95101556966E+02 -0.39822719605E+02  0.16794938718E+03  0.19707143828E+03  0.00000000000E+00 0.  1.
          1    1    1    2  501    0 -0.60850052303E+02  0.28920292084E+02  0.82365215703E+02  0.10641024818E+03  0.00000000000E+00 0. -1.
<scales pt_clust_5="13000.00000" pt_clust_6="13000.00000" pt_clust_7="13000.00000" pt_clust_8="13000.00000" pt_clust_9="67.37297"></scales>
<clustering>
<clus scale="   67.373">  1  9  2 -1</clus>
<clus scale="   87.995">  5  6 -1 -1</clus>
<clus scale="   90.905">  7  8 -1 -1</clus>
<clus scale="  197.348">  1  5  2 -1</clus>
<clus scale="   67.373">  1  5  2 -1</clus>
</clustering>
</event>
<event>
 9    1  0.1445593E-005  0.1213464E+03  0.7546771E-02  0.1244002E+00
          2   -1    0    0  502    0 -0.00000000000E+00  0.00000000000E+00  0.58166577761E+03  0.58166577761E+03  0.00000000000E+00 0. -1.
         21   -1    0    0  501  502  0.00000000000E+00 -0.00000000000E+00 -0.40087641594E+02  0.40087641594E+02  0.00000000000E+00 0. -1.
         23    2    1    2    0    0 -0.30614936903E+02 -0.66335663740E+02  0.17172928264E+03  0.20753537330E+03  0.90787058617E+02 0.  0.
         23    2    1    2    0    0  0.13261843939E+02  0.90182939759E+02  0.15360096029E+03  0.19596824939E+03  0.80631635479E+02 0.  0.
        -11    1    3    3    0    0 -0.54882381730E+02 -0.19762365014E+02  0.12191498213E+03  0.13515135872E+03  0.00000000000E+00 0.  1.
         11    1    3    3    0    0  0.24267444827E+02 -0.46573298726E+02  0.49814300502E+02  0.72384014583E+02  0.00000000000E+00 0. -1.
        -13    1    4    4    0    0  0.44829164848E+01  0.50673455772E+02  0.17217383680E+02  0.53705995577E+02  0.00000000000E+00 0. -1.
         13    1    4    4    0    0  0.87789274546E+01  0.39509483987E+02  0.13638357661E+03  0.14226225381E+03  0.00000000000E+00 0.  1.
          2    1    1    2  501    0  0.17353092964E+02 -0.23847276019E+02  0.21624789310E+03  0.21824979651E+03  0.00000000000E+00 0. -1.
<scales pt_clust_5="13000.00000" pt_clust_6="13000.00000" pt_clust_7="13000.00000" pt_clust_8="13000.00000" pt_clust_9="29.49277"></scales>
<clustering>
<clus scale="   29.493">  2  9  1 -1</clus>
<clus scale="   80.632">  7  8 -1 -1</clus>
<clus scale="   90.787">  5  6 -1 -1</clus>
<clus scale="  113.948">  2  7  1 -1</clus>
<clus scale="   29.493">  2  5  1 -1</clus>
</clustering>
</event>
<event>
 9    1  0.1445593E-005  0.9281401E+02  0.7546771E-02  0.1296655E+00
         21   -1    0    0  501  502  0.00000000000E+00  0.00000000000E+00  0.41000030916E+02  0.41000030916E+02  0.00000000000E+00 0. -1.
         -2   -1    0    0    0  501 -0.00000000000E+00 -0.00000000000E+00 -0.62950243210E+03  0.62950243210E+03  0.00000000000E+00 0.  1.
         23    2    1    2    0    0  0.84510209065E+01  0.11257887425E+02 -0.49912079264E+03  0.50764057221E+03  0.91538107502E+02 0.  0.
         23    2    1    2    0    0 -0.39525826720E+02  0.84898794599E+01 -0.66307580764E+02  0.11941043961E+03  0.90707159526E+02 0.  0.
        -11    1    3    3    0    0  0.28417418216E+02  0.44684858089E+02 -0.31832219104E+03  0.32269692207E+03  0.00000000000E+00 0.  1.
         11    1    3    3    0    0 -0.19966397310E+02 -0.33426970664E+02 -0.18079860160E+03  0.18494365014E+03  0.00000000000E+00 0. -1.
        -11    1    4    4    0    0 -0.14351018986E+01 -0.33671803120E+02 -0.49997424406E+02  0.60295872911E+02  0.00000000000E+00 0. -1.
         11    1    4    4    0    0 -0.38090724821E+02  0.42161682580E+02 -0.16310156358E+02  0.59114566697E+02  0.00000000000E+00 0.  1.
         -2    1    1    2    0  502  0.31074805813E+02 -0.19747766885E+02 -0.23074027781E+02  0.43451451199E+02  0.00000000000E+00 0.  1.
<scales pt_clust_5="13000.00000" pt_clust_6="13000.00000" pt_clust_7="13000.00000" pt_clust_8="13000.00000" pt_clust_9="36.81872"></scales>
<clustering>
<clus scale="   36.819">  1  9  2 -1</clus>
<clus scale="   90.707">  7  8 -1 -1</clus>
<clus scale="   91.538">  5  6 -1 -1</clus>
<clus scale="   91.995">  1  7  2 -1</clus>
<clus scale="   36.819">  1  5  2 -1</clus>
</clustering>
</event>
<event>
 9    1  0.1445593E-005  0.1359770E+03  0.7546771E-02  0.1220631E+00
          1   -1    0    0  502    0 -0.00000000000E+00  0.00000000000E+00  0.14377236069E+03  0.14377236069E+03  0.00000000000E+00 0. -1.
         21   -1    0    0  501  502  0.00000000000E+00 -0.00000000000E+00 -0.37155852299E+03  0.37155852299E+03  0.00000000000E+00 0.  1.
         23    2    1    2    0    0  0.48630353150E+02 -0.55071933265E+02  0.12945374348E+02  0.12355564689E+03  0.98491553341E+02 0.  0.
         23    2    1    2    0    0 -0.15941650168E+03  0.70353319899E+02 -0.14314459068E+03  0.24334914911E+03  0.91461597958E+02 0.  0.
        -11    1    4    4    0    0 -0.32434673973E+02  0.30520745050E+02 -0.89293394246E+02  0.99783937636E+02  0.00000000000E+00 0. -1.
         11    1    4    4    0    0 -0.12698182771E+03  0.39832574849E+02 -0.53851196431E+02  0.14356521147E+03  0.00000000000E+00 0.  1.
        -13    1    3    3    0    0  0.21000162328E+02  0.18174115335E+01  0.47155231032E+02  0.51651966237E+02  0.00000000000E+00 0. -1.
         13    1    3    3    0    0  0.27630190822E+02 -0.56889344799E+02 -0.34209856684E+02  0.71903680649E+02  0.00000000000E+00 0.  1.
          1    1    1    2  501    0  0.11078614853E+03 -0.15281386634E+02 -0.97586945970E+02  0.14842608769E+03  0.00000000000E+00 0. -1.
<scales pt_clust_5="13000.00000" pt_clust_6="13000.00000" pt_clust_7="13000.00000" pt_clust_8="13000.00000" pt_clust_9="111.83511"></scales>
<clustering>
<clus scale="   91.462">  5  6 -1 -1</clus>
<clus scale="   98.492">  7  8 -1 -1</clus>
<clus scale="  111.835">  2  9  1 -1</clus>
<clus scale="  130.975">  2  5  1 -1</clus>
<clus scale="  111.835">  2  5  1 -1</clus>
</clustering>
</event>
<event>
 9    1  0.1445593E-005  0.1728203E+03  0.7546771E-02  0.1175286E+00
         -1   -1    0    0    0  501 -0.00000000000E+00  0.00000000000E+00  0.14570833086E+03  0.14570833086E+03  0.00000000000E+00 0.  1.
         21   -1    0    0  501  502  0.00000000000E+00 -0.00000000000E+00 -0.34143984549E+03  0.34143984549E+03  0.00000000000E+00 0.  1.
         23    2    1    2    0    0  0.62374120948E+02  0.10586474700E+03 -0.59219155429E+02  0.16380344239E+03  0.90701619329E+02 0.  0.
         23    2    1    2    0    0 -0.57296367909E+02 -0.17840678365E+03 -0.13784205338E+03  0.25061304386E+03  0.93244902526E+02 0.  0.
        -11    1    4    4    0    0 -0.77279156452E+02 -0.15747380949E+03 -0.13535836714E+03  0.22156704685E+03  0.00000000000E+00 0.  1.
         11    1    4    4    0    0  0.19982788543E+02 -0.20932974154E+02 -0.24836862478E+01  0.29045997010E+02  0.00000000000E+00 0. -1.
        -11    1    3    3    0    0 -0.65987080756E+01  0.74700332467E+02 -0.16114639928E+02  0.76703091456E+02  0.00000000000E+00 0.  1.
         11    1    3    3    0    0  0.68972829023E+02  0.31164414530E+02 -0.43104515502E+02  0.87100350936E+02  0.00000000000E+00 0. -1.
         -1    1    1    2    0  502 -0.50777530388E+01  0.72542036649E+02  0.13296941794E+01  0.72731690093E+02  0.00000000000E+00 0.  1.
<scales pt_clust_5="13000.00000" pt_clust_6="13000.00000" pt_clust_7="13000.00000" pt_clust_8="13000.00000" pt_clust_9="72.71957"></scales>
<clustering>
<clus scale="   72.720">  2  9  1 -1</clus>
<clus scale="   90.702">  7  8 -1 -1</clus>
<clus scale="   93.245">  5  6 -1 -1</clus>
<clus scale="  171.461">  1  7  2 -1</clus>
<clus scale="   72.720">  2  5  1 -1</clus>
</clustering>
</event>
<event>
 9    1  0.1445593E-005  0.1196525E+03  0.7546771E-02  0.1243988E+00
         21   -1    0    0  501  502  0.00000000000E+00  0.00000000000E+00  0.19399109212E+03  0.19399109212E+03  0.00000000000E+00 0. -1.
          1   -1    0    0  502    0 -0.00000000000E+00 -0.00000000000E+00 -0.24284861218E+03  0.24284861218E+03  0.00000000000E+00 0. -1.
         23    2    1    2    0    0 -0.27713882788E+01  0.71548736253E+02 -0.17951412766E+03  0.21463786445E+03  0.93365885507E+02 0.  0.
         23    2    1    2    0    0 -0.45136429990E+01 -0.92882669226E+02  0.53092361226E+02  0.14142795364E+03  0.92387791595E+02 0.  0.
        -11    1    4    4    0    0  0.10586222217E+02 -0.10716425909E+03  0.54314658015E+02  0.12060816143E+03  0.00000000000E+00 0.  1.
         11    1    4    4    0    0 -0.15099865216E+02  0.14281589864E+02 -0.12222967883E+01  0.20819792219E+02  0.00000000000E+00 0. -1.
        -11    1    3    3    0    0  0.35947094323E+02  0.66855710942E+02 -0.13916226347E+03  0.15851818586E+03  0.00000000000E+00 0. -1.
         11    1    3    3    0    0 -0.38718482602E+02  0.46930253102E+01 -0.40351864188E+02  0.56119678590E+02  0.00000000000E+00 0.  1.
          1    1    1    2  501    0  0.72850312778E+01  0.21333932973E+02  0.77564246375E+02  0.80773886204E+02  0.00000000000E+00 0. -1.
<scales pt_clust_5="13000.00000" pt_clust_6="13000.00000" pt_clust_7="13000.00000" pt_clust_8="13000.00000" pt_clust_9="22.54348"></scales>
<clustering>
<clus scale="   22.543">  1  9  2 -1</clus>
<clus scale="   92.388">  5  6 -1 -1</clus>
<clus scale="   93.366">  7  8 -1 -1</clus>
<clus scale="  118.891">  1  5  2 -1</clus>
<clus scale="   22.543">  1  5  2 -1</clus>
</clustering>
</event>
<event>
 9    1  0.1445593E-005  0.2171758E+03  0.7546771E-02  0.1172566E+00
         21   -1    0    0  501  502  0.00000000000E+00  0.00000000000E+00  0.15798183813E+03  0.15798183813E+03  0.00000000000E+00 0. -1.
          1   -1    0    0  502    0 -0.00000000000E+00 -0.00000000000E+00 -0.80905552023E+03  0.80905552023E+03  0.00000000000E+00 0. -1.
         23    2    1    2    0    0  0.37333810587E+01  0.18318180492E+02 -0.31867255525E+03  0.33166181075E+03  0.89988140156E+02 0.  0.
         23    2    1    2    0    0  0.19145233390E+03 -0.49681217725E+02 -0.37472609479E+03  0.43320604858E+03  0.90142192435E+02 0.  0.
        -13    1    3    3    0    0  0.70849475743E+01 -0.28544485024E+02 -0.43513590367E+02  0.52520630746E+02  0.00000000000E+00 0.  1.
         13    1    3    3    0    0 -0.33515665156E+01  0.46862665515E+02 -0.27515896489E+03  0.27914118001E+03  0.00000000000E+00 0. -1.
        -13    1    4    4    0    0  0.17717271797E+03 -0.64356935253E+02 -0.36441337495E+03  0.41027928896E+03  0.00000000000E+00 0. -1.
         13    1    4    4    0    0  0.14279615926E+02  0.14675717528E+02 -0.10312719842E+02  0.22926759617E+02  0.00000000000E+00 0.  1.
          1    1    1    2  501    0 -0.19518571496E+03  0.31363037233E+02  0.42324967949E+02  0.20216949903E+03  0.00000000000E+00 0. -1.
<scales pt_clust_5="13000.00000" pt_clust_6="13000.00000" pt_clust_7="13000.00000" pt_clust_8="13000.00000" pt_clust_9="197.58468"></scales>
<clustering>
<clus scale="   89.988">  5  6 -1 -1</clus>
<clus scale="   90.142">  7  8 -1 -1</clus>
<clus scale="   91.910">  2  5  1 -1</clus>
<clus scale="  197.585">  1  9  2 -1</clus>
<clus scale="  197.585">  1  5  2 -1</clus>
</clustering>
</event>
<event>
 9    1  0.1445593E-005  0.1935974E+03  0.7546771E-02  0.1155458E+00
          2   -1    0    0  502    0 -0.00000000000E+00  0.00000000000E+00  0.15473833557E+03  0.15473833557E+03  0.00000000000E+00 0. -1.
         21   -1    0    0  501  502  0.00000000000E+00 -0.00000000000E+00 -0.57369652631E+03  0.57369652631E+03  0.00000000000E+00 0. -1.
         23    2    1    2    0    0  0.58391981589E+02  0.90994750210E+02 -0.10378301576E+03  0.17667668151E+03  0.93563173046E+02 0.  0.
         23    2    1    2    0    0 -0.11209607757E+03 -0.21487640051E+03 -0.64477638661E+02  0.26701259582E+03  0.91656763728E+02 0.  0.
        -11    1    3    3    0    0 -0.74520382173E+01  0.72151782483E+02 -0.67907159121E+02  0.99361938633E+02  0.00000000000E+00 0. -1.
         11    1    3    3    0    0  0.65844019806E+02  0.18842967727E+02 -0.35875856643E+02  0.77314742882E+02  0.00000000000E+00 0.  1.
        -13    1    4    4    0    0 -0.93599657294E+02 -0.20654135132E+03 -0.81057012836E+02  0.24081209475E+03  0.00000000000E+00 0. -1.
         13    1    4    4    0    0 -0.18496420276E+02 -0.83350491886E+01  0.16579374175E+02  0.26200501064E+02  0.00000000000E+00 0.  1.
          2    1    1    2  501    0  0.53704095981E+02  0.12388165030E+03 -0.25069753631E+03  0.28474558454E+03  0.00000000000E+00 0. -1.
<scales pt_clust_5="13000.00000" pt_clust_6="13000.00000" pt_clust_7="13000.00000" pt_clust_8="13000.00000" pt_clust_9="135.02145"></scales>
<clustering>
<clus scale="   91.657">  7  8 -1 -1</clus>
<clus scale="   93.563">  5  6 -1 -1</clus>
<clus scale="  135.021">  2  9  1 -1</clus>
<clus scale="  192.683">  2  7  1 -1</clus>
<clus scale="  135.021">  2  5  1 -1</clus>
</clustering>
</event>
<event>
 9    1  0.1445593E-005  0.2812812E+03  0.7546771E-02  0.1132876E+00
         21   -1    0    0  501  502  0.00000000000E+00  0.00000000000E+00  0.43053475712E+03  0.43053475712E+03  0.00000000000E+00 0. -1.
          2   -1    0    0  502    0 -0.00000000000E+00 -0.00000000000E+00 -0.40149880005E+03  0.40149880005E+03  0.00000000000E+00 0. -1.
         23    2    1    2    0    0  0.18037680520E+02  0.53805337783E+02 -0.18870279866E+03  0.21736425150E+03  0.91750200632E+02 0.  0.
         23    2    1    2    0    0  0.14255852405E+03 -0.24064763088E+03  0.22199967301E+03  0.36825636196E+03  0.89970430051E+02 0.  0.
        -11    1    4    4    0    0  0.39569819664E+02 -0.12808846673E+03  0.14458705753E+03  0.19717465137E+03  0.00000000000E+00 0. -1.
         11    1    4    4    0    0  0.10298870438E+03 -0.11255916415E+03  0.77412615484E+02  0.17108171060E+03  0.00000000000E+00 0.  1.
        -11    1    3    3    0    0  0.48938593938E+02  0.31443289719E+02 -0.61874144702E+02  0.84923943783E+02  0.00000000000E+00 0.  1.
         11    1    3    3    0    0 -0.30900913419E+02  0.22362048064E+02 -0.12682865396E+03  0.13244030772E+03  0.00000000000E+00 0. -1.
          2    1    1    2  501    0 -0.16059620457E+03  0.18684229310E+03 -0.42609172718E+01  0.24641294371E+03  0.00000000000E+00 0. -1.
<scales pt_clust_5="13000.00000" pt_clust_6="13000.00000" pt_clust_7="13000.00000" pt_clust_8="13000.00000" pt_clust_9="266.50427"></scales>
<clustering>
<clus scale="   89.970">  5  6 -1 -1</clus>
<clus scale="   91.750">  7  8 -1 -1</clus>
<clus scale="  107.882">  2  7  1 -1</clus>
<clus scale="  266.504">  1  9  2 -1</clus>
<clus scale="  266.504">  1  5  2 -1</clus>
</clustering>
</event>
<event>
 9    1  0.1445593E-005  0.9971075E+02  0.7546771E-02  0.1282055E+00
         -2   -1    0    0    0  501 -0.00000000000E+00  0.00000000000E+00  0.30219198834E+03  0.30219198834E+03  0.00000000000E+00 0.  1.
         21   -1    0    0  501  502  0.00000000000E+00 -0.00000000000E+00 -0.97648867603E+02  0.97648867603E+02  0.00000000000E+00 0.  1.
         23    2    1    2    0    0  0.18861954927E+02 -0.13514513347E+01  0.13722661269E+03  0.16681996272E+03  0.92952444650E+02 0.  0.
         23    2    1    2    0    0 -0.35721794959E+02 -0.35421497509E+02  0.12345905820E+03  0.16382197769E+03  0.95209097257E+02 0.  0.
        -11    1    3    3    0    0 -0.14451634221E+02  0.33566943466E+02  0.23958212442E+02  0.43698802830E+02  0.00000000000E+00 0.  1.
         11    1    3    3    0    0  0.33313589148E+02 -0.34918394801E+02  0.11326840025E+03  0.12312115989E+03  0.00000000000E+00 0. -1.
        -13    1    4    4    0    0 -0.10926827243E+02 -0.41904487836E+02  0.13029024844E+03  0.13729869079E+03  0.00000000000E+00 0.  1.
         13    1    4    4    0    0 -0.24794967716E+02  0.64829903263E+01 -0.68311902398E+01  0.26523286895E+02  0.00000000000E+00 0. -1.
         -2    1    1    2    0  502  0.16859840032E+02  0.36772948844E+02 -0.56142550160E+02  0.69198915534E+02  0.00000000000E+00 0.  1.
<scales pt_clust_5="13000.00000" pt_clust_6="13000.00000" pt_clust_7="13000.00000" pt_clust_8="13000.00000" pt_clust_9="40.45373"></scales>
<clustering>
<clus scale="   40.454">  2  9  1 -1</clus>
<clus scale="   92.952">  5  6 -1 -1</clus>
<clus scale="   95.209">  7  8 -1 -1</clus>
<clus scale="   97.558">  1  5  2 -1</clus>
<clus scale="   40.454">  2  5  1 -1</clus>
</clustering>
</event>
<event>
 9    1  0.1445593E-005  0.1028271E+03  0.7546771E-02  0.1276202E+00
         21   -1    0    0  501  502  0.00000000000E+00  0.00000000000E+00  0.49868025984E+02  0.49868025984E+02  0.00000000000E+00 0.  1.
          2   -1    0    0  502    0 -0.00000000000E+00 -0.00000000000E+00 -0.36677055516E+03  0.36677055516E+03  0.00000000000E+00 0. -1.
         23    2    1    2    0    0  0.12789074761E+02 -0.53559316806E+02 -0.12071248624E+03  0.16010406339E+03  0.89608291633E+02 0.  0.
         23    2    1    2    0    0 -0.48712052894E+02  0.66902441912E+01 -0.11394355218E+03  0.15528405816E+03  0.93340142339E+02 0.  0.
        -13    1    4    4    0    0 -0.75540537511E+02  0.72716118815E+01 -0.98426019557E+02  0.12428568088E+03  0.00000000000E+00 0.  1.
         13    1    4    4    0    0  0.26828484617E+02 -0.58136769030E+00 -0.15517532618E+02  0.30998377277E+02  0.00000000000E+00 0. -1.
        -13    1    3    3    0    0  0.45644113759E+02 -0.43736931948E+02 -0.46897922114E+02  0.78712892436E+02  0.00000000000E+00 0.  1.
         13    1    3    3    0    0 -0.32855038998E+02 -0.98223848576E+01 -0.73814564127E+02  0.81391170954E+02  0.00000000000E+00 0. -1.
          2    1    1    2  501    0  0.35922978134E+02  0.46869072614E+02 -0.82246490757E+02  0.10125045959E+03  0.00000000000E+00 0. -1.
<scales pt_clust_5="13000.00000" pt_clust_6="13000.00000" pt_clust_7="13000.00000" pt_clust_8="13000.00000" pt_clust_9="59.05230"></scales>
<clustering>
<clus scale="   59.052">  1  9  2 -1</clus>
<clus scale="   89.608">  7  8 -1 -1</clus>
<clus scale="   93.340">  5  6 -1 -1</clus>
<clus scale="   99.452">  2  7  1 -1</clus>
<clus scale="   59.052">  1  5  2 -1</clus>
</clustering>
</event>
<event>
 9    1  0.1445593E-005  0.1204171E+03  0.7546771E-02  0.1242428E+00
         -4   -1    0    0    0  501 -0.00000000000E+00  0.00000000000E+00  0.52378551776E+03  0.52378551776E+03  0.00000000000E+00 0.  1.
         21   -1    0    0  501  502  0.00000000000E+00 -0.00000000000E+00 -0.23553769581E+03  0.23553769581E+03  0.00000000000E+00 0.  1.
         23    2    1    2    0    0  0.67114048244E+02  0.60033758952E+02  0.30844416828E+03  0.33402020087E+03  0.91232351509E+02 0.  0.
         23    2    1    2    0    0 -0.49941175216E+02 -0.40987813977E+02  0.18626190683E+03  0.21725814762E+03  0.91287912086E+02 0.  0.
        -11    1    4    4    0    0  0.15320651732E+02 -0.40345581556E+02  0.49166010228E+02  0.65420064830E+02  0.00000000000E+00 0. -1.
         11    1    4    4    0    0 -0.65261826948E+02 -0.64223242052E+00  0.13709589660E+03  0.15183808279E+03  0.00000000000E+00 0.  1.
        -11    1    3    3    0    0  0.67215849117E+01  0.66772635141E+02  0.15026385656E+03  0.16456910735E+03  0.00000000000E+00 0.  1.
         11    1    3    3    0    0  0.60392463332E+02 -0.67388761889E+01  0.15818031172E+03  0.16945109352E+03  0.00000000000E+00 0. -1.
         -4    1    1    2    0  502 -0.17172873028E+02 -0.19045944976E+02 -0.20645825315E+03  0.20804486507E+03  0.00000000000E+00 0.  1.
<scales pt_clust_5="13000.00000" pt_clust_6="13000.00000" pt_clust_7="13000.00000" pt_clust_8="13000.00000" pt_clust_9="25.64480"></scales>
<clustering>
<clus scale="   25.645">  2  9  1 -1</clus>
<clus scale="   91.232">  7  8 -1 -1</clus>
<clus scale="   91.288">  5  6 -1 -1</clus>
<clus scale="  120.375">  1  7  2 -1</clus>
<clus scale="   25.645">  2  5  1 -1</clus>
</clustering>
</event>
<event>
 9    1  0.1445593E-005  0.9503276E+02  0.7546771E-02  0.1291386E+00
         21   -1    0    0  501  502  0.00000000000E+00  0.00000000000E+00  0.31825721000E+03  0.31825721000E+03  0.00000000000E+00 0.  1.
          1   -1    0    0  502    0 -0.00000000000E+00 -0.00000000000E+00 -0.26157281179E+03  0.26157281179E+03  0.00000000000E+00 0. -1.
         23    2    1    2    0    0 -0.26303547762E+01 -0.18074111006E+02 -0.23847453287E+03  0.25678475148E+03  0.93459689236E+02 0.  0.
         23    2    1    2    0    0 -0.58373861810E+01 -0.73475282447E+00  0.15095828534E+03  0.17737680349E+03  0.92948972917E+02 0.  0.
        -11    1    4    4    0    0 -0.70115861764E+01  0.25574101631E+02  0.14858753967E+03  0.15093526414E+03  0.00000000000E+00 0.  1.
         11    1    4    4    0    0  0.11741999954E+01 -0.26308854455E+02  0.23707456647E+01  0.26441539353E+02  0.00000000000E+00 0. -1.
        -13    1    3    3    0    0  0.26730293586E+02  0.28870151649E+02 -0.86156469649E+02  0.94715001524E+02  0.00000000000E+00 0.  1.
         13    1    3    3    0    0 -0.29360648363E+02 -0.46944262655E+02 -0.15231806322E+03  0.16206974996E+03  0.00000000000E+00 0. -1.
          1    1    1    2  501    0  0.84677409572E+01  0.18808863830E+02  0.14420064573E+03  0.14566846681E+03  0.00000000000E+00 0. -1.
<scales pt_clust_5="13000.00000" pt_clust_6="13000.00000" pt_clust_7="13000.00000" pt_clust_8="13000.00000" pt_clust_9="20.62707"></scales>
<clustering>
<clus scale="   20.627">  1  9  2 -1</clus>
<clus scale="   92.949">  5  6 -1 -1</clus>
<clus scale="   93.460">  7  8 -1 -1</clus>
<clus scale="   94.531">  1  5  2 -1</clus>
<clus scale="   20.627">  1  5  2 -1</clus>
</clustering>
</event>
<event>
 9    1  0.1952806E-005  0.9530193E+02  0.7546771E-02  0.1291495E+00
         21   -1    0    0  501  502  0.00000000000E+00  0.00000000000E+00  0.48471288517E+02  0.48471288517E+02  0.00000000000E+00 0. -1.
          2   -1    0    0  502    0 -0.00000000000E+00 -0.00000000000E+00 -0.52292203158E+03  0.52292203158E+03  0.00000000000E+00 0. -1.
         23    2    1    2    0    0  0.13691583981E+02  0.23085454387E+02 -0.38421150518E+03  0.39585361635E+03  0.91439636878E+02 0.  0.
         23    2    1    2    0    0  0.29765915139E+02 -0.40518752156E+02 -0.71147061226E+02  0.12497306148E+03  0.89602359306E+02 0.  0.
        -11    1    4    4    0    0  0.45832079541E+02 -0.58009954063E+02 -0.68998083374E+02  0.10112600949E+03  0.00000000000E+00 0. -1.
         11    1    4    4    0    0 -0.16066164402E+02  0.17491201907E+02 -0.21489778520E+01  0.23847051989E+02  0.00000000000E+00 0.  1.
        -13    1    3    3    0    0  0.27132491012E+02 -0.26061761627E+02 -0.94819910940E+02  0.10201079844E+03  0.00000000000E+00 0.  1.
         13    1    3    3    0    0 -0.13440907031E+02  0.49147216014E+02 -0.28939159424E+03  0.29384281791E+03  0.00000000000E+00 0. -1.
          2    1    1    2  501    0 -0.43457499120E+02  0.17433297769E+02 -0.19092176663E+02  0.50566642272E+02  0.00000000000E+00 0. -1.
<scales pt_clust_5="13000.00000" pt_clust_6="13000.00000" pt_clust_7="13000.00000" pt_clust_8="13000.00000" pt_clust_9="46.82386"></scales>
<clustering>
<clus scale="   46.824">  1  9  2 -1</clus>
<clus scale="   89.602">  5  6 -1 -1</clus>
<clus scale="   91.440">  7  8 -1 -1</clus>
<clus scale="   93.541">  1  5  2 -1</clus>
<clus scale="   46.824">  1  5  2 -1</clus>
</clustering>
</event>
<event>
 9    1  0.1445593E-005  0.1129399E+03  0.7546771E-02  0.1257935E+00
         21   -1    0    0  501  502  0.00000000000E+00  0.00000000000E+00  0.96595886910E+02  0.96595886910E+02  0.00000000000E+00 0.  1.
          2   -1    0    0  502    0 -0.00000000000E+00 -0.00000000000E+00 -0.43043398904E+03  0.43043398904E+03  0.00000000000E+00 0. -1.
         23    2    1    2    0    0  0.83243049703E+02 -0.74103500724E+01 -0.23190356990E+03  0.26526844696E+03  0.97998799005E+02 0.  0.
         23    2    1    2    0    0 -0.59832432777E+01 -0.65127554051E+02 -0.10786240277E+03  0.15562017936E+03  0.91136956263E+02 0.  0.
        -11    1    4    4    0    0  0.17314085509E+02  0.17385219110E+02 -0.36958003144E+02  0.44361215007E+02  0.00000000000E+00 0. -1.
         11    1    4    4    0    0 -0.23297328786E+02 -0.82512773161E+02 -0.70904399627E+02  0.11125896436E+03  0.00000000000E+00 0.  1.
        -13    1    3    3    0    0  0.43413042862E+02  0.32872950443E+02 -0.18132482519E+03  0.18932515784E+03  0.00000000000E+00 0. -1.
         13    1    3    3    0    0  0.39830006841E+02 -0.40283300515E+02 -0.50578744712E+02  0.75943289117E+02  0.00000000000E+00 0.  1.
          2    1    1    2  501    0 -0.77259806425E+02  0.72537904123E+02  0.59278705425E+01  0.10614124963E+03  0.00000000000E+00 0. -1.
<scales pt_clust_5="13000.00000" pt_clust_6="13000.00000" pt_clust_7="13000.00000" pt_clust_8="13000.00000" pt_clust_9="105.97559"></scales>
<clustering>
<clus scale="   91.137">  5  6 -1 -1</clus>
<clus scale="   97.999">  7  8 -1 -1</clus>
<clus scale="  105.976">  1  9  2 -1</clus>
<clus scale="  107.040">  1  5  2 -1</clus>
<clus scale="  105.976">  1  5  2 -1</clus>
</clustering>
</event>
<event>
 9    1  0.1445593E-005  0.3149078E+03  0.7546771E-02  0.1078298E+00
          1   -1    0    0  502    0 -0.00000000000E+00  0.00000000000E+00  0.12616164406E+04  0.12616164406E+04  0.00000000000E+00 0. -1.
         21   -1    0    0  501  502  0.00000000000E+00 -0.00000000000E+00 -0.35857430496E+03  0.35857430496E+03  0.00000000000E+00 0. -1.
         23    2    1    2    0    0  0.28539626356E+03 -0.13532007239E+03  0.10922933733E+04  0.11407385191E+04  0.91744245343E+02 0.  0.
         23    2    1    2    0    0 -0.22519997743E+03 -0.28950105909E+02 -0.43419245360E+02  0.25169082872E+03  0.99548500363E+02 0.  0.
        -11    1    4    4    0    0 -0.14427947008E+03 -0.28523708092E+02 -0.74673439066E+02  0.16494329302E+03  0.00000000000E+00 0. -1.
         11    1    4    4    0    0 -0.80920507358E+02 -0.42639781694E+00  0.31254193707E+02  0.86747535702E+02  0.00000000000E+00 0.  1.
        -11    1    3    3    0    0  0.13103736035E+03 -0.60714878029E+02  0.34455785447E+03  0.37360032294E+03  0.00000000000E+00 0.  1.
         11    1    3    3    0    0  0.15435890321E+03 -0.74605194364E+02  0.74773551878E+03  0.76713819620E+03  0.00000000000E+00 0. -1.
          1    1    1    2  501    0 -0.60196286126E+02  0.16427017830E+03 -0.14583199222E+03  0.22776139773E+03  0.00000000000E+00 0. -1.
<scales pt_clust_5="13000.00000" pt_clust_6="13000.00000" pt_clust_7="13000.00000" pt_clust_8="13000.00000" pt_clust_9="174.95223"></scales>
<clustering>
<clus scale="   91.744">  7  8 -1 -1</clus>
<clus scale="   99.549">  5  6 -1 -1</clus>
<clus scale="  174.952">  2  9  1 -1</clus>
<clus scale="  312.528">  1  7  2 -1</clus>
<clus scale="  174.952">  2  5  1 -1</clus>
</clustering>
</event>
<event>
 9    1  0.1445593E-005  0.1181074E+03  0.7546771E-02  0.1246833E+00
         21   -1    0    0  501  502  0.00000000000E+00  0.00000000000E+00  0.35320532444E+02  0.35320532444E+02  0.00000000000E+00 0. -1.
          1   -1    0    0  502    0 -0.00000000000E+00 -0.00000000000E+00 -0.61537499234E+03  0.61537499234E+03  0.00000000000E+00 0. -1.
         23    2    1    2    0    0  0.72851339692E+02  0.46627725169E+02 -0.31346542931E+03  0.33784796930E+03  0.91647217832E+02 0.  0.
         23    2    1    2    0    0 -0.61236879771E+02  0.39010344638E+01 -0.17618288073E+03  0.20862988346E+03  0.93385476919E+02 0.  0.
        -11    1    4    4    0    0  0.14226396746E+02  0.25499268232E+02 -0.75608534576E+02  0.81050931799E+02  0.00000000000E+00 0.  1.
         11    1    4    4    0    0 -0.75463276516E+02 -0.21598233768E+02 -0.10057434615E+03  0.12757895166E+03  0.00000000000E+00 0. -1.
        -13    1    3    3    0    0  0.60275783281E+02 -0.11359388092E+02 -0.20779325536E+03  0.21665697016E+03  0.00000000000E+00 0.  1.
         13    1    3    3    0    0  0.12575556411E+02  0.57987113262E+02 -0.10567217396E+03  0.12119099914E+03  0.00000000000E+00 0. -1.
          1    1    1    2  501    0 -0.11614459922E+02 -0.50528759633E+02 -0.90406149857E+02  0.10421767202E+03  0.00000000000E+00 0. -1.
<scales pt_clust_5="13000.00000" pt_clust_6="13000.00000" pt_clust_7="13000.00000" pt_clust_8="13000.00000" pt_clust_9="51.84642"></scales>
<clustering>
<clus scale="   51.846">  1  9  2 -1</clus>
<clus scale="   91.647">  7  8 -1 -1</clus>
<clus scale="   93.385">  5  6 -1 -1</clus>
<clus scale="  116.738">  2  7  1 -1</clus>
<clus scale="   51.846">  1  5  2 -1</clus>
</clustering>
</event>
<event>
 9    1  0.1445593E-005  0.1612989E+03  0.7546771E-02  0.1189490E+00
         21   -1    0    0  501  502  0.00000000000E+00  0.00000000000E+00  0.97853933769E+02  0.97853933769E+02  0.00000000000E+00 0.  1.
          1   -1    0    0  502    0 -0.00000000000E+00 -0.00000000000E+00 -0.31282764380E+03  0.31282764380E+03  0.00000000000E+00 0. -1.
         23    2    1    2    0    0  0.13196642105E+03 -0.27376284486E+02 -0.15084357595E+03  0.22166955524E+03  0.90658756211E+02 0.  0.
         23    2    1    2    0    0 -0.10628173295E+03  0.15035736455E+02 -0.49943271094E+02  0.15718028644E+03  0.10338970929E+03 0.  0.
        -11    1    4    4    0    0 -0.55436538253E+02  0.55814919699E+02 -0.47626999394E+02  0.91961111921E+02  0.00000000000E+00 0.  1.
         11    1    4    4    0    0 -0.50845194700E+02 -0.40779183245E+02 -0.23162717003E+01  0.65219174517E+02  0.00000000000E+00 0. -1.
        -11    1    3    3    0    0  0.19461339932E+02 -0.44476622032E+02 -0.41856950841E+02  0.64100842374E+02  0.00000000000E+00 0. -1.
         11    1    3    3    0    0  0.11250508112E+03  0.17100337546E+02 -0.10898662511E+03  0.15756871287E+03  0.00000000000E+00 0.  1.
          1    1    1    2  501    0 -0.25684688097E+02  0.12340548031E+02 -0.14186862985E+02  0.31831735888E+02  0.00000000000E+00 0. -1.
<scales pt_clust_5="13000.00000" pt_clust_6="13000.00000" pt_clust_7="13000.00000" pt_clust_8="13000.00000" pt_clust_9="28.49548"></scales>
<clustering>
<clus scale="   28.495">  1  9  2 -1</clus>
<clus scale="   90.659">  7  8 -1 -1</clus>
<clus scale="  103.390">  5  6 -1 -1</clus>
<clus scale="  153.450">  2  7  1 -1</clus>
<clus scale="   28.495">  1  5  2 -1</clus>
</clustering>
</event>
<event>
 9    1  0.1445593E-005  0.9699690E+02  0.7546771E-02  0.1286966E+00
         21   -1    0    0  501  502  0.00000000000E+00  0.00000000000E+00  0.29851013540E+03  0.29851013540E+03  0.00000000000E+00 0. -1.
          2   -1    0    0  502    0 -0.00000000000E+00 -0.00000000000E+00 -0.13460389616E+03  0.13460389616E+03  0.00000000000E+00 0. -1.
         23    2    1    2    0    0  0.81921359050E+01 -0.35965126253E+02 -0.54294423034E+02  0.11250525738E+03  0.91372573388E+02 0.  0.
         23    2    1    2    0    0 -0.35923293058E+02  0.71162984647E+01  0.73276055411E-01  0.98841264024E+02  0.91806674140E+02 0.  0.
        -11    1    4    4    0    0 -0.78908138303E+01  0.32642122780E+02  0.34127570612E+02  0.47879684610E+02  0.00000000000E+00 0.  1.
         11    1    4    4    0    0 -0.28032479227E+02 -0.25525824316E+02 -0.34054294557E+02  0.50961579414E+02  0.00000000000E+00 0. -1.
        -13    1    3    3    0    0  0.38812305421E+02  0.38413597183E+01 -0.48066674840E+02  0.61899566450E+02  0.00000000000E+00 0.  1.
         13    1    3    3    0    0 -0.30620169516E+02 -0.39806485971E+02 -0.62277481944E+01  0.50605690926E+02  0.00000000000E+00 0. -1.
          2    1    1    2  501    0  0.27731157153E+02  0.28848827788E+02  0.21812738622E+03  0.22176751015E+03  0.00000000000E+00 0. -1.
<scales pt_clust_5="13000.00000" pt_clust_6="13000.00000" pt_clust_7="13000.00000" pt_clust_8="13000.00000" pt_clust_9="40.01590"></scales>
<clustering>
<clus scale="   40.016">  1  9  2 -1</clus>
<clus scale="   91.373">  7  8 -1 -1</clus>
<clus scale="   91.807">  5  6 -1 -1</clus>
<clus scale="   96.586">  2  7  1 -1</clus>
<clus scale="   40.016">  1  5  2 -1</clus>
</clustering>
</event>
<event>
 9    1  0.1445593E-005  0.1473864E+03  0.7546771E-02  0.1204675E+00
         21   -1    0    0  501  502  0.00000000000E+00  0.00000000000E+00  0.30519661650E+03  0.30519661650E+03  0.00000000000E+00 0. -1.
         -1   -1    0    0    0  501 -0.00000000000E+00 -0.00000000000E+00 -0.15226098620E+03  0.15226098620E+03  0.00000000000E+00 0.  1.
         23    2    1    2    0    0 -0.61827212050E+02  0.80141486032E+02 -0.28864741050E+02  0.13788335267E+03  0.89069544363E+02 0.  0.
         23    2    1    2    0    0  0.10536068369E+03 -0.92201524247E+02  0.43487861987E+02  0.17407181734E+03  0.93849926540E+02 0.  0.
        -13    1    3    3    0    0 -0.31378230787E+02  0.80295662216E+02  0.11873792334E+02  0.87022834258E+02  0.00000000000E+00 0.  1.
         13    1    3    3    0    0 -0.30448981264E+02 -0.15417618346E+00 -0.40738533385E+02  0.50860518407E+02  0.00000000000E+00 0. -1.
        -13    1    4    4    0    0  0.39574058832E+02 -0.88416027065E+01 -0.25068290493E+02  0.47672835652E+02  0.00000000000E+00 0.  1.
         13    1    4    4    0    0  0.65786624854E+02 -0.83359921541E+02  0.68556152480E+02  0.12639898169E+03  0.00000000000E+00 0. -1.
         -1    1    1    2    0  502 -0.43533471636E+02  0.12060038215E+02  0.13831250937E+03  0.14550243270E+03  0.00000000000E+00 0.  1.
<scales pt_clust_5="13000.00000" pt_clust_6="13000.00000" pt_clust_7="13000.00000" pt_clust_8="13000.00000" pt_clust_9="45.17309"></scales>
<clustering>
<clus scale="   45.173">  1  9  2 -1</clus>
<clus scale="   89.070">  5  6 -1 -1</clus>
<clus scale="   93.850">  7  8 -1 -1</clus>
<clus scale="  144.389">  2  5  1 -1</clus>
<clus scale="   45.173">  1  5  2 -1</clus>
</clustering>
</event>
<event>
 9    1  0.1445593E-005  0.1339698E+03  0.7546771E-02  0.1222897E+00
          1   -1    0    0  502    0 -0.00000000000E+00  0.00000000000E+00  0.89529413673E+03  0.89529413673E+03  0.00000000000E+00 0. -1.
         21   -1    0    0  501  502  0.00000000000E+00 -0.00000000000E+00 -0.29553025975E+02  0.29553025975E+02  0.00000000000E+00 0.  1.
         23    2    1    2    0    0 -0.74756155708E+02 -0.52309185978E+02  0.59619909892E+03  0.61073155697E+03  0.95994454873E+02 0.  0.
         23    2    1    2    0    0  0.93912495444E+02  0.37977613167E+02  0.21534763705E+03  0.25487550454E+03  0.91241778427E+02 0.  0.
        -11    1    3    3    0    0 -0.34069372113E+02 -0.76527538689E+02  0.33791618210E+03  0.34814441317E+03  0.00000000000E+00 0. -1.
         11    1    3    3    0    0 -0.40686783596E+02  0.24218352711E+02  0.25828291682E+03  0.26258714380E+03  0.00000000000E+00 0.  1.
        -13    1    4    4    0    0  0.11166014095E+03  0.26566445648E+02  0.17383371576E+03  0.20830728226E+03  0.00000000000E+00 0.  1.
         13    1    4    4    0    0 -0.17747645503E+02  0.11411167519E+02  0.41513921292E+02  0.46568222277E+02  0.00000000000E+00 0. -1.
          1    1    1    2  501    0 -0.19156339736E+02  0.14331572811E+02  0.54194374782E+02  0.59240101193E+02  0.00000000000E+00 0. -1.
<scales pt_clust_5="13000.00000" pt_clust_6="13000.00000" pt_clust_7="13000.00000" pt_clust_8="13000.00000" pt_clust_9="23.92403"></scales>
<clustering>
<clus scale="   23.924">  2  9  1 -1</clus>
<clus scale="   91.242">  7  8 -1 -1</clus>
<clus scale="   95.994">  5  6 -1 -1</clus>
<clus scale="  130.606">  2  7  1 -1</clus>
<clus scale="   23.924">  2  5  1 -1</clus>
</clustering>
</event>
<event>
 9    1  0.1469395E-005  0.9559307E+02  0.7546771E-02  0.1290348E+00
          1   -1    0    0  502    0 -0.00000000000E+00  0.00000000000E+00  0.15151854669E+03  0.15151854669E+03  0.00000000000E+00 0. -1.
         21   -1    0    0  501  502  0.00000000000E+00 -0.00000000000E+00 -0.13365324527E+03  0.13365324527E+03  0.00000000000E+00 0. -1.
         23    2    1    2    0    0 -0.22711731076E+02 -0.80840661292E+01  0.90806898776E+02  0.13012815298E+03  0.90034818145E+02 0.  0.
         23    2    1    2    0    0  0.50307066989E+02  0.41070470182E+01 -0.38974876488E+02  0.11109984111E+03  0.90975078306E+02 0.  0.
        -11    1    4    4    0    0 -0.16245649962E+02  0.20799997419E+02 -0.32956773870E+02  0.42222150339E+02  0.00000000000E+00 0.  1.
         11    1    4    4    0    0  0.66552716951E+02 -0.16692950401E+02 -0.60181026182E+01  0.68877690770E+02  0.00000000000E+00 0. -1.
        -13    1    3    3    0    0  0.34750895894E+02 -0.15552569643E+01  0.41320579592E+02  0.54013275104E+02  0.00000000000E+00 0.  1.
         13    1    3    3    0    0 -0.57462626970E+02 -0.65288091648E+01  0.49486319184E+02  0.76114877874E+02  0.00000000000E+00 0. -1.
          1    1    1    2  501    0 -0.27595335913E+02  0.39770191109E+01 -0.33966720866E+02  0.43943797873E+02  0.00000000000E+00 0. -1.
<scales pt_clust_5="13000.00000" pt_clust_6="13000.00000" pt_clust_7="13000.00000" pt_clust_8="13000.00000" pt_clust_9="27.88045"></scales>
<clustering>
<clus scale="   27.880">  2  9  1 -1</clus>
<clus scale="   90.035">  7  8 -1 -1</clus>
<clus scale="   90.975">  5  6 -1 -1</clus>
<clus scale="   94.699">  1  7  2 -1</clus>
<clus scale="   27.880">  2  5  1 -1</clus>
</clustering>
</event>
<event>
 9    1  0.1445593E-005  0.1677796E+03  0.7546771E-02  0.1180444E+00
         21   -1    0    0  501  502  0.00000000000E+00  0.00000000000E+00  0.11739525568E+03  0.11739525568E+03  0.00000000000E+00 0.  1.
          3   -1    0    0  502    0 -0.00000000000E+00 -0.00000000000E+00 -0.34636487743E+03  0.34636487743E+03  0.00000000000E+00 0. -1.
         23    2    1    2    0    0 -0.71557891136E+02  0.11436004505E+03 -0.19497717679E+03  0.25321437193E+03  0.88896945929E+02 0.  0.
         23    2    1    2    0    0  0.91140849373E+02 -0.12948393433E+03 -0.24895138438E+02  0.18418318797E+03  0.90724501313E+02 0.  0.
        -13    1    3    3    0    0  0.15797377254E+02  0.30141107157E+02 -0.17621456336E+02  0.38321784825E+02  0.00000000000E+00 0.  1.
         13    1    3    3    0    0 -0.87355268390E+02  0.84218937890E+02 -0.17735572045E+03  0.21489258710E+03  0.00000000000E+00 0. -1.
        -13    1    4    4    0    0  0.49499739623E+01 -0.85568473392E+02 -0.95966904254E+01  0.86247100519E+02  0.00000000000E+00 0. -1.
         13    1    4    4    0    0  0.86190875410E+02 -0.43915460940E+02 -0.15298448012E+02  0.97936087451E+02  0.00000000000E+00 0.  1.
          3    1    1    2  501    0 -0.19582958236E+02  0.15123889286E+02 -0.90973065250E+01  0.26362573213E+02  0.00000000000E+00 0. -1.
<scales pt_clust_5="13000.00000" pt_clust_6="13000.00000" pt_clust_7="13000.00000" pt_clust_8="13000.00000" pt_clust_9="24.74317"></scales>
<clustering>
<clus scale="   24.743">  1  9  2 -1</clus>
<clus scale="   88.897">  5  6 -1 -1</clus>
<clus scale="   90.725">  7  8 -1 -1</clus>
<clus scale="  166.799">  2  5  1 -1</clus>
<clus scale="   24.743">  1  5  2 -1</clus>
</clustering>
</event>
<event>
 9    1  0.1445593E-005  0.1316285E+03  0.7546771E-02  0.1226223E+00
          3   -1    0    0  502    0 -0.00000000000E+00  0.00000000000E+00  0.22493482975E+03  0.22493482975E+03  0.00000000000E+00 0. -1.
         21   -1    0    0  501  502  0.00000000000E+00 -0.00000000000E+00 -0.94911226505E+02  0.94911226505E+02  0.00000000000E+00 0.  1.
         23    2    1    2    0    0 -0.10157195030E+02  0.84084405072E+02  0.72182543244E+02  0.14575892743E+03  0.94138140992E+02 0.  0.
         23    2    1    2    0    0  0.28703378136E+02 -0.96938485060E+02  0.65601233702E+02  0.15022484528E+03  0.89682933014E+02 0.  0.
        -11    1    3    3    0    0 -0.43989497539E+02  0.77427521011E+02  0.36804275984E+02  0.96356897181E+02  0.00000000000E+00 0.  1.
         11    1    3    3    0    0  0.33832302510E+02  0.66568840618E+01  0.35378267260E+02  0.49402030251E+02  0.00000000000E+00 0. -1.
        -13    1    4    4    0    0  0.29147380122E+02  0.63731547876E+00 -0.52695473290E+01  0.29626745823E+02  0.00000000000E+00 0.  1.
         13    1    4    4    0    0 -0.44400198643E+00 -0.97575800539E+02  0.70870781031E+02  0.12059809946E+03  0.00000000000E+00 0. -1.
          3    1    1    2  501    0 -0.18546183106E+02  0.12854079988E+02 -0.77601737003E+01  0.23862283546E+02  0.00000000000E+00 0. -1.
<scales pt_clust_5="13000.00000" pt_clust_6="13000.00000" pt_clust_7="13000.00000" pt_clust_8="13000.00000" pt_clust_9="22.56520"></scales>
<clustering>
<clus scale="   22.565">  2  9  1 -1</clus>
<clus scale="   89.683">  7  8 -1 -1</clus>
<clus scale="   94.138">  5  6 -1 -1</clus>
<clus scale="  128.480">  2  7  1 -1</clus>
<clus scale="   22.565">  2  5  1 -1</clus>
</clustering>
</event>
<event>
 9    1  0.1445593E-005  0.1478470E+03  0.7546771E-02  0.1203599E+00
         21   -1    0    0  501  502  0.00000000000E+00  0.00000000000E+00  0.16675411459E+03  0.16675411459E+03  0.00000000000E+00 0. -1.
          3   -1    0    0  502    0 -0.00000000000E+00 -0.00000000000E+00 -0.29593966010E+03  0.29593966010E+03  0.00000000000E+00 0. -1.
         23    2    1    2    0    0 -0.94508192201E+02  0.12588020750E+03 -0.16474434263E+03  0.24506134680E+03  0.90203881489E+02 0.  0.
         23    2    1    2    0    0  0.21163436839E+02 -0.55587960595E+02  0.53993563864E-03  0.10999952042E+03  0.92530978982E+02 0.  0.
        -13    1    4    4    0    0  0.54993965378E+02 -0.41038755307E+02  0.14994293923E+02  0.70237771288E+02  0.00000000000E+00 0.  1.
         13    1    4    4    0    0 -0.33830528540E+02 -0.14549205288E+02 -0.14993753987E+02  0.39761749137E+02  0.00000000000E+00 0. -1.
        -13    1    3    3    0    0 -0.48835883371E+02  0.12659003755E+03 -0.12600389851E+03  0.18516739332E+03  0.00000000000E+00 0. -1.
         13    1    3    3    0    0 -0.45672308830E+02 -0.70983005159E+00 -0.38740444125E+02  0.59893953481E+02  0.00000000000E+00 0.  1.
          3    1    1    2  501    0  0.73344755362E+02 -0.70292246901E+02  0.35558257190E+02  0.10763290746E+03  0.00000000000E+00 0. -1.
<scales pt_clust_5="13000.00000" pt_clust_6="13000.00000" pt_clust_7="13000.00000" pt_clust_8="13000.00000" pt_clust_9="101.58963"></scales>
<clustering>
<clus scale="   90.204">  7  8 -1 -1</clus>
<clus scale="   92.531">  5  6 -1 -1</clus>
<clus scale="  101.590">  1  9  2 -1</clus>
<clus scale="  146.402">  2  7  1 -1</clus>
<clus scale="  101.590">  1  5  2 -1</clus>
</clustering>
</event>
<event>
 9    1  0.1445593E-005  0.1000897E+03  0.7546771E-02  0.1282228E+00
         21   -1    0    0  501  502  0.00000000000E+00  0.00000000000E+00  0.42653703092E+03  0.42653703092E+03  0.00000000000E+00 0.  1.
          2   -1    0    0  502    0 -0.00000000000E+00 -0.00000000000E+00 -0.42921848809E+02  0.42921848809E+02  0.00000000000E+00 0. -1.
         23    2    1    2    0    0 -0.42072494388E+02 -0.16320628312E+02  0.59387111067E+02  0.11524467761E+03  0.87852427765E+02 0.  0.
         23    2    1    2    0    0  0.10933714707E+02  0.19049787236E+02  0.30017948996E+03  0.31477556420E+03  0.92160127581E+02 0.  0.
        -11    1    4    4    0    0  0.33980452069E+02 -0.14943782572E+02  0.56130614040E+02  0.67295123099E+02  0.00000000000E+00 0. -1.
         11    1    4    4    0    0 -0.23046737363E+02  0.33993569808E+02  0.24404887592E+03  0.24748044110E+03  0.00000000000E+00 0.  1.
        -13    1    3    3    0    0 -0.28747632900E+01  0.29932068462E+02  0.42946320528E+02  0.52426896086E+02  0.00000000000E+00 0.  1.
         13    1    3    3    0    0 -0.39197731099E+02 -0.46252696773E+02  0.16440790540E+02  0.62817781524E+02  0.00000000000E+00 0. -1.
          2    1    1    2  501    0  0.31138779682E+02 -0.27291589245E+01  0.24048581087E+02  0.39438637918E+02  0.00000000000E+00 0. -1.
<scales pt_clust_5="13000.00000" pt_clust_6="13000.00000" pt_clust_7="13000.00000" pt_clust_8="13000.00000" pt_clust_9="31.25817"></scales>
<clustering>
<clus scale="   31.258">  1  9  2 -1</clus>
<clus scale="   87.852">  7  8 -1 -1</clus>
<clus scale="   92.160">  5  6 -1 -1</clus>
<clus scale="   96.138">  2  7  1 -1</clus>
<clus scale="   31.258">  1  5  2 -1</clus>
</clustering>
</event>
<event>
 9    1  0.1445593E-005  0.1041040E+03  0.7546771E-02  0.1272527E+00
          1   -1    0    0  502    0 -0.00000000000E+00  0.00000000000E+00  0.55275427109E+03  0.55275427109E+03  0.00000000000E+00 0. -1.
         21   -1    0    0  501  502  0.00000000000E+00 -0.00000000000E+00 -0.37918558702E+02  0.37918558702E+02  0.00000000000E+00 0.  1.
         23    2    1    2    0    0 -0.35893578891E+02  0.21050421472E+02  0.22101043357E+03  0.24262488575E+03  0.91048087212E+02 0.  0.
         23    2    1    2    0    0  0.67219000007E+02  0.37359643081E+02  0.18778641811E+03  0.22299892314E+03  0.92469692353E+02 0.  0.
        -11    1    4    4    0    0  0.35711172202E+02 -0.69162201945E+01  0.10929208868E+02  0.37981173340E+02  0.00000000000E+00 0.  1.
         11    1    4    4    0    0  0.31507827805E+02  0.44275863275E+02  0.17685720924E+03  0.18501774980E+03  0.00000000000E+00 0. -1.
        -13    1    3    3    0    0 -0.51886027106E+01  0.48927911911E+02  0.66983020538E+02  0.83111895674E+02  0.00000000000E+00 0.  1.
         13    1    3    3    0    0 -0.30704976180E+02 -0.27877490438E+02  0.15402741304E+03  0.15951299007E+03  0.00000000000E+00 0. -1.
          1    1    1    2  501    0 -0.31325421116E+02 -0.58410064553E+02  0.10603886070E+03  0.12504902090E+03  0.00000000000E+00 0. -1.
<scales pt_clust_5="13000.00000" pt_clust_6="13000.00000" pt_clust_7="13000.00000" pt_clust_8="13000.00000" pt_clust_9="66.27984"></scales>
<clustering>
<clus scale="   66.280">  2  9  1 -1</clus>
<clus scale="   91.048">  7  8 -1 -1</clus>
<clus scale="   92.470">  5  6 -1 -1</clus>
<clus scale="  102.843">  1  7  2 -1</clus>
<clus scale="   66.280">  2  5  1 -1</clus>
</clustering>
</event>
<event>
 9    1  0.1445593E-005  0.9768103E+02  0.7546771E-02  0.1285384E+00
          2   -1    0    0  502    0 -0.00000000000E+00  0.00000000000E+00  0.36735210455E+03  0.36735210455E+03  0.00000000000E+00 0. -1.
         21   -1    0    0  501  502  0.00000000000E+00 -0.00000000000E+00 -0.46621909837E+02  0.46621909837E+02  0.00000000000E+00 0.  1.
         23    2    1    2    0    0  0.38972106743E+02 -0.28542655806E+02  0.20273168970E+03  0.22742601331E+03  0.91043644569E+02 0.  0.
         23    2    1    2    0    0 -0.22771941946E+02 -0.12683418189E+02  0.10223902119E+03  0.13953315399E+03  0.91308560227E+02 0.  0.
        -11    1    3    3    0    0  0.62731585898E+02 -0.36994292996E+02  0.11481770448E+03  0.13596666814E+03  0.00000000000E+00 0. -1.
         11    1    3    3    0    0 -0.23759479155E+02  0.84516371892E+01  0.87913985229E+02  0.91459345175E+02  0.00000000000E+00 0.  1.
        -13    1    4    4    0    0  0.20186181434E+02  0.20072979990E+02  0.58868593167E+01  0.29069942538E+02  0.00000000000E+00 0.  1.
         13    1    4    4    0    0 -0.42958123380E+02 -0.32756398179E+02  0.96352161871E+02  0.11046321145E+03  0.00000000000E+00 0. -1.
          2    1    1    2  501    0 -0.16200164797E+02  0.41226073995E+02  0.15759483821E+02  0.47014847089E+02  0.00000000000E+00 0. -1.
<scales pt_clust_5="13000.00000" pt_clust_6="13000.00000" pt_clust_7="13000.00000" pt_clust_8="13000.00000" pt_clust_9="44.29486"></scales>
<clustering>
<clus scale="   44.295">  2  9  1 -1</clus>
<clus scale="   91.044">  5  6 -1 -1</clus>
<clus scale="   91.309">  7  8 -1 -1</clus>
<clus scale="   97.433">  1  5  2 -1</clus>
<clus scale="   44.295">  2  5  1 -1</clus>
</clustering>
</event>
<event>
 9    1  0.1445593E-005  0.1508423E+03  0.7546771E-02  0.1218048E+00
         21   -1    0    0  501  502  0.00000000000E+00  0.00000000000E+00  0.21378181641E+03  0.21378181641E+03  0.00000000000E+00 0. -1.
         -1   -1    0    0    0  501 -0.00000000000E+00 -0.00000000000E+00 -0.33422765349E+03  0.33422765349E+03  0.00000000000E+00 0.  1.
         23    2    1    2    0    0 -0.25400292918E+02 -0.51923531208E+02 -0.20160858577E+02  0.10328506691E+03  0.83187239728E+02 0.  0.
         23    2    1    2    0    0 -0.92402614450E+02  0.83508438955E+02 -0.22358457742E+03  0.27129452530E+03  0.89993075658E+02 0.  0.
        -13    1    4    4    0    0 -0.54809453141E+02 -0.27345306340E+01 -0.51952970655E+02  0.75568941843E+02  0.00000000000E+00 0. -1.
         13    1    4    4    0    0 -0.37593161309E+02  0.86242969589E+02 -0.17163160676E+03  0.19572558346E+03  0.00000000000E+00 0.  1.
        -13    1    3    3    0    0  0.28702222297E+02 -0.93004348826E+01  0.36916253729E+01  0.30396443077E+02  0.00000000000E+00 0.  1.
         13    1    3    3    0    0 -0.54102515216E+02 -0.42623096326E+02 -0.23852483950E+02  0.72888623829E+02  0.00000000000E+00 0. -1.
         -1    1    1    2    0  502  0.11780290737E+03 -0.31584907747E+02  0.12329959892E+03  0.17342987769E+03  0.00000000000E+00 0.  1.
<scales pt_clust_5="13000.00000" pt_clust_6="13000.00000" pt_clust_7="13000.00000" pt_clust_8="13000.00000" pt_clust_9="121.05636"></scales>
<clustering>
<clus scale="   83.187">  7  8 -1 -1</clus>
<clus scale="   89.993">  5  6 -1 -1</clus>
<clus scale="  101.298">  2  7  1 -1</clus>
<clus scale="  121.056">  1  9  2 -1</clus>
<clus scale="  121.056">  1  5  2 -1</clus>
</clustering>
</event>
<event>
 9    1  0.1445593E-005  0.1110460E+03  0.7546771E-02  0.1259248E+00
         -3   -1    0    0    0  501 -0.00000000000E+00  0.00000000000E+00  0.20175790950E+03  0.20175790950E+03  0.00000000000E+00 0.  1.
         21   -1    0    0  501  502  0.00000000000E+00 -0.00000000000E+00 -0.18659002693E+03  0.18659002693E+03  0.00000000000E+00 0.  1.
         23    2    1    2    0    0  0.47261167856E+01  0.51544362699E+02  0.10110736929E+03  0.14599258472E+03  0.91716831403E+02 0.  0.
         23    2    1    2    0    0  0.21245245031E+02 -0.90795607313E+02  0.15423494307E+02  0.13059835749E+03  0.90126822075E+02 0.  0.
        -11    1    4    4    0    0  0.49911643324E+02 -0.86812077733E+02  0.17191968086E+02  0.10160252333E+03  0.00000000000E+00 0.  1.
         11    1    4    4    0    0 -0.28666398294E+02 -0.39835295798E+01 -0.17684737784E+01  0.28995834158E+02  0.00000000000E+00 0. -1.
        -13    1    3    3    0    0 -0.39258388941E+02  0.14465707057E+02  0.19533544952E+02  0.46173987929E+02  0.00000000000E+00 0. -1.
         13    1    3    3    0    0  0.43984505727E+02  0.37078655643E+02  0.81573824334E+02  0.99818596788E+02  0.00000000000E+00 0.  1.
         -3    1    1    2    0  502 -0.25971361816E+02  0.39251244614E+02 -0.10136298102E+03  0.11175699423E+03  0.00000000000E+00 0.  1.
<scales pt_clust_5="13000.00000" pt_clust_6="13000.00000" pt_clust_7="13000.00000" pt_clust_8="13000.00000" pt_clust_9="47.06561"></scales>
<clustering>
<clus scale="   47.066">  2  9  1 -1</clus>
<clus scale="   90.127">  5  6 -1 -1</clus>
<clus scale="   91.717">  7  8 -1 -1</clus>
<clus scale="  109.736">  2  5  1 -1</clus>
<clus scale="   47.066">  2  5  1 -1</clus>
</clustering>
</event>
<event>
 9    1  0.1445593E-005  0.1247797E+03  0.7546771E-02  0.1238553E+00
          1   -1    0    0  502    0 -0.00000000000E+00  0.00000000000E+00  0.98426779230E+03  0.98426779230E+03  0.00000000000E+00 0. -1.
         21   -1    0    0  501  502  0.00000000000E+00 -0.00000000000E+00 -0.39490091008E+02  0.39490091008E+02  0.00000000000E+00 0.  1.
         23    2    1    2    0    0 -0.92411193014E+02 -0.15658037499E+01  0.69705403048E+03  0.70924820496E+03  0.92770763106E+02 0.  0.
         23    2    1    2    0    0  0.40387214587E+02  0.44216051529E+02  0.67054296962E+02  0.12172233278E+03  0.82060107487E+02 0.  0.
        -11    1    4    4    0    0  0.42910213408E+00  0.54398314003E+02  0.17263276008E+02  0.57073473642E+02  0.00000000000E+00 0.  1.
         11    1    4    4    0    0  0.39958112453E+02 -0.10182262474E+02  0.49791020954E+02  0.64648859135E+02  0.00000000000E+00 0. -1.
        -11    1    3    3    0    0 -0.34173741125E+02 -0.46252944080E+02  0.29771756018E+03  0.30322091791E+03  0.00000000000E+00 0. -1.
         11    1    3    3    0    0 -0.58237451889E+02  0.44687140330E+02  0.39933647030E+03  0.40602728705E+03  0.00000000000E+00 0.  1.
          1    1    1    2  501    0  0.52023978427E+02 -0.42650247780E+02  0.18066937385E+03  0.19278734558E+03  0.00000000000E+00 0. -1.
<scales pt_clust_5="13000.00000" pt_clust_6="13000.00000" pt_clust_7="13000.00000" pt_clust_8="13000.00000" pt_clust_9="67.27215"></scales>
<clustering>
<clus scale="   67.272">  2  9  1 -1</clus>
<clus scale="   82.060">  5  6 -1 -1</clus>
<clus scale="   92.771">  7  8 -1 -1</clus>
<clus scale="  117.036">  2  5  1 -1</clus>
<clus scale="   67.272">  2  5  1 -1</clus>
</clustering>
</event>
<event>
 9    1  0.1445593E-005  0.1285624E+03  0.7546771E-02  0.1229966E+00
          1   -1    0    0  502    0 -0.00000000000E+00  0.00000000000E+00  0.17475815555E+03  0.17475815555E+03  0.00000000000E+00 0. -1.
         21   -1    0    0  501  502  0.00000000000E+00 -0.00000000000E+00 -0.24373379793E+03  0.24373379793E+03  0.00000000000E+00 0.  1.
         23    2    1    2    0    0  0.34796735726E+02 -0.79466969628E+02  0.11025143848E+03  0.16754096070E+03  0.91590292855E+02 0.  0.
         23    2    1    2    0    0 -0.56637505716E+02  0.93458643266E+02 -0.11786657403E+03  0.18433344281E+03  0.90243912875E+02 0.  0.
        -11    1    4    4    0    0 -0.40800469247E+02 -0.56030121117E+01 -0.29683702753E+02  0.50766073756E+02  0.00000000000E+00 0. -1.
         11    1    4    4    0    0 -0.15837036469E+02  0.99061655377E+02 -0.88182871273E+02  0.13356736905E+03  0.00000000000E+00 0.  1.
        -13    1    3    3    0    0  0.44669432291E+01 -0.84377984579E+02  0.10744315070E+03  0.13668807005E+03  0.00000000000E+00 0. -1.
         13    1    3    3    0    0  0.30329792497E+02  0.49110149504E+01  0.28082877831E+01  0.30852890643E+02  0.00000000000E+00 0.  1.
          1    1    1    2  501    0  0.21840769990E+02 -0.13991673637E+02 -0.61360506832E+02  0.66617549967E+02  0.00000000000E+00 0. -1.
<scales pt_clust_5="13000.00000" pt_clust_6="13000.00000" pt_clust_7="13000.00000" pt_clust_8="13000.00000" pt_clust_9="25.93812"></scales>
<clustering>
<clus scale="   25.938">  2  9  1 -1</clus>
<clus scale="   90.244">  5  6 -1 -1</clus>
<clus scale="   91.590">  7  8 -1 -1</clus>
<clus scale="  127.607">  2  5  1 -1</clus>
<clus scale="   25.938">  2  5  1 -1</clus>
</clustering>
</event>
<event>
 9    1  0.1445593E-005  0.1633081E+03  0.7546771E-02  0.1205124E+00
          1   -1    0    0  502    0 -0.00000000000E+00  0.00000000000E+00  0.78220713686E+03  0.78220713686E+03  0.00000000000E+00 0. -1.
         21   -1    0    0  501  502  0.00000000000E+00 -0.00000000000E+00 -0.11161098874E+03  0.11161098874E+03  0.00000000000E+00 0. -1.
         23    2    1    2    0    0 -0.21996980912E+02  0.31673734923E+02  0.52489833037E+03  0.53532078227E+03  0.97790541751E+02 0.  0.
         23    2    1    2    0    0  0.37885964231E+01 -0.15771213418E+03  0.14154552423E+03  0.23108280376E+03  0.92068757091E+02 0.  0.
        -11    1    3    3    0    0 -0.54744972656E+02  0.43284488892E+02  0.37603316277E+03  0.38245457052E+03  0.00000000000E+00 0. -1.
         11    1    3    3    0    0  0.32747991744E+02 -0.11610753969E+02  0.14886516760E+03  0.15286621175E+03  0.00000000000E+00 0.  1.
        -13    1    4    4    0    0 -0.33041488708E+02 -0.12879373823E+03  0.85641465084E+02  0.15815823572E+03  0.00000000000E+00 0. -1.
         13    1    4    4    0    0  0.36830085132E+02 -0.28918395954E+02  0.55904059143E+02  0.72924568041E+02  0.00000000000E+00 0.  1.
          1    1    1    2  501    0  0.18208384489E+02  0.12603839926E+03  0.41522935299E+01  0.12741453958E+03  0.00000000000E+00 0. -1.
<scales pt_clust_5="13000.00000" pt_clust_6="13000.00000" pt_clust_7="13000.00000" pt_clust_8="13000.00000" pt_clust_9="134.88100"></scales>
<clustering>
<clus scale="   92.069">  7  8 -1 -1</clus>
<clus scale="   97.791">  5  6 -1 -1</clus>
<clus scale="  105.119">  1  5  2 -1</clus>
<clus scale="  134.881">  2  9  1 -1</clus>
<clus scale="  134.881">  2  5  1 -1</clus>
</clustering>
</event>
<event>
 9    1  0.1445593E-005  0.1937753E+03  0.7546771E-02  0.1155166E+00
         21   -1    0    0  501  502  0.00000000000E+00  0.00000000000E+00  0.76003923315E+02  0.76003923315E+02  0.00000000000E+00 0. -1.
          2   -1    0    0  502    0 -0.00000000000E+00 -0.00000000000E+00 -0.66188627506E+03  0.66188627506E+03  0.00000000000E+00 0. -1.
         23    2    1    2    0    0  0.18304961393E+02  0.15086261219E+03 -0.26898678098E+03  0.32233705433E+03  0.91938505995E+02 0.  0.
         23    2    1    2    0    0 -0.34641081679E+01 -0.19862526590E+03 -0.26348101316E+03  0.34237775898E+03  0.91303281713E+02 0.  0.
        -13    1    4    4    0    0 -0.42131733408E+02 -0.53703275038E+02 -0.91971776452E+02  0.11453354257E+03  0.00000000000E+00 0.  1.
         13    1    4    4    0    0  0.38667625240E+02 -0.14492199087E+03 -0.17150923670E+03  0.22784421641E+03  0.00000000000E+00 0. -1.
        -13    1    3    3    0    0 -0.21839063632E+02  0.25702224431E+02 -0.11518470425E+03  0.12002110287E+03  0.00000000000E+00 0.  1.
         13    1    3    3    0    0  0.40144025026E+02  0.12516038776E+03 -0.15380207673E+03  0.20231595146E+03  0.00000000000E+00 0. -1.
          2    1    1    2  501    0 -0.14840853226E+02  0.47762653716E+02 -0.53414557604E+02  0.73175385059E+02  0.00000000000E+00 0. -1.
<scales pt_clust_5="13000.00000" pt_clust_6="13000.00000" pt_clust_7="13000.00000" pt_clust_8="13000.00000" pt_clust_9="50.01522"></scales>
<clustering>
<clus scale="   50.015">  1  9  2 -1</clus>
<clus scale="   91.303">  5  6 -1 -1</clus>
<clus scale="   91.939">  7  8 -1 -1</clus>
<clus scale="  193.475">  1  5  2 -1</clus>
<clus scale="   50.015">  1  5  2 -1</clus>
</clustering>
</event>
<event>
 9    1  0.1445593E-005  0.1821560E+03  0.7546771E-02  0.1165747E+00
         -2   -1    0    0    0  501 -0.00000000000E+00  0.00000000000E+00  0.12151455680E+04  0.12151455680E+04  0.00000000000E+00 0.  1.
         21   -1    0    0  501  502  0.00000000000E+00 -0.00000000000E+00 -0.54185788310E+02  0.54185788310E+02  0.00000000000E+00 0.  1.
         23    2    1    2    0    0 -0.13855040245E+03 -0.59506858794E+02  0.76427916063E+03  0.78430454750E+03  0.90959923084E+02 0.  0.
         23    2    1    2    0    0  0.18712690770E+03  0.10440165908E+02  0.31974492953E+03  0.38165216231E+03  0.91082799625E+02 0.  0.
        -13    1    4    4    0    0  0.73732419763E+02  0.45285894808E+02  0.10259997499E+03  0.13421638075E+03  0.00000000000E+00 0.  1.
         13    1    4    4    0    0  0.11339448794E+03 -0.34845728900E+02  0.21714495453E+03  0.24743578156E+03  0.00000000000E+00 0. -1.
        -13    1    3    3    0    0 -0.40396586424E+02  0.20668456583E+02  0.13600898730E+03  0.14337891727E+03  0.00000000000E+00 0. -1.
         13    1    3    3    0    0 -0.98153816027E+02 -0.80175315377E+02  0.62827017333E+03  0.64092563023E+03  0.00000000000E+00 0.  1.
         -2    1    1    2    0  502 -0.48576505250E+02  0.49066692886E+02  0.76935689532E+02  0.10337464649E+03  0.00000000000E+00 0.  1.
<scales pt_clust_5="13000.00000" pt_clust_6="13000.00000" pt_clust_7="13000.00000" pt_clust_8="13000.00000" pt_clust_9="69.04504"></scales>
<clustering>
<clus scale="   69.045">  2  9  1 -1</clus>
<clus scale="   90.960">  7  8 -1 -1</clus>
<clus scale="   91.083">  5  6 -1 -1</clus>
<clus scale="  182.095">  1  7  2 -1</clus>
<clus scale="   69.045">  2  5  1 -1</clus>
</clustering>
</event>
<event>
 9    1  0.1445593E-005  0.1028987E+03  0.7546771E-02  0.1276010E+00
         -1   -1    0    0    0  501 -0.00000000000E+00  0.00000000000E+00  0.33144515428E+02  0.33144515428E+02  0.00000000000E+00 0.  1.
         21   -1    0    0  501  502  0.00000000000E+00 -0.00000000000E+00 -0.66577155870E+03  0.66577155870E+03  0.00000000000E+00 0.  1.
         23    2    1    2    0    0  0.36466906874E+02  0.51413013363E+02 -0.15436105442E+03  0.19101215455E+03  0.93194285352E+02 0.  0.
         23    2    1    2    0    0  0.15898024263E+02 -0.31831218510E+02 -0.17732919011E+03  0.20181816438E+03  0.89548624560E+02 0.  0.
        -13    1    4    4    0    0  0.14179401878E+02 -0.58261679809E+02 -0.74503497224E+02  0.95636028098E+02  0.00000000000E+00 0. -1.
         13    1    4    4    0    0  0.17186223850E+01  0.26430461299E+02 -0.10282569289E+03  0.10618213628E+03  0.00000000000E+00 0.  1.
        -13    1    3    3    0    0 -0.26183070495E+02  0.41503955833E+02 -0.68438235819E+02  0.84213559789E+02  0.00000000000E+00 0. -1.
         13    1    3    3    0    0  0.62649977369E+02  0.99090575308E+01 -0.85922818601E+02  0.10679859476E+03  0.00000000000E+00 0.  1.
         -1    1    1    2    0  502 -0.52364931137E+02 -0.19581794854E+02 -0.30093679874E+03  0.30608575520E+03  0.00000000000E+00 0.  1.
<scales pt_clust_5="13000.00000" pt_clust_6="13000.00000" pt_clust_7="13000.00000" pt_clust_8="13000.00000" pt_clust_9="55.90646"></scales>
<clustering>
<clus scale="   55.906">  2  9  1 -1</clus>
<clus scale="   89.549">  5  6 -1 -1</clus>
<clus scale="   93.194">  7  8 -1 -1</clus>
<clus scale="   99.609">  2  5  1 -1</clus>
<clus scale="   55.906">  2  5  1 -1</clus>
</clustering>
</event>
<event>
 9    1  0.1445593E-005  0.9956822E+02  0.7546771E-02  0.1282762E+00
         21   -1    0    0  501  502  0.00000000000E+00  0.00000000000E+00  0.50127857285E+03  0.50127857285E+03  0.00000000000E+00 0.  1.
         -1   -1    0    0    0  501 -0.00000000000E+00 -0.00000000000E+00 -0.36906884803E+02  0.36906884803E+02  0.00000000000E+00 0.  1.
         23    2    1    2    0    0 -0.39993599546E+02  0.88504433363E+01  0.99574845079E+02  0.14079070246E+03  0.90714132171E+02 0.  0.
         23    2    1    2    0    0  0.24642015823E+02  0.16260404991E+02  0.14235419941E+03  0.17301348258E+03  0.93794015534E+02 0.  0.
        -13    1    4    4    0    0  0.58914866171E+02  0.21509485262E+02  0.10271997774E+03  0.12035370056E+03  0.00000000000E+00 0. -1.
         13    1    4    4    0    0 -0.34272850348E+02 -0.52490802709E+01  0.39634221678E+02  0.52659782022E+02  0.00000000000E+00 0.  1.
        -13    1    3    3    0    0 -0.19214181183E+02  0.48872793630E+02  0.39690850511E+02  0.65826273858E+02  0.00000000000E+00 0. -1.
         13    1    3    3    0    0 -0.20779418363E+02 -0.40022350294E+02  0.59883994568E+02  0.74964428604E+02  0.00000000000E+00 0.  1.
         -1    1    1    2    0  502  0.15351583723E+02 -0.25110848328E+02  0.22244264355E+03  0.22438127261E+03  0.00000000000E+00 0.  1.
<scales pt_clust_5="13000.00000" pt_clust_6="13000.00000" pt_clust_7="13000.00000" pt_clust_8="13000.00000" pt_clust_9="29.43171"></scales>
<clustering>
<clus scale="   29.432">  1  9  2 -1</clus>
<clus scale="   90.714">  7  8 -1 -1</clus>
<clus scale="   93.794">  5  6 -1 -1</clus>
<clus scale="   96.672">  2  7  1 -1</clus>
<clus scale="   29.432">  1  5  2 -1</clus>
</clustering>
</event>
<event>
 9    1  0.1445593E-005  0.1127992E+03  0.7546771E-02  0.1260594E+00
         -2   -1    0    0    0  501 -0.00000000000E+00  0.00000000000E+00  0.22930923648E+03  0.22930923648E+03  0.00000000000E+00 0.  1.
         21   -1    0    0  501  502  0.00000000000E+00 -0.00000000000E+00 -0.68750246081E+02  0.68750246081E+02  0.00000000000E+00 0. -1.
         23    2    1    2    0    0  0.19836495831E+02 -0.34687039186E+02  0.85135491933E+02  0.12932607566E+03  0.88772206269E+02 0.  0.
         23    2    1    2    0    0 -0.24690901385E+02  0.61244537341E+02  0.74256832711E+02  0.14171069292E+03  0.10103122943E+03 0.  0.
        -11    1    4    4    0    0  0.38888135457E+02  0.28670187874E+02  0.21385130043E+02  0.52835504530E+02  0.00000000000E+00 0. -1.
         11    1    4    4    0    0 -0.63579036842E+02  0.32574349466E+02  0.52871702669E+02  0.88875188394E+02  0.00000000000E+00 0.  1.
        -13    1    3    3    0    0 -0.31076127731E+02 -0.24069833674E+01  0.51759617805E+02  0.60420007605E+02  0.00000000000E+00 0.  1.
         13    1    3    3    0    0  0.50912623562E+02 -0.32280055818E+02  0.33375874128E+02  0.68906068060E+02  0.00000000000E+00 0. -1.
         -2    1    1    2    0  502  0.48544055541E+01 -0.26557498155E+02  0.11666657563E+01  0.27022713974E+02  0.00000000000E+00 0.  1.
<scales pt_clust_5="13000.00000" pt_clust_6="13000.00000" pt_clust_7="13000.00000" pt_clust_8="13000.00000" pt_clust_9="26.99752"></scales>
<clustering>
<clus scale="   26.998">  2  9  1 -1</clus>
<clus scale="   88.772">  7  8 -1 -1</clus>
<clus scale="  101.031">  5  6 -1 -1</clus>
<clus scale="  101.965">  1  7  2 -1</clus>
<clus scale="   26.998">  2  5  1 -1</clus>
</clustering>
</event>
<event>
 9    1  0.1445593E-005  0.1253727E+03  0.7546771E-02  0.1234870E+00
         -1   -1    0    0    0  501 -0.00000000000E+00  0.00000000000E+00  0.22239101369E+03  0.22239101369E+03  0.00000000000E+00 0.  1.
         21   -1    0    0  501  502  0.00000000000E+00 -0.00000000000E+00 -0.38359424684E+03  0.38359424684E+03  0.00000000000E+00 0.  1.
         23    2    1    2    0    0  0.60775385842E+02  0.42964201281E+02  0.74557932890E+02  0.13954860722E+03  0.91516983693E+02 0.  0.
         23    2    1    2    0    0 -0.35522536770E+02 -0.10206303720E+03  0.66635793495E+02  0.15728571941E+03  0.92842632309E+02 0.  0.
        -11    1    4    4    0    0  0.29078392473E+02 -0.28410034073E+02  0.36900582661E+02  0.54902968458E+02  0.00000000000E+00 0.  1.
         11    1    4    4    0    0 -0.64600929243E+02 -0.73653003131E+02  0.29735210835E+02  0.10238275095E+03  0.00000000000E+00 0. -1.
        -11    1    3    3    0    0 -0.27749611037E-01  0.52527760589E+02  0.16818097283E+02  0.55154463090E+02  0.00000000000E+00 0. -1.
         11    1    3    3    0    0  0.60803135453E+02 -0.95635593076E+01  0.57739835607E+02  0.84394144131E+02  0.00000000000E+00 0.  1.
         -1    1    1    2    0  502 -0.25252849073E+02  0.59098835923E+02 -0.30239695954E+03  0.30915093390E+03  0.00000000000E+00 0.  1.
<scales pt_clust_5="13000.00000" pt_clust_6="13000.00000" pt_clust_7="13000.00000" pt_clust_8="13000.00000" pt_clust_9="64.26802"></scales>
<clustering>
<clus scale="   64.268">  2  9  1 -1</clus>
<clus scale="   91.517">  7  8 -1 -1</clus>
<clus scale="   92.843">  5  6 -1 -1</clus>
<clus scale="  124.394">  1  7  2 -1</clus>
<clus scale="   64.268">  2  5  1 -1</clus>
</clustering>
</event>
<event>
 9    1  0.1445593E-005  0.9030545E+02  0.7546771E-02  0.1303989E+00
          2   -1    0    0  502    0 -0.00000000000E+00  0.00000000000E+00  0.11453890991E+03  0.11453890991E+03  0.00000000000E+00 0. -1.
         21   -1    0    0  501  502  0.00000000000E+00 -0.00000000000E+00 -0.10953701459E+03  0.10953701459E+03  0.00000000000E+00 0.  1.
         23    2    1    2    0    0 -0.10784829050E+02  0.68918055984E+01  0.47918842786E+02  0.10257138712E+03  0.89782316968E+02 0.  0.
         23    2    1    2    0    0  0.65942241642E+01  0.14348237252E+02 -0.46357667915E+02  0.99583334245E+02  0.86709004033E+02 0.  0.
        -11    1    3    3    0    0 -0.23197729514E+02 -0.12298644055E+02 -0.18638588689E+02  0.32199197016E+02  0.00000000000E+00 0.  1.
         11    1    3    3    0    0  0.12412900464E+02  0.19190449653E+02  0.66557431475E+02  0.70372190106E+02  0.00000000000E+00 0. -1.
        -11    1    4    4    0    0 -0.13044356764E+02  0.45575981017E+02 -0.40256554532E+02  0.62192567658E+02  0.00000000000E+00 0.  1.
         11    1    4    4    0    0  0.19638580928E+02 -0.31227743765E+02 -0.61011133827E+01  0.37390766588E+02  0.00000000000E+00 0. -1.
          2    1    1    2  501    0  0.41906048856E+01 -0.21240042850E+02  0.34407204565E+01  0.21921203134E+02  0.00000000000E+00 0. -1.
<scales pt_clust_5="13000.00000" pt_clust_6="13000.00000" pt_clust_7="13000.00000" pt_clust_8="13000.00000" pt_clust_9="21.64950"></scales>
<clustering>
<clus scale="   21.650">  2  9  1 -1</clus>
<clus scale="   86.709">  7  8 -1 -1</clus>
<clus scale="   87.251">  2  7  1 -1</clus>
<clus scale="   89.782">  5  6 -1 -1</clus>
<clus scale="   21.650">  2  5  1 -1</clus>
</clustering>
</event>
<event>
 9    1  0.1445593E-005  0.1677520E+03  0.7546771E-02  0.1180275E+00
         21   -1    0    0  501  502  0.00000000000E+00  0.00000000000E+00  0.25520811387E+03  0.25520811387E+03  0.00000000000E+00 0.  1.
         -3   -1    0    0    0  501 -0.00000000000E+00 -0.00000000000E+00 -0.41494647344E+03  0.41494647344E+03  0.00000000000E+00 0.  1.
         23    2    1    2    0    0  0.84568194116E+02 -0.13884974187E+03 -0.25916785798E+03  0.31928842028E+03  0.91356917856E+02 0.  0.
         23    2    1    2    0    0 -0.22037072079E+02  0.11030648334E+03 -0.74979823829E+02  0.16340024875E+03  0.91785154011E+02 0.  0.
        -13    1    4    4    0    0  0.26302367476E+02  0.22239337655E+01 -0.18396865411E+02  0.32174602922E+02  0.00000000000E+00 0.  1.
         13    1    4    4    0    0 -0.48339439556E+02  0.10808254958E+03 -0.56582958418E+02  0.13122564583E+03  0.00000000000E+00 0. -1.
        -13    1    3    3    0    0  0.62002530855E+02 -0.81121179429E+02 -0.22820039596E+03  0.25000076060E+03  0.00000000000E+00 0.  1.
         13    1    3    3    0    0  0.22565663261E+02 -0.57728562446E+02 -0.30967462029E+02  0.69287659687E+02  0.00000000000E+00 0. -1.
         -3    1    1    2    0  502 -0.62531122037E+02  0.28543258534E+02  0.17440932224E+03  0.18746591827E+03  0.00000000000E+00 0.  1.
<scales pt_clust_5="13000.00000" pt_clust_6="13000.00000" pt_clust_7="13000.00000" pt_clust_8="13000.00000" pt_clust_9="68.73761"></scales>
<clustering>
<clus scale="   68.738">  1  9  2 -1</clus>
<clus scale="   91.357">  7  8 -1 -1</clus>
<clus scale="   91.785">  5  6 -1 -1</clus>
<clus scale="  167.518">  2  7  1 -1</clus>
<clus scale="   68.738">  1  5  2 -1</clus>
</clustering>
</event>
<event>
 9    1  0.1445593E-005  0.1164057E+03  0.7546771E-02  0.1249362E+00
         21   -1    0    0  501  502  0.00000000000E+00  0.00000000000E+00  0.64032964346E+02  0.64032964346E+02  0.00000000000E+00 0.  1.
          1   -1    0    0  502    0 -0.00000000000E+00 -0.00000000000E+00 -0.29533852240E+03  0.29533852240E+03  0.00000000000E+00 0. -1.
         23    2    1    2    0    0 -0.35844074958E+02  0.63009405369E+02 -0.14707152605E+03  0.18885204033E+03  0.93702062344E+02 0.  0.
         23    2    1    2    0    0  0.12611626233E+02 -0.63493142823E+02 -0.39411847415E+02  0.12003173596E+03  0.93080028038E+02 0.  0.
        -13    1    3    3    0    0 -0.10061505494E+02  0.29734161358E+02  0.43481017121E+01  0.31690065209E+02  0.00000000000E+00 0.  1.
         13    1    3    3    0    0 -0.25782569464E+02  0.33275244011E+02 -0.15141962776E+03  0.15716197512E+03  0.00000000000E+00 0. -1.
        -13    1    4    4    0    0  0.33324889800E+02 -0.74256343561E+02 -0.92840580254E+01  0.81919146557E+02  0.00000000000E+00 0.  1.
         13    1    4    4    0    0 -0.20713263567E+02  0.10763200737E+02 -0.30127789390E+02  0.38112589406E+02  0.00000000000E+00 0. -1.
          1    1    1    2  501    0  0.23232448725E+02  0.48373745408E+00 -0.44822184588E+02  0.50487710454E+02  0.00000000000E+00 0. -1.
<scales pt_clust_5="13000.00000" pt_clust_6="13000.00000" pt_clust_7="13000.00000" pt_clust_8="13000.00000" pt_clust_9="23.23750"></scales>
<clustering>
<clus scale="   23.237">  1  9  2 -1</clus>
<clus scale="   93.080">  7  8 -1 -1</clus>
<clus scale="   93.702">  5  6 -1 -1</clus>
<clus scale="  115.906">  1  7  2 -1</clus>
<clus scale="   23.237">  1  5  2 -1</clus>
</clustering>
</event>
<event>
 9    1  0.1508115E-005  0.1006890E+03  0.7546771E-02  0.1279416E+00
          2   -1    0    0  502    0 -0.00000000000E+00  0.00000000000E+00  0.32832340133E+03  0.32832340133E+03  0.00000000000E+00 0. -1.
         21   -1    0    0  501  502  0.00000000000E+00 -0.00000000000E+00 -0.17205212391E+03  0.17205212391E+03  0.00000000000E+00 0. -1.
         23    2    1    2    0    0 -0.46794254291E+02  0.29705308014E+02  0.21626747172E+03  0.24183949114E+03  0.92965652741E+02 0.  0.
         23    2    1    2    0    0 -0.63227218541E+01 -0.70677363261E+01  0.69081784302E+02  0.11713236595E+03  0.94115718780E+02 0.  0.
        -13    1    4    4    0    0  0.30246369240E+02  0.29938982308E+02  0.31811159418E+02  0.53133185274E+02  0.00000000000E+00 0.  1.
         13    1    4    4    0    0 -0.36569091094E+02 -0.37006718634E+02  0.37270624884E+02  0.63999180673E+02  0.00000000000E+00 0. -1.
        -13    1    3    3    0    0  0.15449335639E+01 -0.28928224972E+02  0.89165011455E+02  0.93753017485E+02  0.00000000000E+00 0.  1.
         13    1    3    3    0    0 -0.48339187855E+02  0.58633532985E+02  0.12710246027E+03  0.14808647365E+03  0.00000000000E+00 0. -1.
          2    1    1    2  501    0  0.53116976145E+02 -0.22637571687E+02 -0.12907797860E+03  0.14140366815E+03  0.00000000000E+00 0. -1.
<scales pt_clust_5="13000.00000" pt_clust_6="13000.00000" pt_clust_7="13000.00000" pt_clust_8="13000.00000" pt_clust_9="57.73970"></scales>
<clustering>
<clus scale="   57.740">  2  9  1 -1</clus>
<clus scale="   92.966">  7  8 -1 -1</clus>
<clus scale="   94.116">  5  6 -1 -1</clus>
<clus scale="   99.615">  1  7  2 -1</clus>
<clus scale="   57.740">  2  5  1 -1</clus>
</clustering>
</event>
<event>
 9    1  0.1445593E-005  0.1503294E+03  0.7546771E-02  0.1200354E+00
         21   -1    0    0  501  502  0.00000000000E+00  0.00000000000E+00  0.42151220594E+03  0.42151220594E+03  0.00000000000E+00 0.  1.
          1   -1    0    0  502    0 -0.00000000000E+00 -0.00000000000E+00 -0.12013977222E+03  0.12013977222E+03  0.00000000000E+00 0. -1.
         23    2    1    2    0    0 -0.94452240885E+02 -0.76145866262E+02 -0.37360435411E+02  0.15652311635E+03  0.91565632539E+02 0.  0.
         23    2    1    2    0    0  0.10537480510E+03  0.43345782602E+02  0.23995578093E+03  0.28047676651E+03  0.90031846202E+02 0.  0.
        -11    1    4    4    0    0  0.22056969118E+02 -0.27526846267E+02  0.48393677716E+02  0.59884765967E+02  0.00000000000E+00 0. -1.
         11    1    4    4    0    0  0.83317835981E+02  0.70872628869E+02  0.19156210321E+03  0.22059200054E+03  0.00000000000E+00 0.  1.
        -13    1    3    3    0    0 -0.32919963493E+02  0.19297238492E+02 -0.52996899755E+01  0.38525240085E+02  0.00000000000E+00 0.  1.
         13    1    3    3    0    0 -0.61532277392E+02 -0.95443104754E+02 -0.32060745435E+02  0.11799787627E+03  0.00000000000E+00 0. -1.
          1    1    1    2  501    0 -0.10922564214E+02  0.32800083660E+02  0.98777088199E+02  0.10465209530E+03  0.00000000000E+00 0. -1.
<scales pt_clust_5="13000.00000" pt_clust_6="13000.00000" pt_clust_7="13000.00000" pt_clust_8="13000.00000" pt_clust_9="34.57091"></scales>
<clustering>
<clus scale="   34.571">  1  9  2 -1</clus>
<clus scale="   90.032">  5  6 -1 -1</clus>
<clus scale="   91.566">  7  8 -1 -1</clus>
<clus scale="  149.400">  1  5  2 -1</clus>
<clus scale="   34.571">  1  5  2 -1</clus>
</clustering>
</event>
<event>
 9    1  0.1445593E-005  0.3441713E+03  0.7546771E-02  0.1065087E+00
         21   -1    0    0  501  502  0.00000000000E+00  0.00000000000E+00  0.88745385437E+02  0.88745385437E+02  0.00000000000E+00 0. -1.
          1   -1    0    0  502    0 -0.00000000000E+00 -0.00000000000E+00 -0.15302816516E+04  0.15302816516E+04  0.00000000000E+00 0. -1.
         23    2    1    2    0    0  0.17606970577E+03 -0.27391925915E+03 -0.77638386866E+03  0.84717631235E+03  0.94358311097E+02 0.  0.
         23    2    1    2    0    0 -0.20810082703E+03  0.26820790534E+03 -0.55619290791E+03  0.65813712539E+03  0.92479675131E+02 0.  0.
        -11    1    3    3    0    0  0.11111372581E+03 -0.24115552899E+03 -0.63156869623E+03  0.68511405422E+03  0.00000000000E+00 0. -1.
         11    1    3    3    0    0  0.64955979960E+02 -0.32763730159E+02 -0.14481517242E+03  0.16206225813E+03  0.00000000000E+00 0.  1.
        -11    1    4    4    0    0 -0.12152791477E+03  0.22248095958E+03 -0.41547728788E+03  0.48671160680E+03  0.00000000000E+00 0. -1.
         11    1    4    4    0    0 -0.86572912260E+02  0.45726945755E+02 -0.14071562002E+03  0.17142551859E+03  0.00000000000E+00 0.  1.
          1    1    1    2  501    0  0.32031121262E+02  0.57113538159E+01 -0.10895948965E+03  0.11371359934E+03  0.00000000000E+00 0. -1.
<scales pt_clust_5="13000.00000" pt_clust_6="13000.00000" pt_clust_7="13000.00000" pt_clust_8="13000.00000" pt_clust_9="32.53634"></scales>
<clustering>
<clus scale="   32.536">  1  9  2 -1</clus>
<clus scale="   92.480">  7  8 -1 -1</clus>
<clus scale="   94.358">  5  6 -1 -1</clus>
<clus scale="  343.661">  1  7  2 -1</clus>
<clus scale="   32.536">  1  5  2 -1</clus>
</clustering>
</event>
<event>
 9    1  0.1445593E-005  0.1281654E+03  0.7546771E-02  0.1233471E+00
          3   -1    0    0  502    0 -0.00000000000E+00  0.00000000000E+00  0.45204350628E+02  0.45204350628E+02  0.00000000000E+00 0. -1.
         21   -1    0    0  501  502  0.00000000000E+00 -0.00000000000E+00 -0.64459209096E+03  0.64459209096E+03  0.00000000000E+00 0.  1.
         23    2    1    2    0    0  0.64732488393E+02 -0.68988558150E+02 -0.12321244991E+03  0.18476420399E+03  0.10003392951E+03 0.  0.
         23    2    1    2    0    0 -0.57484150015E+02  0.22586541616E+02 -0.22814442276E+03  0.25259413260E+03  0.89102967508E+02 0.  0.
        -11    1    4    4    0    0 -0.75324629086E+02  0.37515337846E+02 -0.16336242426E+03  0.18376202541E+03  0.00000000000E+00 0. -1.
         11    1    4    4    0    0  0.17840479071E+02 -0.14928796230E+02 -0.64781998498E+02  0.68832107186E+02  0.00000000000E+00 0.  1.
        -13    1    3    3    0    0  0.86353815555E+02 -0.51010993600E+02 -0.12010415060E+03  0.15647399119E+03  0.00000000000E+00 0.  1.
         13    1    3    3    0    0 -0.21621327163E+02 -0.17977564550E+02 -0.31082993158E+01  0.28290212797E+02  0.00000000000E+00 0. -1.
          3    1    1    2  501    0 -0.72483383773E+01  0.46402016534E+02 -0.24803086765E+03  0.25243810500E+03  0.00000000000E+00 0. -1.
<scales pt_clust_5="13000.00000" pt_clust_6="13000.00000" pt_clust_7="13000.00000" pt_clust_8="13000.00000" pt_clust_9="46.96473"></scales>
<clustering>
<clus scale="   46.965">  2  9  1 -1</clus>
<clus scale="   89.103">  5  6 -1 -1</clus>
<clus scale="  100.034">  7  8 -1 -1</clus>
<clus scale="  119.829">  2  5  1 -1</clus>
<clus scale="   46.965">  2  5  1 -1</clus>
</clustering>
</event>
<event>
 9    1  0.1445593E-005  0.1398136E+03  0.7546771E-02  0.1213814E+00
          2   -1    0    0  502    0 -0.00000000000E+00  0.00000000000E+00  0.10306485818E+04  0.10306485818E+04  0.00000000000E+00 0. -1.
         21   -1    0    0  501  502  0.00000000000E+00 -0.00000000000E+00 -0.80643440573E+02  0.80643440573E+02  0.00000000000E+00 0. -1.
         23    2    1    2    0    0 -0.39489296614E+02 -0.11683960650E+03  0.64791356957E+03  0.66571576945E+03  0.90413460685E+02 0.  0.
         23    2    1    2    0    0  0.63913350681E+02  0.65121465247E+02  0.34898465148E+03  0.37161503676E+03  0.89340511262E+02 0.  0.
        -13    1    4    4    0    0  0.42829042443E+02 -0.73647124287E+01  0.19916581588E+03  0.20385187779E+03  0.00000000000E+00 0. -1.
         13    1    4    4    0    0  0.21084308238E+02  0.72486177676E+02  0.14981883560E+03  0.16776315897E+03  0.00000000000E+00 0.  1.
        -13    1    3    3    0    0 -0.67115260848E+02 -0.65782821749E+02  0.43454668609E+03  0.44459269030E+03  0.00000000000E+00 0.  1.
         13    1    3    3    0    0  0.27625964234E+02 -0.51056784751E+02  0.21336688348E+03  0.22112307915E+03  0.00000000000E+00 0. -1.
          2    1    1    2  501    0 -0.24424054067E+02  0.51718141253E+02 -0.46893079853E+02  0.73961216119E+02  0.00000000000E+00 0. -1.
<scales pt_clust_5="13000.00000" pt_clust_6="13000.00000" pt_clust_7="13000.00000" pt_clust_8="13000.00000" pt_clust_9="57.19528"></scales>
<clustering>
<clus scale="   57.195">  2  9  1 -1</clus>
<clus scale="   89.341">  5  6 -1 -1</clus>
<clus scale="   90.413">  7  8 -1 -1</clus>
<clus scale="  139.122">  2  5  1 -1</clus>
<clus scale="   57.195">  2  5  1 -1</clus>
</clustering>
</event>
<event>
 9    1  0.1445593E-005  0.9365758E+02  0.7546771E-02  0.1295914E+00
          2   -1    0    0  502    0 -0.00000000000E+00  0.00000000000E+00  0.31085580239E+03  0.31085580239E+03  0.00000000000E+00 0. -1.
         21   -1    0    0  501  502  0.00000000000E+00 -0.00000000000E+00 -0.73590965230E+02  0.73590965230E+02  0.00000000000E+00 0. -1.
         23    2    1    2    0    0  0.30489056144E+02  0.18200732019E+02  0.14199897928E+03  0.17354129001E+03  0.93231003588E+02 0.  0.
         23    2    1    2    0    0  0.44512572568E+02  0.48881737175E+01  0.84787660468E+02  0.13173392655E+03  0.90330596569E+02 0.  0.
        -11    1    3    3    0    0 -0.26257331856E+02  0.15658062093E+02  0.14243496583E+02  0.33726837676E+02  0.00000000000E+00 0.  1.
         11    1    3    3    0    0  0.56746388000E+02  0.25426699256E+01  0.12775548270E+03  0.13981445233E+03  0.00000000000E+00 0. -1.
        -13    1    4    4    0    0  0.59333698218E+02  0.32252990578E+02  0.70041861376E+02  0.97296482415E+02  0.00000000000E+00 0.  1.
         13    1    4    4    0    0 -0.14821125650E+02 -0.27364816861E+02  0.14745799093E+02  0.34437444130E+02  0.00000000000E+00 0. -1.
          2    1    1    2  501    0 -0.75001628712E+02 -0.23088905736E+02  0.10478197411E+02  0.79171551068E+02  0.00000000000E+00 0. -1.
<scales pt_clust_5="13000.00000" pt_clust_6="13000.00000" pt_clust_7="13000.00000" pt_clust_8="13000.00000" pt_clust_9="78.47510"></scales>
<clustering>
<clus scale="   78.475">  2  9  1 -1</clus>
<clus scale="   90.331">  7  8 -1 -1</clus>
<clus scale="   90.771">  2  7  1 -1</clus>
<clus scale="   93.231">  5  6 -1 -1</clus>
<clus scale="   78.475">  2  5  1 -1</clus>
</clustering>
</event>
<event>
 9    1  0.1445593E-005  0.2223618E+03  0.7546771E-02  0.1160427E+00
          2   -1    0    0  502    0 -0.00000000000E+00  0.00000000000E+00  0.21100802469E+03  0.21100802469E+03  0.00000000000E+00 0. -1.
         21   -1    0    0  501  502  0.00000000000E+00 -0.00000000000E+00 -0.52023794346E+03  0.52023794346E+03  0.00000000000E+00 0. -1.
         23    2    1    2    0    0 -0.61534204392E+02 -0.24283538915E+02  0.80086456450E+02  0.13868663562E+03  0.91891206430E+02 0.  0.
         23    2    1    2    0    0  0.15396831365E+03 -0.15056002118E+03 -0.13727478928E+03  0.27218565056E+03  0.94159965013E+02 0.  0.
        -11    1    4    4    0    0  0.96485353608E+02 -0.45685091328E+02 -0.28430204096E+02  0.11047546124E+03  0.00000000000E+00 0. -1.
         11    1    4    4    0    0  0.57482960047E+02 -0.10487492985E+03 -0.10884458518E+03  0.16171018932E+03  0.00000000000E+00 0.  1.
        -13    1    3    3    0    0 -0.13745774232E+02 -0.45145079798E+02  0.52595563894E+01  0.47483549495E+02  0.00000000000E+00 0. -1.
         13    1    3    3    0    0 -0.47788430161E+02  0.20861540884E+02  0.74826900060E+02  0.91203086120E+02  0.00000000000E+00 0.  1.
          2    1    1    2  501    0 -0.92434109262E+02  0.17484356009E+03 -0.25204158594E+03  0.32037368198E+03  0.00000000000E+00 0. -1.
<scales pt_clust_5="13000.00000" pt_clust_6="13000.00000" pt_clust_7="13000.00000" pt_clust_8="13000.00000" pt_clust_9="201.44144"></scales>
<clustering>
<clus scale="   91.891">  7  8 -1 -1</clus>
<clus scale="   94.160">  5  6 -1 -1</clus>
<clus scale="  113.226">  1  7  2 -1</clus>
<clus scale="  201.441">  2  9  1 -1</clus>
<clus scale="  201.441">  2  5  1 -1</clus>
</clustering>
</event>
<event>
 9    1  0.1445593E-005  0.9564904E+02  0.7546771E-02  0.1290700E+00
         21   -1    0    0  501  502  0.00000000000E+00  0.00000000000E+00  0.51716958831E+02  0.51716958831E+02  0.00000000000E+00 0. -1.
          2   -1    0    0  502    0 -0.00000000000E+00 -0.00000000000E+00 -0.57630604467E+03  0.57630604467E+03  0.00000000000E+00 0. -1.
         23    2    1    2    0    0  0.11106851594E+01 -0.13973563766E+02 -0.33474013935E+03  0.34710176060E+03  0.90731346376E+02 0.  0.
         23    2    1    2    0    0 -0.43044500697E+02  0.30289153769E+02 -0.20699990907E+03  0.23276733464E+03  0.92527876028E+02 0.  0.
        -11    1    3    3    0    0 -0.39500327592E+02  0.14142267138E+02 -0.13661618427E+03  0.14291347524E+03  0.00000000000E+00 0. -1.
         11    1    3    3    0    0  0.40611012751E+02 -0.28115830904E+02 -0.19812395508E+03  0.20418828536E+03  0.00000000000E+00 0.  1.
        -11    1    4    4    0    0 -0.32887829092E+01  0.57273545416E+02 -0.96354760995E+02  0.11213971225E+03  0.00000000000E+00 0. -1.
         11    1    4    4    0    0 -0.39755717788E+02 -0.26984391647E+02 -0.11064514808E+03  0.12062762239E+03  0.00000000000E+00 0.  1.
          2    1    1    2  501    0  0.41933815537E+02 -0.16315590003E+02  0.17150962588E+02  0.48153908256E+02  0.00000000000E+00 0. -1.
<scales pt_clust_5="13000.00000" pt_clust_6="13000.00000" pt_clust_7="13000.00000" pt_clust_8="13000.00000" pt_clust_9="44.99604"></scales>
<clustering>
<clus scale="   44.996">  1  9  2 -1</clus>
<clus scale="   90.731">  5  6 -1 -1</clus>
<clus scale="   92.528">  7  8 -1 -1</clus>
<clus scale="   93.912">  2  5  1 -1</clus>
<clus scale="   44.996">  1  5  2 -1</clus>
</clustering>
</event>
<event>
 9    1  0.1445593E-005  0.9649028E+02  0.7546771E-02  0.1288862E+00
          3   -1    0    0  502    0 -0.00000000000E+00  0.00000000000E+00  0.83831118860E+02  0.83831118860E+02  0.00000000000E+00 0. -1.
         21   -1    0    0  501  502  0.00000000000E+00 -0.00000000000E+00 -0.45365998860E+03  0.45365998860E+03  0.00000000000E+00 0.  1.
         23    2    1    2    0    0  0.17362492339E+02 -0.16599745523E+02  0.37604146543E+02  0.10095416456E+03  0.90557516602E+02 0.  0.
         23    2    1    2    0    0 -0.60250337286E+02  0.24154410540E+02 -0.28351365891E+03  0.30518837100E+03  0.92446786401E+02 0.  0.
        -11    1    3    3    0    0  0.50444645896E+02  0.92643868255E+01  0.25343439694E+02  0.57208225793E+02  0.00000000000E+00 0.  1.
         11    1    3    3    0    0 -0.33082153557E+02 -0.25864132349E+02  0.12260706849E+02  0.43745938766E+02  0.00000000000E+00 0. -1.
        -13    1    4    4    0    0  0.14726855895E+02 -0.16777414695E+02 -0.28219665568E+02  0.35982099066E+02  0.00000000000E+00 0. -1.
         13    1    4    4    0    0 -0.74977193182E+02  0.40931825235E+02 -0.25529399334E+03  0.26920627194E+03  0.00000000000E+00 0.  1.
          3    1    1    2  501    0  0.42887844947E+02 -0.75546650168E+01 -0.12391935737E+03  0.13134857189E+03  0.00000000000E+00 0. -1.
<scales pt_clust_5="13000.00000" pt_clust_6="13000.00000" pt_clust_7="13000.00000" pt_clust_8="13000.00000" pt_clust_9="43.54814"></scales>
<clustering>
<clus scale="   43.548">  2  9  1 -1</clus>
<clus scale="   90.558">  5  6 -1 -1</clus>
<clus scale="   92.447">  7  8 -1 -1</clus>
<clus scale="   94.682">  1  5  2 -1</clus>
<clus scale="   43.548">  2  5  1 -1</clus>
</clustering>
</event>
<event>
 9    1  0.1445593E-005  0.1093853E+03  0.7546771E-02  0.1262113E+00
          2   -1    0    0  502    0 -0.00000000000E+00  0.00000000000E+00  0.28366710703E+03  0.28366710703E+03  0.00000000000E+00 0. -1.
         21   -1    0    0  501  502  0.00000000000E+00 -0.00000000000E+00 -0.12480510674E+03  0.12480510674E+03  0.00000000000E+00 0.  1.
         23    2    1    2    0    0 -0.59576353781E+02  0.17881016944E+02  0.20664232035E+03  0.23469630407E+03  0.92261768295E+02 0.  0.
         23    2    1    2    0    0  0.23526972744E+02  0.45492210114E+01 -0.76102969843E+02  0.12273821835E+03  0.93267327427E+02 0.  0.
        -11    1    4    4    0    0 -0.19673098499E+02 -0.30221314401E+02 -0.49474113233E+02  0.61221291467E+02  0.00000000000E+00 0. -1.
         11    1    4    4    0    0  0.43200071242E+02  0.34770535413E+02 -0.26628856610E+02  0.61516926878E+02  0.00000000000E+00 0.  1.
        -13    1    3    3    0    0  0.58745812191E+01 -0.26777251168E+02  0.86821178441E+02  0.91046410750E+02  0.00000000000E+00 0. -1.
         13    1    3    3    0    0 -0.65450935000E+02  0.44658268112E+02  0.11982114191E+03  0.14364989332E+03  0.00000000000E+00 0.  1.
          2    1    1    2  501    0  0.36049381037E+02 -0.22430237955E+02  0.28322649783E+02  0.51037691353E+02  0.00000000000E+00 0. -1.
<scales pt_clust_5="13000.00000" pt_clust_6="13000.00000" pt_clust_7="13000.00000" pt_clust_8="13000.00000" pt_clust_9="42.45792"></scales>
<clustering>
<clus scale="   42.458">  2  9  1 -1</clus>
<clus scale="   92.262">  7  8 -1 -1</clus>
<clus scale="   93.267">  5  6 -1 -1</clus>
<clus scale="  108.529">  1  7  2 -1</clus>
<clus scale="   42.458">  2  5  1 -1</clus>
</clustering>
</event>
<event>
 9    1  0.1445593E-005  0.1010940E+03  0.7546771E-02  0.1278532E+00
         -1   -1    0    0    0  501 -0.00000000000E+00  0.00000000000E+00  0.21038724493E+03  0.21038724493E+03  0.00000000000E+00 0.  1.
         21   -1    0    0  501  502  0.00000000000E+00 -0.00000000000E+00 -0.10189732733E+03  0.10189732733E+03  0.00000000000E+00 0. -1.
         23    2    1    2    0    0  0.27234982244E+02 -0.25978209455E+02  0.92421137637E+02  0.13456310622E+03  0.90271541749E+02 0.  0.
         23    2    1    2    0    0 -0.71216893561E+02 -0.11870626306E+02  0.24724752951E+02  0.11905402396E+03  0.91377182686E+02 0.  0.
        -11    1    3    3    0    0  0.39965900584E+02  0.12044808231E+02  0.83695581152E+02  0.93527006362E+02  0.00000000000E+00 0.  1.
         11    1    3    3    0    0 -0.12730918340E+02 -0.38023017686E+02  0.87255564857E+01  0.41036099860E+02  0.00000000000E+00 0. -1.
        -11    1    4    4    0    0  0.73615698195E+00  0.29884232296E+02  0.19516837810E+02  0.35700367297E+02  0.00000000000E+00 0.  1.
         11    1    4    4    0    0 -0.71953050543E+02 -0.41754858602E+02  0.52079151410E+01  0.83353656666E+02  0.00000000000E+00 0. -1.
         -1    1    1    2    0  502  0.43981911318E+02  0.37848835762E+02 -0.86559729905E+01  0.58667442079E+02  0.00000000000E+00 0.  1.
<scales pt_clust_5="13000.00000" pt_clust_6="13000.00000" pt_clust_7="13000.00000" pt_clust_8="13000.00000" pt_clust_9="58.02536"></scales>
<clustering>
<clus scale="   58.025">  2  9  1 -1</clus>
<clus scale="   90.272">  5  6 -1 -1</clus>
<clus scale="   91.377">  7  8 -1 -1</clus>
<clus scale="  100.096">  1  5  2 -1</clus>
<clus scale="   58.025">  2  5  1 -1</clus>
</clustering>
</event>
<event>
 9    1  0.1445593E-005  0.9882701E+02  0.7546771E-02  0.1284953E+00
         -1   -1    0    0    0  501 -0.00000000000E+00  0.00000000000E+00  0.14362568272E+03  0.14362568272E+03  0.00000000000E+00 0.  1.
         21   -1    0    0  501  502  0.00000000000E+00 -0.00000000000E+00 -0.10926949885E+03  0.10926949885E+03  0.00000000000E+00 0. -1.
         23    2    1    2    0    0 -0.13098864436E+02 -0.29945095520E+02  0.75968722250E+02  0.12637543409E+03  0.95557388969E+02 0.  0.
         23    2    1    2    0    0  0.91940209836E+01  0.29155527750E+01 -0.28783503780E+02  0.96346446168E+02  0.91439144405E+02 0.  0.
        -11    1    3    3    0    0 -0.47615560131E+01 -0.56896164036E+02  0.79570524012E+02  0.97935255088E+02  0.00000000000E+00 0.  1.
         11    1    3    3    0    0 -0.83373084225E+01  0.26951068516E+02 -0.36018017616E+01  0.28440179005E+02  0.00000000000E+00 0. -1.
        -13    1    4    4    0    0 -0.32972697604E+02  0.27631341491E+02 -0.11884039289E+02  0.44630933328E+02  0.00000000000E+00 0.  1.
         13    1    4    4    0    0  0.42166718587E+02 -0.24715788716E+02 -0.16899464491E+02  0.51715512841E+02  0.00000000000E+00 0. -1.
         -1    1    1    2    0  502  0.39048434520E+01  0.27029542745E+02 -0.12829034597E+02  0.30173301312E+02  0.00000000000E+00 0.  1.
<scales pt_clust_5="13000.00000" pt_clust_6="13000.00000" pt_clust_7="13000.00000" pt_clust_8="13000.00000" pt_clust_9="27.31014"></scales>
<clustering>
<clus scale="   27.310">  2  9  1 -1</clus>
<clus scale="   91.439">  7  8 -1 -1</clus>
<clus scale="   94.851">  2  7  1 -1</clus>
<clus scale="   95.557">  5  6 -1 -1</clus>
<clus scale="   27.310">  2  5  1 -1</clus>
</clustering>
</event>
<event>
 9    1  0.1445593E-005  0.1049413E+03  0.7546771E-02  0.1270644E+00
         21   -1    0    0  501  502  0.00000000000E+00  0.00000000000E+00  0.33169757022E+03  0.33169757022E+03  0.00000000000E+00 0. -1.
          2   -1    0    0  502    0 -0.00000000000E+00 -0.00000000000E+00 -0.16135607393E+03  0.16135607393E+03  0.00000000000E+00 0. -1.
         23    2    1    2    0    0  0.43051378446E+02 -0.38343217084E+02 -0.46646289141E+02  0.11622070066E+03  0.89486040749E+02 0.  0.
         23    2    1    2    0    0 -0.68550049315E+01  0.59326134259E+02 -0.41811539848E+02  0.11467354345E+03  0.88516865081E+02 0.  0.
        -13    1    4    4    0    0 -0.44872585148E+02  0.20193510212E+02 -0.63796434186E+01  0.49618812991E+02  0.00000000000E+00 0. -1.
         13    1    4    4    0    0  0.38017580216E+02  0.39132624047E+02 -0.35431896429E+02  0.65054730457E+02  0.00000000000E+00 0.  1.
        -13    1    3    3    0    0  0.64008199572E+02 -0.32490594090E+02 -0.84715769382E+01  0.72280397983E+02  0.00000000000E+00 0.  1.
         13    1    3    3    0    0 -0.20956821125E+02 -0.58526229935E+01 -0.38174712203E+02  0.43940302677E+02  0.00000000000E+00 0. -1.
          2    1    1    2  501    0 -0.36196373515E+02 -0.20982917175E+02  0.25879932527E+03  0.26215940004E+03  0.00000000000E+00 0. -1.
<scales pt_clust_5="13000.00000" pt_clust_6="13000.00000" pt_clust_7="13000.00000" pt_clust_8="13000.00000" pt_clust_9="41.83850"></scales>
<clustering>
<clus scale="   41.839">  1  9  2 -1</clus>
<clus scale="   88.517">  5  6 -1 -1</clus>
<clus scale="   89.486">  7  8 -1 -1</clus>
<clus scale="  104.116">  1  5  2 -1</clus>
<clus scale="   41.839">  1  5  2 -1</clus>
</clustering>
</event>
<event>
 9    1  0.1445593E-005  0.1105418E+03  0.7546771E-02  0.1260504E+00
         21   -1    0    0  501  502  0.00000000000E+00  0.00000000000E+00  0.62269964461E+02  0.62269964461E+02  0.00000000000E+00 0. -1.
          2   -1    0    0  502    0 -0.00000000000E+00 -0.00000000000E+00 -0.63402931434E+03  0.63402931434E+03  0.00000000000E+00 0. -1.
         23    2    1    2    0    0 -0.99092776600E+01 -0.46617277720E+02 -0.27361036787E+03  0.29354089700E+03  0.95038205186E+02 0.  0.
         23    2    1    2    0    0  0.58132445876E+02  0.44103729609E+02 -0.32622616686E+03  0.34690034579E+03  0.92692058633E+02 0.  0.
        -11    1    4    4    0    0  0.20190315795E+02  0.64948527333E+02 -0.13917975041E+03  0.15490953160E+03  0.00000000000E+00 0.  1.
         11    1    4    4    0    0  0.37942130080E+02 -0.20844797724E+02 -0.18704641645E+03  0.19199081419E+03  0.00000000000E+00 0. -1.
        -11    1    3    3    0    0  0.28925433029E+02  0.56459085906E+00 -0.27351727362E+02  0.39813520674E+02  0.00000000000E+00 0.  1.
         11    1    3    3    0    0 -0.38834710689E+02 -0.47181868579E+02 -0.24625864050E+03  0.25372737633E+03  0.00000000000E+00 0. -1.
          2    1    1    2  501    0 -0.48223168216E+02  0.25135481105E+01  0.28077184854E+02  0.55858036003E+02  0.00000000000E+00 0. -1.
<scales pt_clust_5="13000.00000" pt_clust_6="13000.00000" pt_clust_7="13000.00000" pt_clust_8="13000.00000" pt_clust_9="48.28863"></scales>
<clustering>
<clus scale="   48.289">  1  9  2 -1</clus>
<clus scale="   92.692">  5  6 -1 -1</clus>
<clus scale="   95.038">  7  8 -1 -1</clus>
<clus scale="  108.531">  1  5  2 -1</clus>
<clus scale="   48.289">  1  5  2 -1</clus>
</clustering>
</event>
<event>
 9    1  0.1445593E-005  0.1132380E+03  0.7546771E-02  0.1255763E+00
         21   -1    0    0  501  502  0.00000000000E+00  0.00000000000E+00  0.39491407642E+02  0.39491407642E+02  0.00000000000E+00 0.  1.
          4   -1    0    0  502    0 -0.00000000000E+00 -0.00000000000E+00 -0.55644623897E+03  0.55644623897E+03  0.00000000000E+00 0. -1.
         23    2    1    2    0    0  0.65197047502E+02 -0.18554437173E+02 -0.40421939533E+03  0.41979707346E+03  0.90781832881E+02 0.  0.
         23    2    1    2    0    0 -0.53451164157E+02 -0.29038446095E+00 -0.10950364574E+03  0.15370093086E+03  0.93679327739E+02 0.  0.
        -11    1    3    3    0    0 -0.18118565253E+02 -0.12869026287E+02 -0.36658004120E+02  0.42868444227E+02  0.00000000000E+00 0.  1.
         11    1    3    3    0    0  0.83315612755E+02 -0.56854108860E+01 -0.36756139121E+03  0.37692862923E+03  0.00000000000E+00 0. -1.
        -13    1    4    4    0    0  0.63514105629E+01 -0.30148735870E+02 -0.68944609636E+02  0.75515865145E+02  0.00000000000E+00 0. -1.
         13    1    4    4    0    0 -0.59802574720E+02  0.29858351409E+02 -0.40559036102E+02  0.78185065719E+02  0.00000000000E+00 0.  1.
          4    1    1    2  501    0 -0.11745883345E+02  0.18844821634E+02 -0.32317902649E+01  0.22439642294E+02  0.00000000000E+00 0. -1.
<scales pt_clust_5="13000.00000" pt_clust_6="13000.00000" pt_clust_7="13000.00000" pt_clust_8="13000.00000" pt_clust_9="22.20570"></scales>
<clustering>
<clus scale="   22.206">  1  9  2 -1</clus>
<clus scale="   90.782">  5  6 -1 -1</clus>
<clus scale="   93.679">  7  8 -1 -1</clus>
<clus scale="  110.853">  2  5  1 -1</clus>
<clus scale="   22.206">  1  5  2 -1</clus>
</clustering>
</event>
<event>
 9    1  0.1445593E-005  0.1007834E+03  0.7546771E-02  0.1279224E+00
         21   -1    0    0  501  502  0.00000000000E+00  0.00000000000E+00  0.75504398014E+03  0.75504398014E+03  0.00000000000E+00 0. -1.
          1   -1    0    0  502    0 -0.00000000000E+00 -0.00000000000E+00 -0.27810060698E+02  0.27810060698E+02  0.00000000000E+00 0. -1.
         23    2    1    2    0    0 -0.21282092165E+02  0.81259642015E+01  0.16000738521E+03  0.18552158138E+03  0.91087513393E+02 0.  0.
         23    2    1    2    0    0  0.66066596855E+02 -0.49365477602E+02  0.31335630106E+03  0.33626456672E+03  0.89888496587E+02 0.  0.
        -11    1    3    3    0    0 -0.47293187211E+02  0.30897426746E+02  0.12010059174E+03  0.13272320322E+03  0.00000000000E+00 0.  1.
         11    1    3    3    0    0  0.26011095045E+02 -0.22771462545E+02  0.39906793470E+02  0.52798378166E+02  0.00000000000E+00 0. -1.
        -11    1    4    4    0    0 -0.20552072493E+02 -0.10092627935E+02  0.10133440517E+03  0.10388893345E+03  0.00000000000E+00 0.  1.
         11    1    4    4    0    0  0.86618669348E+02 -0.39272849667E+02  0.21202189589E+03  0.23237563327E+03  0.00000000000E+00 0. -1.
          1    1    1    2  501    0 -0.44784504690E+02  0.41239513400E+02  0.25387023318E+03  0.26106789274E+03  0.00000000000E+00 0. -1.
<scales pt_clust_5="13000.00000" pt_clust_6="13000.00000" pt_clust_7="13000.00000" pt_clust_8="13000.00000" pt_clust_9="60.87979"></scales>
<clustering>
<clus scale="   60.880">  1  9  2 -1</clus>
<clus scale="   89.888">  7  8 -1 -1</clus>
<clus scale="   91.088">  5  6 -1 -1</clus>
<clus scale="   99.701">  1  7  2 -1</clus>
<clus scale="   60.880">  1  5  2 -1</clus>
</clustering>
</event>
<event>
 9    1  0.1445593E-005  0.9584348E+02  0.7546771E-02  0.1290837E+00
         21   -1    0    0  501  502  0.00000000000E+00  0.00000000000E+00  0.15017682018E+03  0.15017682018E+03  0.00000000000E+00 0.  1.
         -2   -1    0    0    0  501 -0.00000000000E+00 -0.00000000000E+00 -0.41619020209E+03  0.41619020209E+03  0.00000000000E+00 0.  1.
         23    2    1    2    0    0  0.46494056294E+01  0.34217744804E+02 -0.27470389818E+03  0.29080989704E+03  0.88970183260E+02 0.  0.
         23    2    1    2    0    0  0.43997610714E+01 -0.13532482446E+02 -0.11611606606E+03  0.14872475362E+03  0.91834773166E+02 0.  0.
        -11    1    3    3    0    0 -0.20436898303E+02 -0.43745923699E+01 -0.11991504702E+02  0.24095643915E+02  0.00000000000E+00 0.  1.
         11    1    3    3    0    0  0.25086303932E+02  0.38592337174E+02 -0.26271239348E+03  0.26671425312E+03  0.00000000000E+00 0. -1.
        -13    1    4    4    0    0  0.24849683998E+02  0.15152956780E+02 -0.10895527181E+03  0.11277575161E+03  0.00000000000E+00 0.  1.
         13    1    4    4    0    0 -0.20449922927E+02 -0.28685439226E+02 -0.71607942434E+01  0.35949002010E+02  0.00000000000E+00 0. -1.
         -2    1    1    2    0  502 -0.90491667007E+01 -0.20685262358E+02  0.12480658233E+03  0.12683237161E+03  0.00000000000E+00 0.  1.
<scales pt_clust_5="13000.00000" pt_clust_6="13000.00000" pt_clust_7="13000.00000" pt_clust_8="13000.00000" pt_clust_9="22.57803"></scales>
<clustering>
<clus scale="   22.578">  1  9  2 -1</clus>
<clus scale="   88.970">  5  6 -1 -1</clus>
<clus scale="   91.835">  7  8 -1 -1</clus>
<clus scale="   93.102">  2  5  1 -1</clus>
<clus scale="   22.578">  1  5  2 -1</clus>
</clustering>
</event>
<event>
 9    1  0.1445593E-005  0.1400009E+03  0.7546771E-02  0.1213853E+00
         21   -1    0    0  501  502  0.00000000000E+00  0.00000000000E+00  0.41156519356E+02  0.41156519356E+02  0.00000000000E+00 0.  1.
          1   -1    0    0  502    0 -0.00000000000E+00 -0.00000000000E+00 -0.97620138057E+03  0.97620138057E+03  0.00000000000E+00 0. -1.
         23    2    1    2    0    0  0.98934535418E+02 -0.33506020053E+02 -0.69792196714E+03  0.71174798911E+03  0.92625223910E+02 0.  0.
         23    2    1    2    0    0 -0.87768441689E+02  0.68120047232E+02 -0.22610233842E+03  0.26760642185E+03  0.90262336472E+02 0.  0.
        -11    1    4    4    0    0 -0.40715066474E+02  0.13065215431E+02 -0.17192244404E+03  0.17716021917E+03  0.00000000000E+00 0. -1.
         11    1    4    4    0    0 -0.47053375215E+02  0.55054831801E+02 -0.54179894375E+02  0.90446202675E+02  0.00000000000E+00 0.  1.
        -13    1    3    3    0    0  0.42674776056E+02  0.31791419440E+02 -0.28519912098E+03  0.29012130130E+03  0.00000000000E+00 0.  1.
         13    1    3    3    0    0  0.56259759361E+02 -0.65297439492E+02 -0.41272284616E+03  0.42162668780E+03  0.00000000000E+00 0. -1.
          1    1    1    2  501    0 -0.11166093729E+02 -0.34614027180E+02 -0.11020555656E+02  0.38003488968E+02  0.00000000000E+00 0. -1.
<scales pt_clust_5="13000.00000" pt_clust_6="13000.00000" pt_clust_7="13000.00000" pt_clust_8="13000.00000" pt_clust_9="36.37049"></scales>
<clustering>
<clus scale="   36.370">  1  9  2 -1</clus>
<clus scale="   90.262">  5  6 -1 -1</clus>
<clus scale="   92.625">  7  8 -1 -1</clus>
<clus scale="  138.449">  1  5  2 -1</clus>
<clus scale="   36.370">  1  5  2 -1</clus>
</clustering>
</event>
<event>
 9    1  0.1445593E-005  0.1016757E+03  0.7546771E-02  0.1277748E+00
         21   -1    0    0  501  502  0.00000000000E+00  0.00000000000E+00  0.45830540734E+03  0.45830540734E+03  0.00000000000E+00 0. -1.
          3   -1    0    0  502    0 -0.00000000000E+00 -0.00000000000E+00 -0.44871405735E+03  0.44871405735E+03  0.00000000000E+00 0. -1.
         23    2    1    2    0    0 -0.37429872976E+02 -0.86677877314E+01 -0.36951214360E+03  0.38303988064E+03  0.93296301956E+02 0.  0.
         23    2    1    2    0    0  0.71595319095E+02 -0.75006621403E+02  0.40979747213E+01  0.13823637461E+03  0.91326988878E+02 0.  0.
        -13    1    4    4    0    0  0.29429738740E+02 -0.70225614432E+02 -0.31932569840E+02  0.82567762845E+02  0.00000000000E+00 0. -1.
         13    1    4    4    0    0  0.42165580355E+02 -0.47810069711E+01  0.36030544561E+02  0.55668611763E+02  0.00000000000E+00 0.  1.
        -13    1    3    3    0    0  0.74158156846E+01 -0.43412742444E+02 -0.17102513168E+03  0.17660480230E+03  0.00000000000E+00 0.  1.
         13    1    3    3    0    0 -0.44845688661E+02  0.34744954713E+02 -0.19848701192E+03  0.20643507834E+03  0.00000000000E+00 0. -1.
          3    1    1    2  501    0 -0.34165446119E+02  0.83674409135E+02  0.37500551887E+03  0.38574320945E+03  0.00000000000E+00 0. -1.
<scales pt_clust_5="13000.00000" pt_clust_6="13000.00000" pt_clust_7="13000.00000" pt_clust_8="13000.00000" pt_clust_9="90.38077"></scales>
<clustering>
<clus scale="   90.381">  1  9  2 -1</clus>
<clus scale="   91.327">  5  6 -1 -1</clus>
<clus scale="   93.296">  7  8 -1 -1</clus>
<clus scale="   99.872">  1  5  2 -1</clus>
<clus scale="   90.381">  1  5  2 -1</clus>
</clustering>
</event>
<event>
 9    1  0.1445593E-005  0.1417505E+03  0.7546771E-02  0.1211446E+00
         21   -1    0    0  501  502  0.00000000000E+00  0.00000000000E+00  0.11573439338E+03  0.11573439338E+03  0.00000000000E+00 0.  1.
         -3   -1    0    0    0  501 -0.00000000000E+00 -0.00000000000E+00 -0.24894430551E+03  0.24894430551E+03  0.00000000000E+00 0.  1.
         23    2    1    2    0    0 -0.59722537259E+01  0.11244904154E+03 -0.14807214202E+03  0.20700725809E+03  0.90808539820E+02 0.  0.
         23    2    1    2    0    0  0.19583658286E+02 -0.91914723523E+02  0.15330325880E+02  0.13303107423E+03  0.92900009400E+02 0.  0.
        -11    1    3    3    0    0 -0.21582025312E+02  0.85627842768E+02 -0.44497432234E+02  0.98883430104E+02  0.00000000000E+00 0.  1.
         11    1    3    3    0    0  0.15609771586E+02  0.26821198770E+02 -0.10357470978E+03  0.10812382799E+03  0.00000000000E+00 0. -1.
        -13    1    4    4    0    0  0.52788032064E+02 -0.61311595635E+02 -0.95617919054E+01  0.81468496690E+02  0.00000000000E+00 0.  1.
         13    1    4    4    0    0 -0.33204373778E+02 -0.30603127888E+02  0.24892117785E+02  0.51562577538E+02  0.00000000000E+00 0. -1.
         -3    1    1    2    0  502 -0.13611404560E+02 -0.20534318015E+02 -0.46809598982E+00  0.24640366562E+02  0.00000000000E+00 0.  1.
<scales pt_clust_5="13000.00000" pt_clust_6="13000.00000" pt_clust_7="13000.00000" pt_clust_8="13000.00000" pt_clust_9="24.63592"></scales>
<clustering>
<clus scale="   24.636">  1  9  2 -1</clus>
<clus scale="   90.809">  5  6 -1 -1</clus>
<clus scale="   92.900">  7  8 -1 -1</clus>
<clus scale="  140.389">  2  5  1 -1</clus>
<clus scale="   24.636">  1  5  2 -1</clus>
</clustering>
</event>
<event>
 9    1  0.1445593E-005  0.9418492E+02  0.7546771E-02  0.1293636E+00
         -2   -1    0    0    0  501 -0.00000000000E+00  0.00000000000E+00  0.49842241120E+03  0.49842241120E+03  0.00000000000E+00 0. -1.
         21   -1    0    0  501  502  0.00000000000E+00 -0.00000000000E+00 -0.32442255319E+02  0.32442255319E+02  0.00000000000E+00 0.  1.
         23    2    1    2    0    0 -0.10697859037E+02  0.30158722586E+02  0.31690285994E+03  0.33052148420E+03  0.88278174781E+02 0.  0.
         23    2    1    2    0    0  0.26969207824E+02 -0.14227493537E+02  0.15032049083E+03  0.17753734132E+03  0.89406363620E+02 0.  0.
        -13    1    4    4    0    0 -0.27068105941E+02  0.16032666086E+01  0.94250880401E+02  0.98073856248E+02  0.00000000000E+00 0. -1.
         13    1    4    4    0    0  0.54037313765E+02 -0.15830760146E+02  0.56069610432E+02  0.79463485072E+02  0.00000000000E+00 0.  1.
        -13    1    3    3    0    0 -0.28837428574E+02  0.55396239201E+02  0.19744248480E+03  0.20708422298E+03  0.00000000000E+00 0. -1.
         13    1    3    3    0    0  0.18139569537E+02 -0.25237516615E+02  0.11946037514E+03  0.12343726122E+03  0.00000000000E+00 0.  1.
         -2    1    1    2    0  502 -0.16271348787E+02 -0.15931229049E+02 -0.12431948889E+01  0.22805841004E+02  0.00000000000E+00 0. -1.
<scales pt_clust_5="13000.00000" pt_clust_6="13000.00000" pt_clust_7="13000.00000" pt_clust_8="13000.00000" pt_clust_9="22.77193"></scales>
<clustering>
<clus scale="   22.772">  2  9  1 -1</clus>
<clus scale="   88.278">  7  8 -1 -1</clus>
<clus scale="   89.406">  5  6 -1 -1</clus>
<clus scale="   93.115">  1  7  2 -1</clus>
<clus scale="   22.772">  2  5  1 -1</clus>
</clustering>
</event>
<event>
 9    1  0.1445593E-005  0.1158000E+03  0.7546771E-02  0.1250517E+00
         21   -1    0    0  501  502  0.00000000000E+00  0.00000000000E+00  0.19023323073E+03  0.19023323073E+03  0.00000000000E+00 0.  1.
          2   -1    0    0  502    0 -0.00000000000E+00 -0.00000000000E+00 -0.45327240469E+03  0.45327240469E+03  0.00000000000E+00 0. -1.
         23    2    1    2    0    0  0.27321043351E+02 -0.64552020317E+02 -0.37016719401E+03  0.38766979363E+03  0.91382244640E+02 0.  0.
         23    2    1    2    0    0 -0.89806237837E+02  0.32051414547E+02  0.12590493906E+03  0.18294371880E+03  0.92324953515E+02 0.  0.
        -11    1    4    4    0    0  0.83293284314E+01  0.32431028066E+02  0.22248389827E+02  0.40201245546E+02  0.00000000000E+00 0. -1.
         11    1    4    4    0    0 -0.98135566268E+02 -0.37961351949E+00  0.10365654923E+03  0.14274247326E+03  0.00000000000E+00 0.  1.
        -11    1    3    3    0    0  0.58585260860E+02 -0.42657006038E+02 -0.28943316175E+03  0.29836790725E+03  0.00000000000E+00 0. -1.
         11    1    3    3    0    0 -0.31264217509E+02 -0.21895014278E+02 -0.80734032256E+02  0.89301886380E+02  0.00000000000E+00 0.  1.
          2    1    1    2  501    0  0.62485194486E+02  0.32500605770E+02 -0.18776919005E+02  0.72892122981E+02  0.00000000000E+00 0. -1.
<scales pt_clust_5="13000.00000" pt_clust_6="13000.00000" pt_clust_7="13000.00000" pt_clust_8="13000.00000" pt_clust_9="70.43216"></scales>
<clustering>
<clus scale="   70.432">  1  9  2 -1</clus>
<clus scale="   91.382">  7  8 -1 -1</clus>
<clus scale="   92.325">  5  6 -1 -1</clus>
<clus scale="  115.050">  2  7  1 -1</clus>
<clus scale="   70.432">  1  5  2 -1</clus>
</clustering>
</event>
<event>
 9    1  0.1445593E-005  0.1266468E+03  0.7546771E-02  0.1232789E+00
          1   -1    0    0  502    0 -0.00000000000E+00  0.00000000000E+00  0.74450373512E+03  0.74450373512E+03  0.00000000000E+00 0. -1.
         21   -1    0    0  501  502  0.00000000000E+00 -0.00000000000E+00 -0.58627017060E+02  0.58627017060E+02  0.00000000000E+00 0.  1.
         23    2    1    2    0    0  0.20692213283E+01  0.74668474783E+02  0.38409792896E+03  0.40148612595E+03  0.89890085627E+02 0.  0.
         23    2    1    2    0    0 -0.21789519447E+02 -0.11107622033E+03  0.32372716071E+03  0.35478157991E+03  0.90873455888E+02 0.  0.
        -11    1    4    4    0    0  0.23039868269E+02 -0.63966646393E+02  0.93892551821E+02  0.11592402110E+03  0.00000000000E+00 0.  1.
         11    1    4    4    0    0 -0.44829387716E+02 -0.47109573934E+02  0.22983460889E+03  0.23885755881E+03  0.00000000000E+00 0. -1.
        -11    1    3    3    0    0  0.40003602487E+02  0.52551121996E+02  0.15944981838E+03  0.17258665422E+03  0.00000000000E+00 0.  1.
         11    1    3    3    0    0 -0.37934381158E+02  0.22117352787E+02  0.22464811058E+03  0.22889947173E+03  0.00000000000E+00 0. -1.
          1    1    1    2  501    0  0.19720298118E+02  0.36407745544E+02 -0.21948371613E+02  0.46863046315E+02  0.00000000000E+00 0. -1.
<scales pt_clust_5="13000.00000" pt_clust_6="13000.00000" pt_clust_7="13000.00000" pt_clust_8="13000.00000" pt_clust_9="41.40548"></scales>
<clustering>
<clus scale="   41.405">  2  9  1 -1</clus>
<clus scale="   89.890">  7  8 -1 -1</clus>
<clus scale="   90.873">  5  6 -1 -1</clus>
<clus scale="  125.943">  1  7  2 -1</clus>
<clus scale="   41.405">  2  5  1 -1</clus>
</clustering>
</event>
<event>
 9    1  0.1445593E-005  0.1034484E+03  0.7546771E-02  0.1273505E+00
          2   -1    0    0  502    0 -0.00000000000E+00  0.00000000000E+00  0.14180842600E+03  0.14180842600E+03  0.00000000000E+00 0. -1.
         21   -1    0    0  501  502  0.00000000000E+00 -0.00000000000E+00 -0.17250597527E+03  0.17250597527E+03  0.00000000000E+00 0.  1.
         23    2    1    2    0    0  0.34538625089E+02 -0.74024126338E+02  0.65030017716E+01  0.12329266028E+03  0.92121132994E+02 0.  0.
         23    2    1    2    0    0 -0.36854304684E+02 -0.13737885970E+02 -0.18495156127E+02  0.10125858053E+03  0.91456328632E+02 0.  0.
        -11    1    3    3    0    0 -0.86509536464E+01  0.18561443784E+02 -0.29615250045E+01  0.20691467437E+02  0.00000000000E+00 0. -1.
         11    1    3    3    0    0  0.43189578735E+02 -0.92585570122E+02  0.94645267761E+01  0.10260119284E+03  0.00000000000E+00 0.  1.
        -13    1    4    4    0    0  0.87694921467E+00  0.35426013338E+02 -0.16909749479E+02  0.39264628973E+02  0.00000000000E+00 0. -1.
         13    1    4    4    0    0 -0.37731253899E+02 -0.49163899307E+02 -0.15854066481E+01  0.61993951561E+02  0.00000000000E+00 0.  1.
          2    1    1    2  501    0  0.23156795950E+01  0.87762012308E+02 -0.18705394914E+02  0.89763160457E+02  0.00000000000E+00 0. -1.
<scales pt_clust_5="13000.00000" pt_clust_6="13000.00000" pt_clust_7="13000.00000" pt_clust_8="13000.00000" pt_clust_9="87.79256"></scales>
<clustering>
<clus scale="   87.793">  2  9  1 -1</clus>
<clus scale="   91.456">  7  8 -1 -1</clus>
<clus scale="   92.121">  5  6 -1 -1</clus>
<clus scale="  102.857">  2  7  1 -1</clus>
<clus scale="   87.793">  2  5  1 -1</clus>
</clustering>
</event>
<event>
 9    1  0.1445593E-005  0.1055609E+03  0.7546771E-02  0.1269746E+00
          1   -1    0    0  502    0 -0.00000000000E+00  0.00000000000E+00  0.13381682439E+03  0.13381682439E+03  0.00000000000E+00 0. -1.
         21   -1    0    0  501  502  0.00000000000E+00 -0.00000000000E+00 -0.13905821975E+03  0.13905821975E+03  0.00000000000E+00 0.  1.
         23    2    1    2    0    0  0.21200604386E+02  0.17708920807E+02  0.10697594870E+02  0.98115811181E+02  0.93537171035E+02 0.  0.
         23    2    1    2    0    0 -0.62161789564E+02 -0.42166227253E+02  0.12329470928E+02  0.11930578918E+03  0.91868257172E+02 0.  0.
        -11    1    4    4    0    0  0.20009020914E+02  0.88379986699E+01  0.58352043992E+00  0.21881764886E+02  0.00000000000E+00 0. -1.
         11    1    4    4    0    0 -0.82170810478E+02 -0.51004225923E+02  0.11745950488E+02  0.97424024293E+02  0.00000000000E+00 0.  1.
        -13    1    3    3    0    0 -0.35849471548E+02  0.15276040636E+02 -0.39413471256E+01  0.39167285391E+02  0.00000000000E+00 0.  1.
         13    1    3    3    0    0  0.57050075934E+02  0.24328801704E+01  0.14638941996E+02  0.58948525789E+02  0.00000000000E+00 0. -1.
          1    1    1    2  501    0  0.40961185178E+02  0.24457306446E+02 -0.28268461160E+02  0.55453443771E+02  0.00000000000E+00 0. -1.
<scales pt_clust_5="13000.00000" pt_clust_6="13000.00000" pt_clust_7="13000.00000" pt_clust_8="13000.00000" pt_clust_9="47.70722"></scales>
<clustering>
<clus scale="   47.707">  2  9  1 -1</clus>
<clus scale="   91.868">  5  6 -1 -1</clus>
<clus scale="   93.537">  7  8 -1 -1</clus>
<clus scale="  104.085">  2  5  1 -1</clus>
<clus scale="   47.707">  2  5  1 -1</clus>
</clustering>
</event>
<event>
 9    1  0.1445593E-005  0.1418611E+03  0.7546771E-02  0.1230043E+00
          3   -1    0    0  502    0 -0.00000000000E+00  0.00000000000E+00  0.48775789765E+03  0.48775789765E+03  0.00000000000E+00 0. -1.
         21   -1    0    0  501  502  0.00000000000E+00 -0.00000000000E+00 -0.14315906124E+03  0.14315906124E+03  0.00000000000E+00 0. -1.
         23    2    1    2    0    0  0.23584737331E+02 -0.13401411645E+02  0.11331924210E+03  0.14776125370E+03  0.90864183250E+02 0.  0.
         23    2    1    2    0    0 -0.10794093855E+03  0.72924332269E+02  0.31255954596E+03  0.35175792247E+03  0.95241596981E+02 0.  0.
        -11    1    3    3    0    0 -0.27770337465E+01 -0.37016606589E+02  0.98484747982E+01  0.38404863437E+02  0.00000000000E+00 0. -1.
         11    1    3    3    0    0  0.26361771077E+02  0.23615194944E+02  0.10347076730E+03  0.10935639027E+03  0.00000000000E+00 0.  1.
        -11    1    4    4    0    0 -0.23742880447E+02 -0.19948385608E+02  0.10298643657E+03  0.10755402632E+03  0.00000000000E+00 0.  1.
         11    1    4    4    0    0 -0.84198058103E+02  0.92872717876E+02  0.20957310940E+03  0.24420389615E+03  0.00000000000E+00 0. -1.
          3    1    1    2  501    0  0.84356201219E+02 -0.59522920624E+02 -0.81279951649E+02  0.13139778272E+03  0.00000000000E+00 0. -1.
<scales pt_clust_5="13000.00000" pt_clust_6="13000.00000" pt_clust_7="13000.00000" pt_clust_8="13000.00000" pt_clust_9="105.13617"></scales>
<clustering>
<clus scale="   90.864">  5  6 -1 -1</clus>
<clus scale="   94.827">  1  5  2 -1</clus>
<clus scale="   95.242">  7  8 -1 -1</clus>
<clus scale="  105.136">  2  9  1 -1</clus>
<clus scale="  105.136">  2  5  1 -1</clus>
</clustering>
</event>
<event>
 9    1  0.1445593E-005  0.1459652E+03  0.7546771E-02  0.1205523E+00
         21   -1    0    0  501  502  0.00000000000E+00  0.00000000000E+00  0.26361544049E+03  0.26361544049E+03  0.00000000000E+00 0.  1.
         -2   -1    0    0    0  501 -0.00000000000E+00 -0.00000000000E+00 -0.30655560358E+03  0.30655560358E+03  0.00000000000E+00 0.  1.
         23    2    1    2    0    0 -0.55522617263E+02 -0.50911126549E+02 -0.20280988775E+03  0.24665178016E+03  0.11845060680E+03 0.  0.
         23    2    1    2    0    0  0.83512590655E+02  0.10978012735E+03  0.38630127295E+02  0.18586739202E+03  0.11844142654E+03 0.  0.
        -11    1    3    3    0    0 -0.89095904130E+02 -0.22148156176E+02 -0.16340745445E+03  0.18743163320E+03  0.00000000000E+00 0. -1.
         11    1    3    3    0    0  0.33573286867E+02 -0.28762970374E+02 -0.39402433301E+02  0.59220146958E+02  0.00000000000E+00 0.  1.
        -11    1    4    4    0    0  0.16680098053E+02  0.10975950051E+03  0.52030724252E+01  0.11114155652E+03  0.00000000000E+00 0.  1.
         11    1    4    4    0    0  0.66832492602E+02  0.20626840217E-01  0.33427054870E+02  0.74725835493E+02  0.00000000000E+00 0. -1.
         -2    1    1    2    0  502 -0.27989973392E+02 -0.58869000803E+02  0.12123959736E+03  0.13765187189E+03  0.00000000000E+00 0.  1.
<scales pt_clust_5="13000.00000" pt_clust_6="13000.00000" pt_clust_7="13000.00000" pt_clust_8="13000.00000" pt_clust_9="65.18434"></scales>
<clustering>
<clus scale="   65.184">  1  9  2 -1</clus>
<clus scale="  118.441">  7  8 -1 -1</clus>
<clus scale="  118.451">  5  6 -1 -1</clus>
<clus scale="  145.958">  1  7  2 -1</clus>
<clus scale="   65.184">  1  5  2 -1</clus>
</clustering>
</event>
<event>
 9    1  0.1445593E-005  0.1454360E+03  0.7546771E-02  0.1225815E+00
          4   -1    0    0  502    0 -0.00000000000E+00  0.00000000000E+00  0.56626207593E+03  0.56626207593E+03  0.00000000000E+00 0. -1.
         21   -1    0    0  501  502  0.00000000000E+00 -0.00000000000E+00 -0.31327854501E+03  0.31327854501E+03  0.00000000000E+00 0. -1.
         23    2    1    2    0    0 -0.41230800853E+02 -0.15667391693E+02 -0.50016429369E+02  0.10830322174E+03  0.85337556395E+02 0.  0.
         23    2    1    2    0    0 -0.72358234187E+02  0.33684339195E+02  0.51560979154E+03  0.52951437667E+03  0.90341957075E+02 0.  0.
        -13    1    3    3    0    0 -0.60566426996E+02 -0.33946456707E+02 -0.37218282080E+02  0.78777246227E+02  0.00000000000E+00 0. -1.
         13    1    3    3    0    0  0.19335626143E+02  0.18279065014E+02 -0.12798147289E+02  0.29525975516E+02  0.00000000000E+00 0.  1.
        -13    1    4    4    0    0 -0.19565005972E+02  0.58664960576E+02  0.28386439192E+03  0.29052256377E+03  0.00000000000E+00 0. -1.
         13    1    4    4    0    0 -0.52793228215E+02 -0.24980621381E+02  0.23174539962E+03  0.23899181291E+03  0.00000000000E+00 0.  1.
          4    1    1    2  501    0  0.11358903504E+03 -0.18016947502E+02 -0.21260983125E+03  0.24172302253E+03  0.00000000000E+00 0. -1.
<scales pt_clust_5="13000.00000" pt_clust_6="13000.00000" pt_clust_7="13000.00000" pt_clust_8="13000.00000" pt_clust_9="113.97350"></scales>
<clustering>
<clus scale="   85.338">  5  6 -1 -1</clus>
<clus scale="   90.342">  7  8 -1 -1</clus>
<clus scale="   96.062">  1  5  2 -1</clus>
<clus scale="  113.973">  2  9  1 -1</clus>
<clus scale="  113.973">  2  5  1 -1</clus>
</clustering>
</event>
<event>
 9    1  0.1445593E-005  0.9801531E+02  0.7546771E-02  0.1285160E+00
          1   -1    0    0  502    0 -0.00000000000E+00  0.00000000000E+00  0.12478326633E+03  0.12478326633E+03  0.00000000000E+00 0. -1.
         21   -1    0    0  501  502  0.00000000000E+00 -0.00000000000E+00 -0.11749352395E+03  0.11749352395E+03  0.00000000000E+00 0. -1.
         23    2    1    2    0    0  0.28955742182E+02 -0.89827638445E+01  0.11440499934E+02  0.96435885632E+02  0.90828794703E+02 0.  0.
         23    2    1    2    0    0 -0.36165022785E+02 -0.31900929240E+02  0.14713183713E+01  0.10394749436E+03  0.92072464108E+02 0.  0.
        -13    1    4    4    0    0 -0.27513764596E+02 -0.54563660340E+02  0.28672946914E+02  0.67500653009E+02  0.00000000000E+00 0. -1.
         13    1    4    4    0    0 -0.86512581886E+01  0.22662731100E+02 -0.27201628543E+02  0.36446841352E+02  0.00000000000E+00 0.  1.
        -13    1    3    3    0    0  0.43825926584E+02  0.26205013382E+02  0.23729289798E+02  0.56307137750E+02  0.00000000000E+00 0.  1.
         13    1    3    3    0    0 -0.14870184402E+02 -0.35187777226E+02 -0.12288789864E+02  0.40128747882E+02  0.00000000000E+00 0. -1.
          1    1    1    2  501    0  0.72092806031E+01  0.40883693084E+02 -0.56220759264E+01  0.41893410278E+02  0.00000000000E+00 0. -1.
<scales pt_clust_5="13000.00000" pt_clust_6="13000.00000" pt_clust_7="13000.00000" pt_clust_8="13000.00000" pt_clust_9="41.51446"></scales>
<clustering>
<clus scale="   41.514">  2  9  1 -1</clus>
<clus scale="   90.829">  7  8 -1 -1</clus>
<clus scale="   92.072">  5  6 -1 -1</clus>
<clus scale="   96.848">  1  7  2 -1</clus>
<clus scale="   41.514">  2  5  1 -1</clus>
</clustering>
</event>
<event>
 9    1  0.1445593E-005  0.1056553E+03  0.7546771E-02  0.1269062E+00
         21   -1    0    0  501  502  0.00000000000E+00  0.00000000000E+00  0.74104031139E+02  0.74104031139E+02  0.00000000000E+00 0. -1.
         -1   -1    0    0    0  501 -0.00000000000E+00 -0.00000000000E+00 -0.33505449507E+03  0.33505449507E+03  0.00000000000E+00 0.  1.
         23    2    1    2    0    0  0.27053586965E+02 -0.33033907359E+02 -0.17625857402E+03  0.20274375416E+03  0.90635585344E+02 0.  0.
         23    2    1    2    0    0 -0.56139106537E+02  0.52944184580E+02 -0.11098010149E+03  0.16244368319E+03  0.90092626335E+02 0.  0.
        -11    1    3    3    0    0 -0.56200188458E+01 -0.52107754490E+02 -0.14324407375E+03  0.15253087345E+03  0.00000000000E+00 0.  1.
         11    1    3    3    0    0  0.32673605810E+02  0.19073847131E+02 -0.33014500269E+02  0.50212880709E+02  0.00000000000E+00 0. -1.
        -11    1    4    4    0    0 -0.31338651169E+02 -0.22821060476E+02 -0.32726577129E+02  0.50734019246E+02  0.00000000000E+00 0.  1.
         11    1    4    4    0    0 -0.24800455368E+02  0.75765245055E+02 -0.78253524358E+02  0.11170966395E+03  0.00000000000E+00 0. -1.
         -1    1    1    2    0  502  0.29085519572E+02 -0.19910277221E+02  0.26288211575E+02  0.43971088861E+02  0.00000000000E+00 0.  1.
<scales pt_clust_5="13000.00000" pt_clust_6="13000.00000" pt_clust_7="13000.00000" pt_clust_8="13000.00000" pt_clust_9="35.24750"></scales>
<clustering>
<clus scale="   35.248">  1  9  2 -1</clus>
<clus scale="   90.093">  7  8 -1 -1</clus>
<clus scale="   90.636">  5  6 -1 -1</clus>
<clus scale="  105.190">  1  7  2 -1</clus>
<clus scale="   35.248">  1  5  2 -1</clus>
</clustering>
</event>
<event>
 9    1  0.1445593E-005  0.1138202E+03  0.7546771E-02  0.1264326E+00
          4   -1    0    0  502    0 -0.00000000000E+00  0.00000000000E+00  0.47845462068E+02  0.47845462068E+02  0.00000000000E+00 0. -1.
         21   -1    0    0  501  502  0.00000000000E+00 -0.00000000000E+00 -0.45780423452E+03  0.45780423452E+03  0.00000000000E+00 0. -1.
         23    2    1    2    0    0 -0.31896870964E+02  0.34173331731E+01 -0.58642725488E+02  0.11113366351E+03  0.88784195491E+02 0.  0.
         23    2    1    2    0    0 -0.21774737689E+01 -0.35448263671E+02 -0.16244734057E+03  0.19994360509E+03  0.11102696055E+03 0.  0.
        -11    1    4    4    0    0 -0.18147302677E+02 -0.73248602230E+02 -0.10187876750E+03  0.12678314395E+03  0.00000000000E+00 0. -1.
         11    1    4    4    0    0  0.15969828908E+02  0.37800338559E+02 -0.60568573068E+02  0.73160461138E+02  0.00000000000E+00 0.  1.
        -11    1    3    3    0    0 -0.61863566525E+02 -0.66166726748E+01 -0.32935996162E+02  0.70396456329E+02  0.00000000000E+00 0.  1.
         11    1    3    3    0    0  0.29966695561E+02  0.10034005848E+02 -0.25706729326E+02  0.40737207180E+02  0.00000000000E+00 0. -1.
          4    1    1    2  501    0  0.34074344733E+02  0.32030930498E+02 -0.18886870640E+03  0.19457242799E+03  0.00000000000E+00 0. -1.
<scales pt_clust_5="13000.00000" pt_clust_6="13000.00000" pt_clust_7="13000.00000" pt_clust_8="13000.00000" pt_clust_9="46.76582"></scales>
<clustering>
<clus scale="   46.766">  2  9  1 -1</clus>
<clus scale="   88.784">  7  8 -1 -1</clus>
<clus scale="   92.253">  1  7  2 -1</clus>
<clus scale="  111.027">  5  6 -1 -1</clus>
<clus scale="   46.766">  2  5  1 -1</clus>
</clustering>
</event>
<event>
 9    1  0.1445593E-005  0.1047539E+03  0.7546771E-02  0.1273006E+00
          2   -1    0    0  502    0 -0.00000000000E+00  0.00000000000E+00  0.36042499740E+03  0.36042499740E+03  0.00000000000E+00 0. -1.
         21   -1    0    0  501  502  0.00000000000E+00 -0.00000000000E+00 -0.11358889036E+03  0.11358889036E+03  0.00000000000E+00 0. -1.
         23    2    1    2    0    0 -0.14018194102E+02 -0.66426737327E+02  0.16593659339E+03  0.20011944459E+03  0.88903418823E+02 0.  0.
         23    2    1    2    0    0 -0.52103365876E+02  0.15687829838E+02  0.13586758908E+03  0.17405463777E+03  0.94202687998E+02 0.  0.
        -13    1    4    4    0    0  0.26343072111E+02  0.74927207692E+01  0.20100612142E+02  0.33972531865E+02  0.00000000000E+00 0.  1.
         13    1    4    4    0    0 -0.78446437987E+02  0.81951090690E+01  0.11576697693E+03  0.14008210590E+03  0.00000000000E+00 0. -1.
        -13    1    3    3    0    0  0.22384525550E+02 -0.34453666554E+02  0.18748719596E+02  0.45162336184E+02  0.00000000000E+00 0.  1.
         13    1    3    3    0    0 -0.36402719652E+02 -0.31973070773E+02  0.14718787380E+03  0.15495710841E+03  0.00000000000E+00 0. -1.
          2    1    1    2  501    0  0.66121559978E+02  0.50738907488E+02 -0.54968075423E+02  0.99839805402E+02  0.00000000000E+00 0. -1.
<scales pt_clust_5="13000.00000" pt_clust_6="13000.00000" pt_clust_7="13000.00000" pt_clust_8="13000.00000" pt_clust_9="83.34565"></scales>
<clustering>
<clus scale="   83.346">  2  9  1 -1</clus>
<clus scale="   88.903">  7  8 -1 -1</clus>
<clus scale="   94.203">  5  6 -1 -1</clus>
<clus scale="  100.015">  1  7  2 -1</clus>
<clus scale="   83.346">  2  5  1 -1</clus>
</clustering>
</event>
<event>
 9    1  0.1445593E-005  0.1243199E+03  0.7546771E-02  0.1250850E+00
         -1   -1    0    0    0  501 -0.00000000000E+00  0.00000000000E+00  0.34143490532E+03  0.34143490532E+03  0.00000000000E+00 0.  1.
         21   -1    0    0  501  502  0.00000000000E+00 -0.00000000000E+00 -0.96377816105E+02  0.96377816105E+02  0.00000000000E+00 0. -1.
         23    2    1    2    0    0  0.16121812075E+02 -0.16491469493E+02  0.24070201332E+03  0.27125363147E+03  0.12291945322E+03 0.  0.
         23    2    1    2    0    0  0.43174467631E+02  0.24523628169E+02  0.19047785155E+02  0.10494383158E+03  0.90470695105E+02 0.  0.
        -11    1    4    4    0    0  0.64483215674E+02 -0.72142769204E+01  0.14068897638E+02  0.66393258512E+02  0.00000000000E+00 0. -1.
         11    1    4    4    0    0 -0.21308748043E+02  0.31737905089E+02  0.49788875170E+01  0.38550573064E+02  0.00000000000E+00 0.  1.
        -13    1    3    3    0    0  0.60521357694E+02 -0.41506568173E+02  0.15606401993E+03  0.17245755494E+03  0.00000000000E+00 0. -1.
         13    1    3    3    0    0 -0.44399545619E+02  0.25015098680E+02  0.84637993394E+02  0.98796076536E+02  0.00000000000E+00 0.  1.
         -1    1    1    2    0  502 -0.59296279706E+02 -0.80321586755E+01 -0.14692709257E+02  0.61615258381E+02  0.00000000000E+00 0.  1.
<scales pt_clust_5="13000.00000" pt_clust_6="13000.00000" pt_clust_7="13000.00000" pt_clust_8="13000.00000" pt_clust_9="59.83782"></scales>
<clustering>
<clus scale="   59.838">  2  9  1 -1</clus>
<clus scale="   90.471">  5  6 -1 -1</clus>
<clus scale="   92.364">  2  5  1 -1</clus>
<clus scale="  122.919">  7  8 -1 -1</clus>
<clus scale="   59.838">  2  5  1 -1</clus>
</clustering>
</event>
<event>
 9    1  0.1445593E-005  0.9607509E+02  0.7546771E-02  0.1288780E+00
         21   -1    0    0  501  502  0.00000000000E+00  0.00000000000E+00  0.53209817062E+03  0.53209817062E+03  0.00000000000E+00 0.  1.
          3   -1    0    0  502    0 -0.00000000000E+00 -0.00000000000E+00 -0.96910488208E+02  0.96910488208E+02  0.00000000000E+00 0. -1.
         23    2    1    2    0    0 -0.48822496561E+02 -0.87548377907E+01 -0.25590149005E+02  0.10679473094E+03  0.91049302444E+02 0.  0.
         23    2    1    2    0    0 -0.35517730388E+01 -0.20426064499E+02  0.47770826846E+02  0.10487788224E+03  0.91035592392E+02 0.  0.
        -11    1    4    4    0    0  0.27342966645E+02 -0.37320440176E+02  0.51780234010E+02  0.69438071070E+02  0.00000000000E+00 0. -1.
         11    1    4    4    0    0 -0.30894739684E+02  0.16894375677E+02 -0.40094071640E+01  0.35439811166E+02  0.00000000000E+00 0.  1.
        -11    1    3    3    0    0  0.18017671999E+02 -0.17720794051E+02 -0.29983217115E+02  0.39212961564E+02  0.00000000000E+00 0. -1.
         11    1    3    3    0    0 -0.66840168560E+02  0.89659562602E+01  0.43930681094E+01  0.67581769378E+02  0.00000000000E+00 0.  1.
          3    1    1    2  501    0  0.52374269600E+02  0.29180902289E+02  0.41300700457E+03  0.41733604565E+03  0.00000000000E+00 0. -1.
<scales pt_clust_5="13000.00000" pt_clust_6="13000.00000" pt_clust_7="13000.00000" pt_clust_8="13000.00000" pt_clust_9="59.95489"></scales>
<clustering>
<clus scale="   59.955">  1  9  2 -1</clus>
<clus scale="   91.036">  5  6 -1 -1</clus>
<clus scale="   91.049">  7  8 -1 -1</clus>
<clus scale="   96.062">  1  5  2 -1</clus>
<clus scale="   59.955">  1  5  2 -1</clus>
</clustering>
</event>
<event>
 9    1  0.1445593E-005  0.9751460E+02  0.7546771E-02  0.1286499E+00
          4   -1    0    0  502    0 -0.00000000000E+00  0.00000000000E+00  0.14316642345E+03  0.14316642345E+03  0.00000000000E+00 0. -1.
         21   -1    0    0  501  502  0.00000000000E+00 -0.00000000000E+00 -0.13763191719E+03  0.13763191719E+03  0.00000000000E+00 0. -1.
         23    2    1    2    0    0 -0.22996877878E+02 -0.72541009931E+01  0.62878675286E+02  0.11226343066E+03  0.89821332012E+02 0.  0.
         23    2    1    2    0    0  0.67253620450E+02  0.21308406223E+01 -0.45894028026E+02  0.12253477097E+03  0.91547355734E+02 0.  0.
        -11    1    4    4    0    0  0.89008799675E+02  0.97059289774E+01 -0.29539408090E+02  0.94283339499E+02  0.00000000000E+00 0. -1.
         11    1    4    4    0    0 -0.21755179224E+02 -0.75750883552E+01 -0.16354619936E+02  0.28251431467E+02  0.00000000000E+00 0.  1.
        -11    1    3    3    0    0  0.25962725623E+02 -0.29172781043E+02  0.22022251612E+02  0.44834070099E+02  0.00000000000E+00 0. -1.
         11    1    3    3    0    0 -0.48959603501E+02  0.21918680050E+02  0.40856423674E+02  0.67429360560E+02  0.00000000000E+00 0.  1.
          4    1    1    2  501    0 -0.44256742573E+02  0.51232603708E+01 -0.11450141002E+02  0.46000139010E+02  0.00000000000E+00 0. -1.
<scales pt_clust_5="13000.00000" pt_clust_6="13000.00000" pt_clust_7="13000.00000" pt_clust_8="13000.00000" pt_clust_9="44.55230"></scales>
<clustering>
<clus scale="   44.552">  2  9  1 -1</clus>
<clus scale="   89.821">  7  8 -1 -1</clus>
<clus scale="   91.547">  5  6 -1 -1</clus>
<clus scale="   95.896">  1  7  2 -1</clus>
<clus scale="   44.552">  2  5  1 -1</clus>
</clustering>
</event>
<event>
 9    1  0.1445593E-005  0.1065893E+03  0.7546771E-02  0.1271085E+00
          2   -1    0    0  502    0 -0.00000000000E+00  0.00000000000E+00  0.47138357915E+03  0.47138357915E+03  0.00000000000E+00 0. -1.
         21   -1    0    0  501  502  0.00000000000E+00 -0.00000000000E+00 -0.15109942124E+03  0.15109942124E+03  0.00000000000E+00 0. -1.
         23    2    1    2    0    0 -0.22633580952E+02 -0.50752712224E+02  0.36024263351E+03  0.37336105765E+03  0.80843104764E+02 0.  0.
         23    2    1    2    0    0 -0.62343098169E+02  0.89674596491E+02  0.11711338525E+02  0.14232438302E+03  0.90503477325E+02 0.  0.
        -11    1    4    4    0    0 -0.15015891087E+01  0.36281832523E+02 -0.33672719390E+02  0.49522501676E+02  0.00000000000E+00 0.  1.
         11    1    4    4    0    0 -0.60841509060E+02  0.53392763968E+02  0.45384057915E+02  0.92801881348E+02  0.00000000000E+00 0. -1.
        -13    1    3    3    0    0 -0.26701955655E+02  0.13015118271E+02  0.67843682919E+02  0.74061819120E+02  0.00000000000E+00 0.  1.
         13    1    3    3    0    0  0.40683747031E+01 -0.63767830496E+02  0.29239895059E+03  0.29929923853E+03  0.00000000000E+00 0. -1.
          2    1    1    2  501    0  0.84976679121E+02 -0.38921884266E+02 -0.51669814129E+02  0.10679755972E+03  0.00000000000E+00 0. -1.
<scales pt_clust_5="13000.00000" pt_clust_6="13000.00000" pt_clust_7="13000.00000" pt_clust_8="13000.00000" pt_clust_9="93.46630"></scales>
<clustering>
<clus scale="   80.843">  7  8 -1 -1</clus>
<clus scale="   90.503">  5  6 -1 -1</clus>
<clus scale="   93.466">  2  9  1 -1</clus>
<clus scale="   98.519">  1  7  2 -1</clus>
<clus scale="   93.466">  2  5  1 -1</clus>
</clustering>
</event>
<event>
 9    1  0.1445593E-005  0.9325522E+02  0.7546771E-02  0.1295898E+00
          1   -1    0    0  502    0 -0.00000000000E+00  0.00000000000E+00  0.85514346962E+02  0.85514346962E+02  0.00000000000E+00 0. -1.
         21   -1    0    0  501  502  0.00000000000E+00 -0.00000000000E+00 -0.22257693153E+03  0.22257693153E+03  0.00000000000E+00 0.  1.
         23    2    1    2    0    0 -0.16403997749E+02 -0.73741158679E+01  0.26489960565E+02  0.95693762473E+02  0.90178209333E+02 0.  0.
         23    2    1    2    0    0  0.25275200467E+02 -0.21023266300E+02 -0.15211657454E+03  0.18052447137E+03  0.91481249606E+02 0.  0.
        -11    1    4    4    0    0  0.46905261432E+02 -0.15445970971E+02 -0.15019423711E+03  0.15810436563E+03  0.00000000000E+00 0.  1.
         11    1    4    4    0    0 -0.21630060965E+02 -0.55772953289E+01 -0.19223374347E+01  0.22420105748E+02  0.00000000000E+00 0. -1.
        -13    1    3    3    0    0 -0.16533995626E+02 -0.48285684220E+02  0.14237487433E+02  0.52986662099E+02  0.00000000000E+00 0. -1.
         13    1    3    3    0    0  0.12999787739E+00  0.40911568353E+02  0.12252473132E+02  0.42707100374E+02  0.00000000000E+00 0.  1.
          1    1    1    2  501    0 -0.88712027182E+01  0.28397382168E+02 -0.11435970591E+02  0.31873044646E+02  0.00000000000E+00 0. -1.
<scales pt_clust_5="13000.00000" pt_clust_6="13000.00000" pt_clust_7="13000.00000" pt_clust_8="13000.00000" pt_clust_9="29.75081"></scales>
<clustering>
<clus scale="   29.751">  2  9  1 -1</clus>
<clus scale="   90.178">  7  8 -1 -1</clus>
<clus scale="   91.481">  5  6 -1 -1</clus>
<clus scale="   91.977">  1  7  2 -1</clus>
<clus scale="   29.751">  2  5  1 -1</clus>
</clustering>
</event>
<event>
 9    1  0.1445593E-005  0.1725867E+03  0.7546771E-02  0.1199563E+00
         -1   -1    0    0    0  501 -0.00000000000E+00  0.00000000000E+00  0.19358652327E+03  0.19358652327E+03  0.00000000000E+00 0.  1.
         21   -1    0    0  501  502  0.00000000000E+00 -0.00000000000E+00 -0.27262838897E+03  0.27262838897E+03  0.00000000000E+00 0. -1.
         23    2    1    2    0    0 -0.44347673125E+02 -0.90391031753E+00 -0.96851110923E+02  0.13953161809E+03  0.90118819320E+02 0.  0.
         23    2    1    2    0    0 -0.45300784237E+02  0.13086476178E+03 -0.91041069646E+01  0.16652400672E+03  0.92030501049E+02 0.  0.
        -11    1    4    4    0    0  0.27136877443E+02  0.28946755133E+02 -0.11999430318E+02  0.41452515943E+02  0.00000000000E+00 0. -1.
         11    1    4    4    0    0 -0.72437661680E+02  0.10191800665E+03  0.28953233538E+01  0.12507149078E+03  0.00000000000E+00 0.  1.
        -11    1    3    3    0    0 -0.11361682303E+02 -0.43636186775E+02 -0.32758936615E+02  0.55734662008E+02  0.00000000000E+00 0.  1.
         11    1    3    3    0    0 -0.32985990822E+02  0.42732276458E+02 -0.64092174309E+02  0.83796956087E+02  0.00000000000E+00 0. -1.
         -1    1    1    2    0  502  0.89648457362E+02 -0.12996085146E+03  0.26913352194E+02  0.16015928742E+03  0.00000000000E+00 0.  1.
<scales pt_clust_5="13000.00000" pt_clust_6="13000.00000" pt_clust_7="13000.00000" pt_clust_8="13000.00000" pt_clust_9="146.00194"></scales>
<clustering>
<clus scale="   90.119">  7  8 -1 -1</clus>
<clus scale="   92.031">  5  6 -1 -1</clus>
<clus scale="  100.444">  1  7  2 -1</clus>
<clus scale="  146.002">  2  9  1 -1</clus>
<clus scale="  146.002">  2  5  1 -1</clus>
</clustering>
</event>
<event>
 9    1  0.1445593E-005  0.9432417E+02  0.7546771E-02  0.1293014E+00
         21   -1    0    0  501  502  0.00000000000E+00  0.00000000000E+00  0.10814616649E+03  0.10814616649E+03  0.00000000000E+00 0.  1.
         -1   -1    0    0    0  501 -0.00000000000E+00 -0.00000000000E+00 -0.38404345185E+03  0.38404345185E+03  0.00000000000E+00 0.  1.
         23    2    1    2    0    0  0.28062903471E+02  0.59988794591E+01 -0.30627252671E+03  0.32098333679E+03  0.91672944584E+02 0.  0.
         23    2    1    2    0    0  0.24569996310E+02 -0.26643882986E+02 -0.14368089800E+02  0.99106323222E+02  0.91115531491E+02 0.  0.
        -13    1    4    4    0    0  0.49320914814E+02 -0.68511885363E+01  0.18805957726E+02  0.53227393966E+02  0.00000000000E+00 0.  1.
         13    1    4    4    0    0 -0.24750918505E+02 -0.19792694450E+02 -0.33174047526E+02  0.45878929256E+02  0.00000000000E+00 0. -1.
        -13    1    3    3    0    0  0.26338972768E+02  0.46202046218E+02 -0.21020856796E+03  0.21683176106E+03  0.00000000000E+00 0.  1.
         13    1    3    3    0    0  0.17239307030E+01 -0.40203166759E+02 -0.96063958755E+02  0.10415157573E+03  0.00000000000E+00 0. -1.
         -1    1    1    2    0  502 -0.52632899780E+02  0.20645003527E+02  0.44743331151E+02  0.72099958339E+02  0.00000000000E+00 0.  1.
<scales pt_clust_5="13000.00000" pt_clust_6="13000.00000" pt_clust_7="13000.00000" pt_clust_8="13000.00000" pt_clust_9="56.53705"></scales>
<clustering>
<clus scale="   56.537">  1  9  2 -1</clus>
<clus scale="   91.116">  5  6 -1 -1</clus>
<clus scale="   91.673">  7  8 -1 -1</clus>
<clus scale="   93.783">  1  5  2 -1</clus>
<clus scale="   56.537">  1  5  2 -1</clus>
</clustering>
</event>
<event>
 9    1  0.1445593E-005  0.1471161E+03  0.7546771E-02  0.1204080E+00
         21   -1    0    0  501  502  0.00000000000E+00  0.00000000000E+00  0.58494965910E+02  0.58494965910E+02  0.00000000000E+00 0. -1.
          2   -1    0    0  502    0 -0.00000000000E+00 -0.00000000000E+00 -0.12686613974E+04  0.12686613974E+04  0.00000000000E+00 0. -1.
         23    2    1    2    0    0 -0.35015047417E+01 -0.10308417671E+03 -0.62752054478E+03  0.64258554987E+03  0.92171290336E+02 0.  0.
         23    2    1    2    0    0  0.68431370230E+02  0.12323410456E+03 -0.59242548184E+03  0.61588640830E+03  0.92079419225E+02 0.  0.
        -11    1    3    3    0    0 -0.45143913422E+02 -0.30904314658E+02 -0.22874506270E+03  0.23519641429E+03  0.00000000000E+00 0.  1.
         11    1    3    3    0    0  0.41642408681E+02 -0.72179862050E+02 -0.39877548208E+03  0.40738913558E+03  0.00000000000E+00 0. -1.
        -13    1    4    4    0    0  0.44659433332E+02  0.85505001413E+02 -0.53262216793E+03  0.54128730267E+03  0.00000000000E+00 0. -1.
         13    1    4    4    0    0  0.23771936898E+02  0.37729103147E+02 -0.59803313901E+02  0.74599105636E+02  0.00000000000E+00 0.  1.
          2    1    1    2  501    0 -0.64929865488E+02 -0.20149927852E+02  0.97795951464E+01  0.68684405114E+02  0.00000000000E+00 0. -1.
<scales pt_clust_5="13000.00000" pt_clust_6="13000.00000" pt_clust_7="13000.00000" pt_clust_8="13000.00000" pt_clust_9="67.98461"></scales>
<clustering>
<clus scale="   67.985">  1  9  2 -1</clus>
<clus scale="   92.079">  7  8 -1 -1</clus>
<clus scale="   92.171">  5  6 -1 -1</clus>
<clus scale="  147.059">  1  7  2 -1</clus>
<clus scale="   67.985">  1  5  2 -1</clus>
</clustering>
</event>
<event>
 9    1  0.1445593E-005  0.9393234E+02  0.7546771E-02  0.1295391E+00
         21   -1    0    0  501  502  0.00000000000E+00  0.00000000000E+00  0.23642561223E+02  0.23642561223E+02  0.00000000000E+00 0.  1.
          1   -1    0    0  502    0 -0.00000000000E+00 -0.00000000000E+00 -0.56999731511E+03  0.56999731511E+03  0.00000000000E+00 0. -1.
         23    2    1    2    0    0  0.16819472365E+02  0.27110541471E+02 -0.37999473205E+03  0.39179371139E+03  0.89935753675E+02 0.  0.
         23    2    1    2    0    0 -0.17751575035E+02 -0.49898206879E+01 -0.10989821729E+03  0.14119857244E+03  0.86714485351E+02 0.  0.
        -13    1    4    4    0    0 -0.47703803305E+02 -0.77307625893E+01 -0.32704978062E+02  0.58352661722E+02  0.00000000000E+00 0. -1.
         13    1    4    4    0    0  0.29952228270E+02  0.27409419013E+01 -0.77193239225E+02  0.82845910719E+02  0.00000000000E+00 0.  1.
        -13    1    3    3    0    0  0.45425787642E+02 -0.10723917653E+02 -0.22099020282E+03  0.22586538986E+03  0.00000000000E+00 0.  1.
         13    1    3    3    0    0 -0.28606315278E+02  0.37834459123E+02 -0.15900452922E+03  0.16592832153E+03  0.00000000000E+00 0. -1.
          1    1    1    2  501    0  0.93210267069E+00 -0.22120720783E+02 -0.56461804551E+02  0.60647592503E+02  0.00000000000E+00 0. -1.
<scales pt_clust_5="13000.00000" pt_clust_6="13000.00000" pt_clust_7="13000.00000" pt_clust_8="13000.00000" pt_clust_9="22.14036"></scales>
<clustering>
<clus scale="   22.140">  1  9  2 -1</clus>
<clus scale="   86.714">  5  6 -1 -1</clus>
<clus scale="   89.936">  7  8 -1 -1</clus>
<clus scale="   90.853">  1  5  2 -1</clus>
<clus scale="   22.140">  1  5  2 -1</clus>
</clustering>
</event>
<event>
 9    1  0.1445593E-005  0.1811761E+03  0.7546771E-02  0.1173607E+00
         21   -1    0    0  501  502  0.00000000000E+00  0.00000000000E+00  0.28782667008E+03  0.28782667008E+03  0.00000000000E+00 0.  1.
          1   -1    0    0  502    0 -0.00000000000E+00 -0.00000000000E+00 -0.55269588117E+03  0.55269588117E+03  0.00000000000E+00 0. -1.
         23    2    1    2    0    0  0.11269877173E+03  0.54588932400E+02  0.89162780019E+02  0.17846531255E+03  0.90658158786E+02 0.  0.
         23    2    1    2    0    0 -0.13237224812E+03  0.10442093091E+03 -0.44027056756E+03  0.48010044611E+03  0.90731046585E+02 0.  0.
        -11    1    3    3    0    0  0.42746957631E+01  0.45546162029E+02  0.24353236994E+02  0.51824762918E+02  0.00000000000E+00 0. -1.
         11    1    3    3    0    0  0.10842407596E+03  0.90427703710E+01  0.64809543025E+02  0.12664054964E+03  0.00000000000E+00 0.  1.
        -13    1    4    4    0    0 -0.19207219349E+02 -0.12024956065E+02 -0.10705751330E+03  0.10942955724E+03  0.00000000000E+00 0. -1.
         13    1    4    4    0    0 -0.11316502877E+03  0.11644588697E+03 -0.33321305425E+03  0.37067088887E+03  0.00000000000E+00 0.  1.
          1    1    1    2  501    0  0.19673476389E+02 -0.15900986331E+03  0.86238576448E+02  0.18195679259E+03  0.00000000000E+00 0. -1.
<scales pt_clust_5="13000.00000" pt_clust_6="13000.00000" pt_clust_7="13000.00000" pt_clust_8="13000.00000" pt_clust_9="156.82052"></scales>
<clustering>
<clus scale="   90.658">  5  6 -1 -1</clus>
<clus scale="   90.731">  7  8 -1 -1</clus>
<clus scale="  154.596">  2  5  1 -1</clus>
<clus scale="  156.821">  1  9  2 -1</clus>
<clus scale="  156.821">  1  5  2 -1</clus>
</clustering>
</event>
<event>
 9    1  0.1445593E-005  0.1160518E+03  0.7546771E-02  0.1250213E+00
         21   -1    0    0  501  502  0.00000000000E+00  0.00000000000E+00  0.14371733766E+03  0.14371733766E+03  0.00000000000E+00 0. -1.
         -3   -1    0    0    0  501 -0.00000000000E+00 -0.00000000000E+00 -0.17542987192E+03  0.17542987192E+03  0.00000000000E+00 0.  1.
         23    2    1    2    0    0  0.54419261545E+02 -0.28078759558E+02 -0.42064082895E+02  0.11749003487E+03  0.91020044271E+02 0.  0.
         23    2    1    2    0    0 -0.80050511798E+02  0.25700739702E+02 -0.52557431623E+02  0.13368544701E+03  0.89671080424E+02 0.  0.
        -13    1    3    3    0    0 -0.20488434981E+02 -0.27579843782E+02 -0.84304277879E+01  0.35376487441E+02  0.00000000000E+00 0. -1.
         13    1    3    3    0    0  0.74907696526E+02 -0.49891577592E+00 -0.33633655107E+02  0.82113547431E+02  0.00000000000E+00 0.  1.
        -13    1    4    4    0    0 -0.47806231814E+02 -0.15929944591E+00 -0.73243584328E+02  0.87464757599E+02  0.00000000000E+00 0.  1.
         13    1    4    4    0    0 -0.32244279983E+02  0.25860039148E+02  0.20686152705E+02  0.46220689416E+02  0.00000000000E+00 0. -1.
         -3    1    1    2    0  502  0.25631250253E+02  0.23780198559E+01  0.62908980255E+02  0.67971727687E+02  0.00000000000E+00 0.  1.
<scales pt_clust_5="13000.00000" pt_clust_6="13000.00000" pt_clust_7="13000.00000" pt_clust_8="13000.00000" pt_clust_9="25.74133"></scales>
<clustering>
<clus scale="   25.741">  1  9  2 -1</clus>
<clus scale="   89.671">  7  8 -1 -1</clus>
<clus scale="   91.020">  5  6 -1 -1</clus>
<clus scale="  114.997">  1  7  2 -1</clus>
<clus scale="   25.741">  1  5  2 -1</clus>
</clustering>
</event>
<event>
 9    1  0.1445593E-005  0.9334522E+02  0.7546771E-02  0.1300457E+00
         21   -1    0    0  501  502  0.00000000000E+00  0.00000000000E+00  0.51394920312E+03  0.51394920312E+03  0.00000000000E+00 0. -1.
         -1   -1    0    0    0  501 -0.00000000000E+00 -0.00000000000E+00 -0.50038023044E+02  0.50038023044E+02  0.00000000000E+00 0.  1.
         23    2    1    2    0    0  0.32363835259E+02  0.20525518003E+02  0.43587729213E+02  0.10803573948E+03  0.91121436253E+02 0.  0.
         23    2    1    2    0    0  0.40639951795E+02  0.16582643849E+02  0.25668909018E+03  0.27296850224E+03  0.81828628481E+02 0.  0.
        -11    1    4    4    0    0  0.48533632373E+02 -0.72540398737E+01  0.23411676985E+03  0.23920450767E+03  0.00000000000E+00 0. -1.
         11    1    4    4    0    0 -0.78936805784E+01  0.23836683723E+02  0.22572320323E+02  0.33763994561E+02  0.00000000000E+00 0.  1.
        -11    1    3    3    0    0 -0.18075503027E+01 -0.32927141492E+02  0.26575955184E+02  0.42352630129E+02  0.00000000000E+00 0.  1.
         11    1    3    3    0    0  0.34171385562E+02  0.53452659494E+02  0.17011774029E+02  0.65683109350E+02  0.00000000000E+00 0. -1.
         -1    1    1    2    0  502 -0.73003787054E+02 -0.37108161852E+02  0.16363436069E+03  0.18298298445E+03  0.00000000000E+00 0.  1.
<scales pt_clust_5="13000.00000" pt_clust_6="13000.00000" pt_clust_7="13000.00000" pt_clust_8="13000.00000" pt_clust_9="81.89364"></scales>
<clustering>
<clus scale="   81.829">  5  6 -1 -1</clus>
<clus scale="   81.894">  1  9  2 -1</clus>
<clus scale="   84.298">  1  5  2 -1</clus>
<clus scale="   91.121">  7  8 -1 -1</clus>
<clus scale="   81.894">  1  5  2 -1</clus>
</clustering>
</event>
<event>
 9    1  0.1445593E-005  0.1549984E+03  0.7546771E-02  0.1195702E+00
          1   -1    0    0  502    0 -0.00000000000E+00  0.00000000000E+00  0.29992929763E+03  0.29992929763E+03  0.00000000000E+00 0. -1.
         21   -1    0    0  501  502  0.00000000000E+00 -0.00000000000E+00 -0.20299025464E+03  0.20299025464E+03  0.00000000000E+00 0. -1.
         23    2    1    2    0    0 -0.11925514026E+03 -0.31870100238E+02  0.20465583958E+03  0.25705558675E+03  0.94636516394E+02 0.  0.
         23    2    1    2    0    0  0.11906298650E+03  0.11467647125E+02 -0.14241641622E+03  0.20561026236E+03  0.87667797361E+02 0.  0.
        -11    1    4    4    0    0  0.30013056493E+02 -0.35850061062E+02 -0.54686648302E+02  0.71948870323E+02  0.00000000000E+00 0. -1.
         11    1    4    4    0    0  0.89049930011E+02  0.47317708187E+02 -0.87729767915E+02  0.13366139204E+03  0.00000000000E+00 0.  1.
        -13    1    3    3    0    0 -0.12033840856E+03 -0.52061573418E+02  0.19412597622E+03  0.23425762452E+03  0.00000000000E+00 0. -1.
         13    1    3    3    0    0  0.10832682996E+01  0.20191473180E+02  0.10529863361E+02  0.22797962229E+02  0.00000000000E+00 0.  1.
          1    1    1    2  501    0  0.19215375266E+00  0.20402453113E+02  0.34699619625E+02  0.40253703162E+02  0.00000000000E+00 0. -1.
<scales pt_clust_5="13000.00000" pt_clust_6="13000.00000" pt_clust_7="13000.00000" pt_clust_8="13000.00000" pt_clust_9="20.40337"></scales>
<clustering>
<clus scale="   20.403">  2  9  1 -1</clus>
<clus scale="   87.668">  5  6 -1 -1</clus>
<clus scale="   94.637">  7  8 -1 -1</clus>
<clus scale="  150.845">  2  5  1 -1</clus>
<clus scale="   20.403">  2  5  1 -1</clus>
</clustering>
</event>
<event>
 9    1  0.1445593E-005  0.1030218E+03  0.7546771E-02  0.1275091E+00
          1   -1    0    0  502    0 -0.00000000000E+00  0.00000000000E+00  0.45049045032E+03  0.45049045032E+03  0.00000000000E+00 0. -1.
         21   -1    0    0  501  502  0.00000000000E+00 -0.00000000000E+00 -0.48632237307E+02  0.48632237307E+02  0.00000000000E+00 0.  1.
         23    2    1    2    0    0  0.46756768436E+02 -0.85920843061E+00  0.34310341766E+03  0.35835996843E+03  0.92276639119E+02 0.  0.
         23    2    1    2    0    0 -0.40996884417E+02  0.20796773600E+02  0.63625298410E+02  0.11944595188E+03  0.90032807902E+02 0.  0.
        -11    1    4    4    0    0  0.23471255156E+02  0.11214837163E+02 -0.30687766629E+01  0.26193315586E+02  0.00000000000E+00 0. -1.
         11    1    4    4    0    0 -0.64468139574E+02  0.95819364368E+01  0.66694075073E+02  0.93252636294E+02  0.00000000000E+00 0.  1.
        -11    1    3    3    0    0  0.69080921010E+02 -0.18323333509E+02  0.28335798084E+03  0.29223220819E+03  0.00000000000E+00 0. -1.
         11    1    3    3    0    0 -0.22324152575E+02  0.17464125078E+02  0.59745436815E+02  0.66127760231E+02  0.00000000000E+00 0.  1.
          1    1    1    2  501    0 -0.57598840181E+01 -0.19937565170E+02 -0.48705030605E+01  0.21316767317E+02  0.00000000000E+00 0. -1.
<scales pt_clust_5="13000.00000" pt_clust_6="13000.00000" pt_clust_7="13000.00000" pt_clust_8="13000.00000" pt_clust_9="20.75290"></scales>
<clustering>
<clus scale="   20.753">  2  9  1 -1</clus>
<clus scale="   90.033">  5  6 -1 -1</clus>
<clus scale="   92.277">  7  8 -1 -1</clus>
<clus scale="  101.017">  2  5  1 -1</clus>
<clus scale="   20.753">  2  5  1 -1</clus>
</clustering>
</event>
<event>
 9    1  0.1445593E-005  0.9943303E+02  0.7546771E-02  0.1285152E+00
          1   -1    0    0  502    0 -0.00000000000E+00  0.00000000000E+00  0.27174092425E+03  0.27174092425E+03  0.00000000000E+00 0. -1.
         21   -1    0    0  501  502  0.00000000000E+00 -0.00000000000E+00 -0.73047710501E+02  0.73047710501E+02  0.00000000000E+00 0.  1.
         23    2    1    2    0    0  0.78788473820E+01  0.46909366693E+02  0.15641200413E+03  0.18393260264E+03  0.84284769434E+02 0.  0.
         23    2    1    2    0    0 -0.27529686060E+02 -0.15272760529E+02  0.65567355674E+02  0.11693252010E+03  0.91558698645E+02 0.  0.
        -11    1    4    4    0    0  0.23571309822E+02 -0.24597123617E+02  0.53787497568E+02  0.63668830926E+02  0.00000000000E+00 0. -1.
         11    1    4    4    0    0 -0.51100995882E+02  0.93243630873E+01  0.11779858106E+02  0.53263689171E+02  0.00000000000E+00 0.  1.
        -13    1    3    3    0    0 -0.18531316616E+02  0.60643089254E+02  0.81075514953E+02  0.10292829103E+03  0.00000000000E+00 0.  1.
         13    1    3    3    0    0  0.26410163998E+02 -0.13733722561E+02  0.75336489173E+02  0.81004311605E+02  0.00000000000E+00 0. -1.
          1    1    1    2  501    0  0.19650838678E+02 -0.31636606164E+02 -0.23286146047E+02  0.43923512019E+02  0.00000000000E+00 0. -1.
<scales pt_clust_5="13000.00000" pt_clust_6="13000.00000" pt_clust_7="13000.00000" pt_clust_8="13000.00000" pt_clust_9="37.24286"></scales>
<clustering>
<clus scale="   37.243">  2  9  1 -1</clus>
<clus scale="   84.285">  7  8 -1 -1</clus>
<clus scale="   91.559">  5  6 -1 -1</clus>
<clus scale="   92.779">  1  7  2 -1</clus>
<clus scale="   37.243">  2  5  1 -1</clus>
</clustering>
</event>
<event>
 9    1  0.1445593E-005  0.1059220E+03  0.7546771E-02  0.1269930E+00
         21   -1    0    0  501  502  0.00000000000E+00  0.00000000000E+00  0.51489309083E+02  0.51489309083E+02  0.00000000000E+00 0. -1.
          1   -1    0    0  502    0 -0.00000000000E+00 -0.00000000000E+00 -0.61935554093E+03  0.61935554093E+03  0.00000000000E+00 0. -1.
         23    2    1    2    0    0 -0.68010943050E+01 -0.50841623408E+02 -0.40341862732E+03  0.41777845397E+03  0.95713751245E+02 0.  0.
         23    2    1    2    0    0 -0.60332203991E+02  0.19218564562E+02 -0.66027309583E+02  0.12980467430E+03  0.92088651834E+02 0.  0.
        -13    1    3    3    0    0 -0.41703970228E+02 -0.55124530008E+02 -0.20697377997E+03  0.21821109169E+03  0.00000000000E+00 0. -1.
         13    1    3    3    0    0  0.34902875923E+02  0.42829065996E+01 -0.19644484735E+03  0.19956736228E+03  0.00000000000E+00 0.  1.
        -13    1    4    4    0    0  0.17312262622E+02  0.24184180435E+02 -0.35285918505E+02  0.46148510974E+02  0.00000000000E+00 0.  1.
         13    1    4    4    0    0 -0.77644466613E+02 -0.49656158727E+01 -0.30741391077E+02  0.83656163324E+02  0.00000000000E+00 0. -1.
          1    1    1    2  501    0  0.67133298296E+02  0.31623058846E+02 -0.98420294944E+02  0.12326172175E+03  0.00000000000E+00 0. -1.
<scales pt_clust_5="13000.00000" pt_clust_6="13000.00000" pt_clust_7="13000.00000" pt_clust_8="13000.00000" pt_clust_9="74.20847"></scales>
<clustering>
<clus scale="   74.208">  1  9  2 -1</clus>
<clus scale="   92.089">  7  8 -1 -1</clus>
<clus scale="   95.714">  5  6 -1 -1</clus>
<clus scale="  102.658">  1  7  2 -1</clus>
<clus scale="   74.208">  1  5  2 -1</clus>
</clustering>
</event>
<event>
 9    1  0.1445593E-005  0.1607397E+03  0.7546771E-02  0.1188019E+00
         21   -1    0    0  501  502  0.00000000000E+00  0.00000000000E+00  0.50920519611E+03  0.50920519611E+03  0.00000000000E+00 0. -1.
         -2   -1    0    0    0  501 -0.00000000000E+00 -0.00000000000E+00 -0.12564906616E+03  0.12564906616E+03  0.00000000000E+00 0.  1.
         23    2    1    2    0    0 -0.12810990433E+03 -0.94038739878E+02  0.59179230671E+02  0.19404389947E+03  0.94315541634E+02 0.  0.
         23    2    1    2    0    0 -0.10401872281E+02  0.12472931163E+03  0.18212646264E+03  0.23990588257E+03  0.93376570780E+02 0.  0.
        -11    1    4    4    0    0 -0.10310723951E+02  0.33950851978E+02 -0.10193988435E+01  0.35496627339E+02  0.00000000000E+00 0.  1.
         11    1    4    4    0    0 -0.91148330248E-01  0.90778459648E+02  0.18314586149E+03  0.20440925523E+03  0.00000000000E+00 0. -1.
        -13    1    3    3    0    0 -0.11457778187E+03 -0.56078017148E+02  0.78045738572E+02  0.14954581042E+03  0.00000000000E+00 0.  1.
         13    1    3    3    0    0 -0.13532122455E+02 -0.37960722730E+02 -0.18866507901E+02  0.44498089045E+02  0.00000000000E+00 0. -1.
         -2    1    1    2    0  502  0.13851177661E+03 -0.30690571748E+02  0.14225043664E+03  0.20090448023E+03  0.00000000000E+00 0.  1.
<scales pt_clust_5="13000.00000" pt_clust_6="13000.00000" pt_clust_7="13000.00000" pt_clust_8="13000.00000" pt_clust_9="141.87115"></scales>
<clustering>
<clus scale="   93.377">  5  6 -1 -1</clus>
<clus scale="   94.316">  7  8 -1 -1</clus>
<clus scale="  141.871">  1  9  2 -1</clus>
<clus scale="  160.191">  1  5  2 -1</clus>
<clus scale="  141.871">  1  5  2 -1</clus>
</clustering>
</event>
<event>
 9    1  0.1445593E-005  0.9450189E+02  0.7546771E-02  0.1294559E+00
         21   -1    0    0  501  502  0.00000000000E+00  0.00000000000E+00  0.94155941521E+02  0.94155941521E+02  0.00000000000E+00 0.  1.
          2   -1    0    0  502    0 -0.00000000000E+00 -0.00000000000E+00 -0.11955820462E+03  0.11955820462E+03  0.00000000000E+00 0. -1.
         23    2    1    2    0    0 -0.18700804144E+02  0.15229598486E+02 -0.17163405657E+02  0.93212177282E+02  0.88387028201E+02 0.  0.
         23    2    1    2    0    0  0.20452614764E+02  0.79492044701E+01 -0.15391599533E+02  0.96181453515E+02  0.92371377394E+02 0.  0.
        -11    1    4    4    0    0  0.43713870765E+02 -0.18789082479E+02  0.14582431823E+02  0.49765243249E+02  0.00000000000E+00 0. -1.
         11    1    4    4    0    0 -0.23261256001E+02  0.26738286949E+02 -0.29974031356E+02  0.46416210266E+02  0.00000000000E+00 0.  1.
        -13    1    3    3    0    0 -0.41021245991E+01 -0.30466158113E+02 -0.30620546575E+02  0.43389308464E+02  0.00000000000E+00 0. -1.
         13    1    3    3    0    0 -0.14598679545E+02  0.45695756599E+02  0.13457140919E+02  0.49822868819E+02  0.00000000000E+00 0.  1.
          2    1    1    2  501    0 -0.17518106203E+01 -0.23178802956E+02  0.71527420948E+01  0.24320515340E+02  0.00000000000E+00 0. -1.
<scales pt_clust_5="13000.00000" pt_clust_6="13000.00000" pt_clust_7="13000.00000" pt_clust_8="13000.00000" pt_clust_9="23.24491"></scales>
<clustering>
<clus scale="   23.245">  1  9  2 -1</clus>
<clus scale="   88.387">  7  8 -1 -1</clus>
<clus scale="   90.611">  2  7  1 -1</clus>
<clus scale="   92.371">  5  6 -1 -1</clus>
<clus scale="   23.245">  1  5  2 -1</clus>
</clustering>
</event>
<event>
 9    1  0.1445593E-005  0.9923380E+02  0.7546771E-02  0.1282686E+00
         21   -1    0    0  501  502  0.00000000000E+00  0.00000000000E+00  0.37064432712E+03  0.37064432712E+03  0.00000000000E+00 0.  1.
         -2   -1    0    0    0  501 -0.00000000000E+00 -0.00000000000E+00 -0.72429800435E+02  0.72429800435E+02  0.00000000000E+00 0.  1.
         23    2    1    2    0    0 -0.31137153180E+02  0.11696245241E+02 -0.14873837622E+02  0.10004046710E+03  0.93169413174E+02 0.  0.
         23    2    1    2    0    0  0.23221938220E+02 -0.44760977837E+02  0.25666787713E+03  0.27716106720E+03  0.91635443289E+02 0.  0.
        -11    1    3    3    0    0 -0.53596285992E+02  0.18729595505E+01  0.20150621886E+02  0.57289767079E+02  0.00000000000E+00 0.  1.
         11    1    3    3    0    0  0.22459132812E+02  0.98232856908E+01 -0.35024459508E+02  0.42750700021E+02  0.00000000000E+00 0. -1.
        -13    1    4    4    0    0  0.46534407704E+02 -0.88086208543E+01  0.20317792935E+03  0.20862481606E+03  0.00000000000E+00 0.  1.
         13    1    4    4    0    0 -0.23312469484E+02 -0.35952356982E+02  0.53489947783E+02  0.68536251137E+02  0.00000000000E+00 0. -1.
         -2    1    1    2    0  502  0.79152149599E+01  0.33064732595E+02  0.56420487171E+02  0.65872593255E+02  0.00000000000E+00 0.  1.
<scales pt_clust_5="13000.00000" pt_clust_6="13000.00000" pt_clust_7="13000.00000" pt_clust_8="13000.00000" pt_clust_9="33.99893"></scales>
<clustering>
<clus scale="   33.999">  1  9  2 -1</clus>
<clus scale="   91.635">  7  8 -1 -1</clus>
<clus scale="   93.169">  5  6 -1 -1</clus>
<clus scale="   97.795">  1  7  2 -1</clus>
<clus scale="   33.999">  1  5  2 -1</clus>
</clustering>
</event>
<event>
 9    1  0.1445593E-005  0.1007824E+03  0.7546771E-02  0.1279111E+00
         -1   -1    0    0    0  501 -0.00000000000E+00  0.00000000000E+00  0.20409025860E+03  0.20409025860E+03  0.00000000000E+00 0.  1.
         21   -1    0    0  501  502  0.00000000000E+00 -0.00000000000E+00 -0.81333812782E+02  0.81333812782E+02  0.00000000000E+00 0.  1.
         23    2    1    2    0    0 -0.32941577749E+02 -0.14661217440E+02  0.10090440857E+03  0.14068901442E+03  0.91167978304E+02 0.  0.
         23    2    1    2    0    0  0.44642739619E+02  0.34481653840E+02  0.41766103500E+02  0.11429927336E+03  0.90210630402E+02 0.  0.
        -13    1    3    3    0    0 -0.64126216258E+02 -0.21881760200E+01  0.71270475961E+02  0.95898073337E+02  0.00000000000E+00 0.  1.
         13    1    3    3    0    0  0.31184638510E+02 -0.12473041420E+02  0.29633932612E+02  0.44790941085E+02  0.00000000000E+00 0. -1.
        -13    1    4    4    0    0 -0.16611362880E+02  0.33191293756E+02 -0.46889406969E+01  0.37411034773E+02  0.00000000000E+00 0.  1.
         13    1    4    4    0    0  0.61254102499E+02  0.12903600842E+01  0.46455044197E+02  0.76888238590E+02  0.00000000000E+00 0. -1.
         -1    1    1    2    0  502 -0.11701161870E+02 -0.19820436400E+02 -0.19914066258E+02  0.30435783596E+02  0.00000000000E+00 0.  1.
<scales pt_clust_5="13000.00000" pt_clust_6="13000.00000" pt_clust_7="13000.00000" pt_clust_8="13000.00000" pt_clust_9="23.01667"></scales>
<clustering>
<clus scale="   23.017">  2  9  1 -1</clus>
<clus scale="   90.211">  7  8 -1 -1</clus>
<clus scale="   91.168">  5  6 -1 -1</clus>
<clus scale="   99.917">  2  7  1 -1</clus>
<clus scale="   23.017">  2  5  1 -1</clus>
</clustering>
</event>
<event>
 9    1  0.1445593E-005  0.9715954E+02  0.7546771E-02  0.1290209E+00
         21   -1    0    0  501  502  0.00000000000E+00  0.00000000000E+00  0.25714409310E+03  0.25714409310E+03  0.00000000000E+00 0.  1.
          1   -1    0    0  502    0 -0.00000000000E+00 -0.00000000000E+00 -0.92558908424E+02  0.92558908424E+02  0.00000000000E+00 0. -1.
         23    2    1    2    0    0 -0.10197901194E+02 -0.33371398376E+02 -0.32738119183E+02  0.97206079056E+02  0.84614360126E+02 0.  0.
         23    2    1    2    0    0 -0.17991446529E+02  0.27237411926E+02  0.65091122912E+02  0.11715433940E+03  0.91775357263E+02 0.  0.
        -13    1    3    3    0    0  0.18348531251E+02 -0.22255639567E+02  0.20773550873E+02  0.35546061772E+02  0.00000000000E+00 0.  1.
         13    1    3    3    0    0 -0.28546432445E+02 -0.11115758809E+02 -0.53511670056E+02  0.61660017284E+02  0.00000000000E+00 0. -1.
        -13    1    4    4    0    0 -0.79764107592E+01 -0.32171059465E+02  0.39852853234E+02  0.51834834876E+02  0.00000000000E+00 0. -1.
         13    1    4    4    0    0 -0.10015035770E+02  0.59408471391E+02  0.25238269678E+02  0.65319504521E+02  0.00000000000E+00 0.  1.
          1    1    1    2  501    0  0.28189347724E+02  0.61339864495E+01  0.13223218095E+03  0.13534258307E+03  0.00000000000E+00 0. -1.
<scales pt_clust_5="13000.00000" pt_clust_6="13000.00000" pt_clust_7="13000.00000" pt_clust_8="13000.00000" pt_clust_9="28.84901"></scales>
<clustering>
<clus scale="   28.849">  1  9  2 -1</clus>
<clus scale="   84.614">  5  6 -1 -1</clus>
<clus scale="   90.426">  2  5  1 -1</clus>
<clus scale="   91.775">  7  8 -1 -1</clus>
<clus scale="   28.849">  1  5  2 -1</clus>
</clustering>
</event>
<event>
 9    1  0.1445593E-005  0.1366379E+03  0.7546771E-02  0.1220337E+00
         21   -1    0    0  501  502  0.00000000000E+00  0.00000000000E+00  0.19356491857E+02  0.19356491857E+02  0.00000000000E+00 0.  1.
          1   -1    0    0  502    0 -0.00000000000E+00 -0.00000000000E+00 -0.12273650435E+04  0.12273650435E+04  0.00000000000E+00 0. -1.
         23    2    1    2    0    0  0.90454664784E+01 -0.99864181067E+02 -0.52384240702E+03  0.54027630831E+03  0.86214539428E+02 0.  0.
         23    2    1    2    0    0 -0.42139188108E+02  0.87244994402E+02 -0.47146825935E+03  0.49081863155E+03  0.96089589873E+02 0.  0.
        -11    1    3    3    0    0  0.41889343394E+02 -0.27692422873E+02 -0.15223062401E+03  0.16029894030E+03  0.00000000000E+00 0.  1.
         11    1    3    3    0    0 -0.32843876915E+02 -0.72171758194E+02 -0.37161178301E+03  0.37997736801E+03  0.00000000000E+00 0. -1.
        -13    1    4    4    0    0 -0.72093925594E+02  0.49510196293E+02 -0.32892471455E+03  0.34035314232E+03  0.00000000000E+00 0. -1.
         13    1    4    4    0    0  0.29954737486E+02  0.37734798109E+02 -0.14254354480E+03  0.15046548923E+03  0.00000000000E+00 0.  1.
          1    1    1    2  501    0  0.33093721629E+02  0.12619186665E+02 -0.21269788531E+03  0.21562659553E+03  0.00000000000E+00 0. -1.
<scales pt_clust_5="13000.00000" pt_clust_6="13000.00000" pt_clust_7="13000.00000" pt_clust_8="13000.00000" pt_clust_9="35.41807"></scales>
<clustering>
<clus scale="   35.418">  1  9  2 -1</clus>
<clus scale="   86.215">  5  6 -1 -1</clus>
<clus scale="   96.090">  7  8 -1 -1</clus>
<clus scale="  129.883">  2  5  1 -1</clus>
<clus scale="   35.418">  1  5  2 -1</clus>
</clustering>
</event>
<event>
 9    1  0.1445593E-005  0.1124828E+03  0.7546771E-02  0.1256134E+00
         21   -1    0    0  501  502  0.00000000000E+00  0.00000000000E+00  0.97702855060E+02  0.97702855060E+02  0.00000000000E+00 0. -1.
          3   -1    0    0  502    0 -0.00000000000E+00 -0.00000000000E+00 -0.48769409550E+03  0.48769409550E+03  0.00000000000E+00 0. -1.
         23    2    1    2    0    0  0.30214239509E+02  0.54682192085E+02 -0.29677383862E+03  0.31644247578E+03  0.90322127920E+02 0.  0.
         23    2    1    2    0    0 -0.18838034134E+02 -0.75541407312E+02 -0.15922028212E+03  0.19880531144E+03  0.90061522680E+02 0.  0.
        -11    1    4    4    0    0  0.22481871775E+02  0.87292212003E+01 -0.22591625763E+02  0.33045656536E+02  0.00000000000E+00 0. -1.
         11    1    4    4    0    0 -0.41319905909E+02 -0.84270628512E+02 -0.13662865636E+03  0.16575965490E+03  0.00000000000E+00 0.  1.
        -13    1    3    3    0    0  0.28279884681E+02 -0.27562177381E+01 -0.22588129123E+02  0.36298377251E+02  0.00000000000E+00 0.  1.
         13    1    3    3    0    0  0.19343548280E+01  0.57438409823E+02 -0.27418570949E+03  0.28014409853E+03  0.00000000000E+00 0. -1.
          3    1    1    2  501    0 -0.11376205375E+02  0.20859215227E+02  0.66002880302E+02  0.70149163337E+02  0.00000000000E+00 0. -1.
<scales pt_clust_5="13000.00000" pt_clust_6="13000.00000" pt_clust_7="13000.00000" pt_clust_8="13000.00000" pt_clust_9="23.75973"></scales>
<clustering>
<clus scale="   23.760">  1  9  2 -1</clus>
<clus scale="   90.062">  5  6 -1 -1</clus>
<clus scale="   90.322">  7  8 -1 -1</clus>
<clus scale="  112.274">  1  5  2 -1</clus>
<clus scale="   23.760">  1  5  2 -1</clus>
</clustering>
</event>
<event>
 9    1  0.1445593E-005  0.1002601E+03  0.7546771E-02  0.1280324E+00
         -2   -1    0    0    0  501 -0.00000000000E+00  0.00000000000E+00  0.28821711357E+03  0.28821711357E+03  0.00000000000E+00 0.  1.
         21   -1    0    0  501  502  0.00000000000E+00 -0.00000000000E+00 -0.10760892135E+03  0.10760892135E+03  0.00000000000E+00 0.  1.
         23    2    1    2    0    0  0.35434099447E+02 -0.81616104575E+01  0.17209603371E+03  0.19822271997E+03  0.91394828107E+02 0.  0.
         23    2    1    2    0    0 -0.44927445562E+02 -0.20941184275E+02  0.71861693719E+02  0.12724523161E+03  0.92575576579E+02 0.  0.
        -11    1    4    4    0    0 -0.71961276022E+02 -0.27135970755E+02  0.47991460482E+02  0.90653000141E+02  0.00000000000E+00 0.  1.
         11    1    4    4    0    0  0.27033830459E+02  0.61947864799E+01  0.23870233237E+02  0.36592231465E+02  0.00000000000E+00 0. -1.
        -13    1    3    3    0    0 -0.17179137398E+01 -0.37918407147E+02  0.12737507012E+03  0.13291036572E+03  0.00000000000E+00 0.  1.
         13    1    3    3    0    0  0.37152013187E+02  0.29756796690E+02  0.44720963589E+02  0.65312354248E+02  0.00000000000E+00 0. -1.
         -2    1    1    2    0  502  0.94933461156E+01  0.29102794732E+02 -0.63349535203E+02  0.70358083346E+02  0.00000000000E+00 0.  1.
<scales pt_clust_5="13000.00000" pt_clust_6="13000.00000" pt_clust_7="13000.00000" pt_clust_8="13000.00000" pt_clust_9="30.61203"></scales>
<clustering>
<clus scale="   30.612">  2  9  1 -1</clus>
<clus scale="   91.395">  7  8 -1 -1</clus>
<clus scale="   92.576">  5  6 -1 -1</clus>
<clus scale="   99.171">  1  7  2 -1</clus>
<clus scale="   30.612">  2  5  1 -1</clus>
</clustering>
</event>
<event>
 9    1  0.1445593E-005  0.1033118E+03  0.7546771E-02  0.1274171E+00
          2   -1    0    0  502    0 -0.00000000000E+00  0.00000000000E+00  0.26777511624E+03  0.26777511624E+03  0.00000000000E+00 0. -1.
         21   -1    0    0  501  502  0.00000000000E+00 -0.00000000000E+00 -0.10397722971E+03  0.10397722971E+03  0.00000000000E+00 0. -1.
         23    2    1    2    0    0  0.30715676659E+02  0.41505762314E+02  0.21519008589E+03  0.23893835081E+03  0.90103170441E+02 0.  0.
         23    2    1    2    0    0 -0.12463037422E+02 -0.20666796452E+02 -0.40084201132E+02  0.10289256200E+03  0.91638923811E+02 0.  0.
        -11    1    3    3    0    0  0.25162326734E+02  0.26580832163E+00  0.62952479334E+01  0.25939226806E+02  0.00000000000E+00 0.  1.
         11    1    3    3    0    0  0.55533499252E+01  0.41239953992E+02  0.20889483796E+03  0.21299912400E+03  0.00000000000E+00 0. -1.
        -13    1    4    4    0    0 -0.30232827188E+02 -0.40501326318E+02 -0.53051933425E+02  0.73272702376E+02  0.00000000000E+00 0.  1.
         13    1    4    4    0    0  0.17769789765E+02  0.19834529866E+02  0.12967732294E+02  0.29619859624E+02  0.00000000000E+00 0. -1.
          2    1    1    2  501    0 -0.18252639237E+02 -0.20838965862E+02 -0.11307998233E+02  0.29921433143E+02  0.00000000000E+00 0. -1.
<scales pt_clust_5="13000.00000" pt_clust_6="13000.00000" pt_clust_7="13000.00000" pt_clust_8="13000.00000" pt_clust_9="27.70237"></scales>
<clustering>
<clus scale="   27.702">  2  9  1 -1</clus>
<clus scale="   90.103">  5  6 -1 -1</clus>
<clus scale="   91.639">  7  8 -1 -1</clus>
<clus scale="  101.952">  1  5  2 -1</clus>
<clus scale="   27.702">  2  5  1 -1</clus>
</clustering>
</event>
<event>
 9    1  0.1445593E-005  0.1062042E+03  0.7546771E-02  0.1269834E+00
         -2   -1    0    0    0  501 -0.00000000000E+00  0.00000000000E+00  0.13178762772E+03  0.13178762772E+03  0.00000000000E+00 0.  1.
         21   -1    0    0  501  502  0.00000000000E+00 -0.00000000000E+00 -0.16258649427E+03  0.16258649427E+03  0.00000000000E+00 0. -1.
         23    2    1    2    0    0  0.55663269719E+02 -0.11058293735E+01  0.75300831468E+02  0.12870676803E+03  0.88292663700E+02 0.  0.
         23    2    1    2    0    0 -0.34427744136E+02 -0.12475324754E+02 -0.71928509461E+02  0.12320483611E+03  0.93085003480E+02 0.  0.
        -13    1    4    4    0    0 -0.23611067417E+02 -0.52534746292E+02 -0.33393609818E+02  0.66577137587E+02  0.00000000000E+00 0.  1.
         13    1    4    4    0    0 -0.10816676719E+02  0.40059421538E+02 -0.38534899643E+02  0.56627698520E+02  0.00000000000E+00 0. -1.
        -13    1    3    3    0    0  0.35930489574E+02  0.18266063020E+02  0.89107087629E+02  0.97799397774E+02  0.00000000000E+00 0. -1.
         13    1    3    3    0    0  0.19732780145E+02 -0.19371892393E+02 -0.13806256161E+02  0.30907370259E+02  0.00000000000E+00 0.  1.
         -2    1    1    2    0  502 -0.21235525583E+02  0.13581154128E+02 -0.34171188555E+02  0.42462517842E+02  0.00000000000E+00 0.  1.
<scales pt_clust_5="13000.00000" pt_clust_6="13000.00000" pt_clust_7="13000.00000" pt_clust_8="13000.00000" pt_clust_9="25.20705"></scales>
<clustering>
<clus scale="   25.207">  2  9  1 -1</clus>
<clus scale="   88.293">  7  8 -1 -1</clus>
<clus scale="   93.085">  5  6 -1 -1</clus>
<clus scale="  102.030">  1  7  2 -1</clus>
<clus scale="   25.207">  2  5  1 -1</clus>
</clustering>
</event>
<event>
 9    1  0.1445593E-005  0.9490317E+02  0.7546771E-02  0.1292910E+00
         21   -1    0    0  501  502  0.00000000000E+00  0.00000000000E+00  0.11442584278E+03  0.11442584278E+03  0.00000000000E+00 0. -1.
          1   -1    0    0  502    0 -0.00000000000E+00 -0.00000000000E+00 -0.12144664380E+03  0.12144664380E+03  0.00000000000E+00 0. -1.
         23    2    1    2    0    0 -0.10999800477E+02  0.12289406409E+02 -0.49916625225E+02  0.10618690103E+03  0.92260302170E+02 0.  0.
         23    2    1    2    0    0  0.10290918339E+02 -0.35006481007E+02  0.22775953995E+02  0.99331390304E+02  0.89535603570E+02 0.  0.
        -11    1    4    4    0    0 -0.26570527575E+02 -0.30554793749E+02  0.41299437178E+02  0.57837979459E+02  0.00000000000E+00 0. -1.
         11    1    4    4    0    0  0.36861445914E+02 -0.44516872579E+01 -0.18523483184E+02  0.41493410845E+02  0.00000000000E+00 0.  1.
        -13    1    3    3    0    0 -0.51060753581E+02 -0.58647895959E+00 -0.33204072899E+02  0.60910220579E+02  0.00000000000E+00 0. -1.
         13    1    3    3    0    0  0.40060953104E+02  0.12875885369E+02 -0.16712552326E+02  0.45276680454E+02  0.00000000000E+00 0.  1.
          1    1    1    2  501    0  0.70888213793E+00  0.22717074598E+02  0.20119870211E+02  0.30354195253E+02  0.00000000000E+00 0. -1.
<scales pt_clust_5="13000.00000" pt_clust_6="13000.00000" pt_clust_7="13000.00000" pt_clust_8="13000.00000" pt_clust_9="22.72813"></scales>
<clustering>
<clus scale="   22.728">  1  9  2 -1</clus>
<clus scale="   89.536">  5  6 -1 -1</clus>
<clus scale="   92.257">  1  5  2 -1</clus>
<clus scale="   92.260">  7  8 -1 -1</clus>
<clus scale="   22.728">  1  5  2 -1</clus>
</clustering>
</event>
<event>
 9    1  0.1445593E-005  0.1309401E+03  0.7546771E-02  0.1227206E+00
         21   -1    0    0  501  502  0.00000000000E+00  0.00000000000E+00  0.42142719056E+03  0.42142719056E+03  0.00000000000E+00 0. -1.
         -1   -1    0    0    0  501 -0.00000000000E+00 -0.00000000000E+00 -0.13031849777E+03  0.13031849777E+03  0.00000000000E+00 0.  1.
         23    2    1    2    0    0 -0.20171217280E+02 -0.91537435504E+02 -0.67255323101E+02  0.14799064304E+03  0.92692889900E+02 0.  0.
         23    2    1    2    0    0 -0.25447176473E+02  0.88667978075E+02  0.31833243615E+03  0.34299486910E+03  0.88319710117E+02 0.  0.
        -11    1    4    4    0    0 -0.52801703546E+02  0.25772659843E+02  0.13397587294E+03  0.14629348729E+03  0.00000000000E+00 0. -1.
         11    1    4    4    0    0  0.27354527073E+02  0.62895318232E+02  0.18435656321E+03  0.19670138181E+03  0.00000000000E+00 0.  1.
        -13    1    3    3    0    0 -0.38044551398E+02 -0.10341111373E+03 -0.59091810697E+02  0.12503234951E+03  0.00000000000E+00 0.  1.
         13    1    3    3    0    0  0.17873334118E+02  0.11873678224E+02 -0.81635124035E+01  0.22958293530E+02  0.00000000000E+00 0. -1.
         -1    1    1    2    0  502  0.45618393753E+02  0.28694574290E+01  0.40031579742E+02  0.60760176195E+02  0.00000000000E+00 0.  1.
<scales pt_clust_5="13000.00000" pt_clust_6="13000.00000" pt_clust_7="13000.00000" pt_clust_8="13000.00000" pt_clust_9="45.70855"></scales>
<clustering>
<clus scale="   45.709">  1  9  2 -1</clus>
<clus scale="   88.320">  5  6 -1 -1</clus>
<clus scale="   92.693">  7  8 -1 -1</clus>
<clus scale="  127.882">  1  5  2 -1</clus>
<clus scale="   45.709">  1  5  2 -1</clus>
</clustering>
</event>
<event>
 9    1  0.1445593E-005  0.1641816E+03  0.7546771E-02  0.1185874E+00
         -1   -1    0    0    0  501 -0.00000000000E+00  0.00000000000E+00  0.67334942261E+02  0.67334942261E+02  0.00000000000E+00 0.  1.
         21   -1    0    0  501  502  0.00000000000E+00 -0.00000000000E+00 -0.59240732016E+03  0.59240732016E+03  0.00000000000E+00 0.  1.
         23    2    1    2    0    0  0.74357288186E+02  0.10191148846E+03 -0.11772326447E+03  0.19343037141E+03  0.87416152987E+02 0.  0.
         23    2    1    2    0    0 -0.11017088358E+03 -0.90993912694E+02 -0.24888071134E+03  0.30348056251E+03  0.98698164173E+02 0.  0.
        -11    1    4    4    0    0 -0.20619111098E+02 -0.80800324034E+02 -0.12577198804E+03  0.15090537791E+03  0.00000000000E+00 0. -1.
         11    1    4    4    0    0 -0.89551772487E+02 -0.10193588659E+02 -0.12310872329E+03  0.15257518460E+03  0.00000000000E+00 0.  1.
        -13    1    3    3    0    0  0.31299392961E+02 -0.95728050976E+01 -0.15728158604E+02  0.36313435121E+02  0.00000000000E+00 0. -1.
         13    1    3    3    0    0  0.43057895225E+02  0.11148429355E+03 -0.10199510586E+03  0.15711693629E+03  0.00000000000E+00 0.  1.
         -1    1    1    2    0  502  0.35813595398E+02 -0.10917575762E+02 -0.15846840210E+03  0.16283132850E+03  0.00000000000E+00 0.  1.
<scales pt_clust_5="13000.00000" pt_clust_6="13000.00000" pt_clust_7="13000.00000" pt_clust_8="13000.00000" pt_clust_9="37.44071"></scales>
<clustering>
<clus scale="   37.441">  2  9  1 -1</clus>
<clus scale="   87.416">  7  8 -1 -1</clus>
<clus scale="   98.698">  5  6 -1 -1</clus>
<clus scale="  157.657">  1  7  2 -1</clus>
<clus scale="   37.441">  2  5  1 -1</clus>
</clustering>
</event>
<event>
 9    1  0.1445593E-005  0.1072785E+03  0.7546771E-02  0.1265914E+00
         21   -1    0    0  501  502  0.00000000000E+00  0.00000000000E+00  0.18908788640E+03  0.18908788640E+03  0.00000000000E+00 0. -1.
          3   -1    0    0  502    0 -0.00000000000E+00 -0.00000000000E+00 -0.16477132487E+03  0.16477132487E+03  0.00000000000E+00 0. -1.
         23    2    1    2    0    0  0.65395345553E+02  0.54647139941E+01 -0.63203457696E+02  0.12861015379E+03  0.90771582969E+02 0.  0.
         23    2    1    2    0    0 -0.45536833692E+02  0.83588486881E+01 -0.28870794684E+02  0.10636982068E+03  0.91310143968E+02 0.  0.
        -11    1    3    3    0    0  0.51668776585E+02 -0.30540114850E+02 -0.66927431772E+02  0.89897954440E+02  0.00000000000E+00 0.  1.
         11    1    3    3    0    0  0.13726568967E+02  0.36004828845E+02  0.37239740761E+01  0.38712199352E+02  0.00000000000E+00 0. -1.
        -13    1    4    4    0    0 -0.34689714307E+02 -0.36093881719E+02  0.37097587629E+01  0.50198674149E+02  0.00000000000E+00 0.  1.
         13    1    4    4    0    0 -0.10847119385E+02  0.44452730407E+02 -0.32580553447E+02  0.56171146530E+02  0.00000000000E+00 0. -1.
          3    1    1    2  501    0 -0.19858511860E+02 -0.13823562682E+02  0.11639081391E+03  0.11887923680E+03  0.00000000000E+00 0. -1.
<scales pt_clust_5="13000.00000" pt_clust_6="13000.00000" pt_clust_7="13000.00000" pt_clust_8="13000.00000" pt_clust_9="24.19610"></scales>
<clustering>
<clus scale="   24.196">  1  9  2 -1</clus>
<clus scale="   90.772">  5  6 -1 -1</clus>
<clus scale="   91.310">  7  8 -1 -1</clus>
<clus scale="  106.821">  2  5  1 -1</clus>
<clus scale="   24.196">  1  5  2 -1</clus>
</clustering>
</event>
<event>
 9    1  0.1445593E-005  0.1352875E+03  0.7546771E-02  0.1219949E+00
         -1   -1    0    0    0  501 -0.00000000000E+00  0.00000000000E+00  0.63625321078E+03  0.63625321078E+03  0.00000000000E+00 0.  1.
         21   -1    0    0  501  502  0.00000000000E+00 -0.00000000000E+00 -0.56293446814E+02  0.56293446814E+02  0.00000000000E+00 0.  1.
         23    2    1    2    0    0  0.10821296247E+03 -0.66271217327E+01  0.33166794639E+03  0.36101411746E+03  0.92593749005E+02 0.  0.
         23    2    1    2    0    0 -0.88111313722E+02 -0.23192640982E+02  0.26262358592E+03  0.29281956925E+03  0.92036134496E+02 0.  0.
        -13    1    3    3    0    0  0.10465641541E+03 -0.37158888991E+02  0.27431605154E+03  0.29594432660E+03  0.00000000000E+00 0.  1.
         13    1    3    3    0    0  0.35565470516E+01  0.30531767258E+02  0.57351894856E+02  0.65069790859E+02  0.00000000000E+00 0. -1.
        -13    1    4    4    0    0 -0.89925596366E+02 -0.43305757397E+02  0.24953075636E+03  0.26875193000E+03  0.00000000000E+00 0. -1.
         13    1    4    4    0    0  0.18142826432E+01  0.20113116415E+02  0.13092829554E+02  0.24067639252E+02  0.00000000000E+00 0.  1.
         -1    1    1    2    0  502 -0.20101648743E+02  0.29819762714E+02 -0.14331768346E+02  0.38712970881E+02  0.00000000000E+00 0.  1.
<scales pt_clust_5="13000.00000" pt_clust_6="13000.00000" pt_clust_7="13000.00000" pt_clust_8="13000.00000" pt_clust_9="35.96240"></scales>
<clustering>
<clus scale="   35.962">  2  9  1 -1</clus>
<clus scale="   92.036">  7  8 -1 -1</clus>
<clus scale="   92.594">  5  6 -1 -1</clus>
<clus scale="  134.906">  2  7  1 -1</clus>
<clus scale="   35.962">  2  5  1 -1</clus>
</clustering>
</event>
<event>
 9    1  0.1445593E-005  0.9928071E+02  0.7546771E-02  0.1282060E+00
         -1   -1    0    0    0  501 -0.00000000000E+00  0.00000000000E+00  0.16976598855E+03  0.16976598855E+03  0.00000000000E+00 0.  1.
         21   -1    0    0  501  502  0.00000000000E+00 -0.00000000000E+00 -0.17344621233E+03  0.17344621233E+03  0.00000000000E+00 0.  1.
         23    2    1    2    0    0 -0.72312633053E+02 -0.19180598354E+02  0.64497014203E+02  0.13510893049E+03  0.92182134960E+02 0.  0.
         23    2    1    2    0    0 -0.12778083724E+02  0.94602240568E+01  0.81117850748E+01  0.93408323700E+02  0.91687178038E+02 0.  0.
        -13    1    3    3    0    0 -0.90624180513E+00  0.23549885485E+02  0.43202186688E+02  0.49212267934E+02  0.00000000000E+00 0. -1.
         13    1    3    3    0    0 -0.71406391248E+02 -0.42730483838E+02  0.21294827515E+02  0.85896662560E+02  0.00000000000E+00 0.  1.
        -13    1    4    4    0    0 -0.26618221629E+02 -0.24806776322E+02  0.32781178623E+02  0.48974601031E+02  0.00000000000E+00 0.  1.
         13    1    4    4    0    0  0.13840137905E+02  0.34267000379E+02 -0.24669393549E+02  0.44433722669E+02  0.00000000000E+00 0. -1.
         -1    1    1    2    0  502  0.85090716776E+02  0.97203742969E+01 -0.76289023055E+02  0.11469494669E+03  0.00000000000E+00 0.  1.
<scales pt_clust_5="13000.00000" pt_clust_6="13000.00000" pt_clust_7="13000.00000" pt_clust_8="13000.00000" pt_clust_9="85.64412"></scales>
<clustering>
<clus scale="   85.644">  2  9  1 -1</clus>
<clus scale="   91.687">  7  8 -1 -1</clus>
<clus scale="   92.182">  5  6 -1 -1</clus>
<clus scale="   98.821">  2  7  1 -1</clus>
<clus scale="   85.644">  2  5  1 -1</clus>
</clustering>
</event>
<event>
 9    1  0.1445593E-005  0.9246930E+02  0.7546771E-02  0.1298536E+00
          1   -1    0    0  502    0 -0.00000000000E+00  0.00000000000E+00  0.25305174523E+03  0.25305174523E+03  0.00000000000E+00 0. -1.
         21   -1    0    0  501  502  0.00000000000E+00 -0.00000000000E+00 -0.68993335718E+02  0.68993335718E+02  0.00000000000E+00 0. -1.
         23    2    1    2    0    0 -0.76731669085E+01 -0.21471023150E+01  0.15189990908E+03  0.17657533302E+03  0.89675962852E+02 0.  0.
         23    2    1    2    0    0 -0.18804083237E+02 -0.25466560013E+02  0.41576935578E+02  0.10607094029E+03  0.92305273832E+02 0.  0.
        -13    1    3    3    0    0 -0.45379573935E+02 -0.17543698855E+02  0.72055472227E+02  0.86942959335E+02  0.00000000000E+00 0.  1.
         13    1    3    3    0    0  0.37706407027E+02  0.15396596540E+02  0.79844436851E+02  0.89632373682E+02  0.00000000000E+00 0. -1.
        -13    1    4    4    0    0  0.14296434587E+02 -0.49358368928E+02  0.40169379711E+02  0.65224348916E+02  0.00000000000E+00 0. -1.
         13    1    4    4    0    0 -0.33100517825E+02  0.23891808916E+02  0.14075558669E+01  0.40846591376E+02  0.00000000000E+00 0.  1.
          1    1    1    2  501    0  0.26477250146E+02  0.27613662328E+02 -0.94184351479E+01  0.39398807635E+02  0.00000000000E+00 0. -1.
<scales pt_clust_5="13000.00000" pt_clust_6="13000.00000" pt_clust_7="13000.00000" pt_clust_8="13000.00000" pt_clust_9="38.25649"></scales>
<clustering>
<clus scale="   38.256">  2  9  1 -1</clus>
<clus scale="   89.676">  5  6 -1 -1</clus>
<clus scale="   89.845">  1  5  2 -1</clus>
<clus scale="   92.305">  7  8 -1 -1</clus>
<clus scale="   38.256">  2  5  1 -1</clus>
</clustering>
</event>
<event>
 9    1  0.1445593E-005  0.1034912E+03  0.7546771E-02  0.1273987E+00
         21   -1    0    0  501  502  0.00000000000E+00  0.00000000000E+00  0.77176471454E+02  0.77176471454E+02  0.00000000000E+00 0. -1.
         -1   -1    0    0    0  501 -0.00000000000E+00 -0.00000000000E+00 -0.35700241308E+03  0.35700241308E+03  0.00000000000E+00 0.  1.
         23    2    1    2    0    0 -0.35706432708E+02  0.30226562377E+02 -0.26696254663E+03  0.28560977887E+03  0.90085237807E+02 0.  0.
         23    2    1    2    0    0  0.13669186157E+02 -0.59327254078E+02 -0.15085911866E+01  0.11034055531E+03  0.92011915380E+02 0.  0.
        -13    1    4    4    0    0  0.40327355881E+01  0.22220334521E+02 -0.15019059689E+02  0.27121548195E+02  0.00000000000E+00 0.  1.
         13    1    4    4    0    0  0.96364505691E+01 -0.81547588599E+02  0.13510468502E+02  0.83219007114E+02  0.00000000000E+00 0. -1.
        -13    1    3    3    0    0 -0.65838164684E+02  0.14455138526E+02 -0.18310716496E+03  0.19512008820E+03  0.00000000000E+00 0.  1.
         13    1    3    3    0    0  0.30131731975E+02  0.15771423851E+02 -0.83855381669E+02  0.90489690667E+02  0.00000000000E+00 0. -1.
         -1    1    1    2    0  502  0.22037246551E+02  0.29100691701E+02 -0.11354803810E+02  0.38228550359E+02  0.00000000000E+00 0.  1.
<scales pt_clust_5="13000.00000" pt_clust_6="13000.00000" pt_clust_7="13000.00000" pt_clust_8="13000.00000" pt_clust_9="36.50329"></scales>
<clustering>
<clus scale="   36.503">  1  9  2 -1</clus>
<clus scale="   90.085">  7  8 -1 -1</clus>
<clus scale="   92.012">  5  6 -1 -1</clus>
<clus scale="  101.782">  2  7  1 -1</clus>
<clus scale="   36.503">  1  5  2 -1</clus>
</clustering>
</event>
<event>
 9    1  0.1445593E-005  0.9967106E+02  0.7546771E-02  0.1281405E+00
          1   -1    0    0  502    0 -0.00000000000E+00  0.00000000000E+00  0.42254085030E+03  0.42254085030E+03  0.00000000000E+00 0. -1.
         21   -1    0    0  501  502  0.00000000000E+00 -0.00000000000E+00 -0.55146729033E+02  0.55146729033E+02  0.00000000000E+00 0. -1.
         23    2    1    2    0    0  0.22851975324E+02  0.38183509433E+02  0.29559838295E+03  0.31235601411E+03  0.90596260284E+02 0.  0.
         23    2    1    2    0    0 -0.41923050206E+02  0.57577963938E+01  0.44048189895E+02  0.10997390362E+03  0.91451200571E+02 0.  0.
        -13    1    4    4    0    0 -0.84107276489E+01 -0.37419108803E+02 -0.21438290029E+01  0.38412576664E+02  0.00000000000E+00 0.  1.
         13    1    4    4    0    0 -0.33512322557E+02  0.43176905196E+02  0.46192018898E+02  0.71561326954E+02  0.00000000000E+00 0. -1.
        -13    1    3    3    0    0  0.29185136538E+02 -0.21416073216E+02  0.68440840558E+02  0.77424602311E+02  0.00000000000E+00 0.  1.
         13    1    3    3    0    0 -0.63331612140E+01  0.59599582649E+02  0.22715754240E+03  0.23493141180E+03  0.00000000000E+00 0. -1.
          1    1    1    2  501    0  0.19071074882E+02 -0.43941305827E+02  0.27747548414E+02  0.55357661601E+02  0.00000000000E+00 0. -1.
<scales pt_clust_5="13000.00000" pt_clust_6="13000.00000" pt_clust_7="13000.00000" pt_clust_8="13000.00000" pt_clust_9="47.90140"></scales>
<clustering>
<clus scale="   47.901">  2  9  1 -1</clus>
<clus scale="   90.596">  7  8 -1 -1</clus>
<clus scale="   91.451">  5  6 -1 -1</clus>
<clus scale="   98.887">  1  7  2 -1</clus>
<clus scale="   47.901">  2  5  1 -1</clus>
</clustering>
</event>
<event>
 9    1  0.1445593E-005  0.1524042E+03  0.7546771E-02  0.1197698E+00
         21   -1    0    0  501  502  0.00000000000E+00  0.00000000000E+00  0.90134418283E+02  0.90134418283E+02  0.00000000000E+00 0. -1.
          3   -1    0    0  502    0 -0.00000000000E+00 -0.00000000000E+00 -0.42273765541E+03  0.42273765541E+03  0.00000000000E+00 0. -1.
         23    2    1    2    0    0  0.11470548125E+03 -0.15037188034E+01 -0.23171585246E+03  0.27421673824E+03  0.91339885331E+02 0.  0.
         23    2    1    2    0    0 -0.13664367805E+03  0.40671560323E+02 -0.93893312013E+02  0.19322053227E+03  0.90512703411E+02 0.  0.
        -11    1    3    3    0    0  0.96328022676E+02 -0.29764335938E+02 -0.11600325824E+03  0.15369372001E+03  0.00000000000E+00 0.  1.
         11    1    3    3    0    0  0.18377458573E+02  0.28260617134E+02 -0.11571259421E+03  0.12052301823E+03  0.00000000000E+00 0. -1.
        -11    1    4    4    0    0  0.26074143779E+01  0.24773844868E+02 -0.72093815212E+00  0.24921110552E+02  0.00000000000E+00 0. -1.
         11    1    4    4    0    0 -0.13925109243E+03  0.15897715455E+02 -0.93172373861E+02  0.16829942172E+03  0.00000000000E+00 0.  1.
          3    1    1    2  501    0  0.21938196803E+02 -0.39167841520E+02 -0.69940726588E+01  0.45434803187E+02  0.00000000000E+00 0. -1.
<scales pt_clust_5="13000.00000" pt_clust_6="13000.00000" pt_clust_7="13000.00000" pt_clust_8="13000.00000" pt_clust_9="44.89325"></scales>
<clustering>
<clus scale="   44.893">  1  9  2 -1</clus>
<clus scale="   90.513">  7  8 -1 -1</clus>
<clus scale="   91.340">  5  6 -1 -1</clus>
<clus scale="  151.910">  1  7  2 -1</clus>
<clus scale="   44.893">  1  5  2 -1</clus>
</clustering>
</event>
<event>
 9    1  0.1445593E-005  0.1306615E+03  0.7546771E-02  0.1237911E+00
         21   -1    0    0  501  502  0.00000000000E+00  0.00000000000E+00  0.53709215012E+02  0.53709215012E+02  0.00000000000E+00 0. -1.
          1   -1    0    0  502    0 -0.00000000000E+00 -0.00000000000E+00 -0.56198994931E+03  0.56198994931E+03  0.00000000000E+00 0. -1.
         23    2    1    2    0    0  0.83305100254E+02  0.19315721922E+01 -0.32834805073E+03  0.35995123661E+03  0.12169215101E+03 0.  0.
         23    2    1    2    0    0  0.38948976688E+01 -0.38648142561E+01 -0.70270673208E+02  0.11562892979E+03  0.91662287090E+02 0.  0.
        -11    1    4    4    0    0  0.37022175639E+01  0.40465445607E+02 -0.55737060398E+02  0.68976652607E+02  0.00000000000E+00 0.  1.
         11    1    4    4    0    0  0.19268010489E+00 -0.44330259863E+02 -0.14533612810E+02  0.46652277184E+02  0.00000000000E+00 0. -1.
        -13    1    3    3    0    0 -0.22913158136E+02 -0.28554304553E+02 -0.71104202900E+02  0.79976051380E+02  0.00000000000E+00 0.  1.
         13    1    3    3    0    0  0.10621825839E+03  0.30485876745E+02 -0.25724384783E+03  0.27997518523E+03  0.00000000000E+00 0. -1.
          1    1    1    2  501    0 -0.87199997923E+02  0.19332420639E+01 -0.10966201035E+03  0.14011899792E+03  0.00000000000E+00 0. -1.
<scales pt_clust_5="13000.00000" pt_clust_6="13000.00000" pt_clust_7="13000.00000" pt_clust_8="13000.00000" pt_clust_9="87.22143"></scales>
<clustering>
<clus scale="   87.221">  1  9  2 -1</clus>
<clus scale="   91.662">  5  6 -1 -1</clus>
<clus scale="  103.274">  1  5  2 -1</clus>
<clus scale="  121.692">  7  8 -1 -1</clus>
<clus scale="   87.221">  1  5  2 -1</clus>
</clustering>
</event>
<event>
 9    1  0.1445593E-005  0.9924149E+02  0.7546771E-02  0.1282384E+00
         21   -1    0    0  501  502  0.00000000000E+00  0.00000000000E+00  0.14522397239E+03  0.14522397239E+03  0.00000000000E+00 0. -1.
          2   -1    0    0  502    0 -0.00000000000E+00 -0.00000000000E+00 -0.18161682352E+03  0.18161682352E+03  0.00000000000E+00 0. -1.
         23    2    1    2    0    0 -0.37174578038E+02  0.12685991055E+02 -0.12607402178E+03  0.16066026316E+03  0.91510532567E+02 0.  0.
         23    2    1    2    0    0  0.40172400873E+02  0.16854394637E+02  0.39653979515E+02  0.10800544202E+03  0.90525383202E+02 0.  0.
        -11    1    3    3    0    0 -0.37236577636E+01 -0.35418873587E+02 -0.74616527187E+02  0.82680036059E+02  0.00000000000E+00 0.  1.
         11    1    3    3    0    0 -0.33450920274E+02  0.48104864643E+02 -0.51457494591E+02  0.77980227103E+02  0.00000000000E+00 0. -1.
        -13    1    4    4    0    0 -0.24482526681E+02  0.23274578994E+02  0.43459145137E+01  0.34058583544E+02  0.00000000000E+00 0.  1.
         13    1    4    4    0    0  0.64654927554E+02 -0.64201843568E+01  0.35308065001E+02  0.73946858475E+02  0.00000000000E+00 0. -1.
          2    1    1    2  501    0 -0.29978228354E+01 -0.29540385693E+02  0.50027191131E+02  0.58175090727E+02  0.00000000000E+00 0. -1.
<scales pt_clust_5="13000.00000" pt_clust_6="13000.00000" pt_clust_7="13000.00000" pt_clust_8="13000.00000" pt_clust_9="29.69211"></scales>
<clustering>
<clus scale="   29.692">  1  9  2 -1</clus>
<clus scale="   90.525">  7  8 -1 -1</clus>
<clus scale="   91.511">  5  6 -1 -1</clus>
<clus scale="   98.334">  1  7  2 -1</clus>
<clus scale="   29.692">  1  5  2 -1</clus>
</clustering>
</event>
<event>
 9    1  0.1445593E-005  0.9879862E+02  0.7546771E-02  0.1285515E+00
         21   -1    0    0  501  502  0.00000000000E+00  0.00000000000E+00  0.20050082877E+03  0.20050082877E+03  0.00000000000E+00 0. -1.
          1   -1    0    0  502    0 -0.00000000000E+00 -0.00000000000E+00 -0.20087111246E+03  0.20087111246E+03  0.00000000000E+00 0. -1.
         23    2    1    2    0    0 -0.18026162557E+02  0.10330739604E+02 -0.11359516638E+03  0.15061826255E+03  0.96697117184E+02 0.  0.
         23    2    1    2    0    0  0.20495436024E+02  0.70862562739E+02  0.82097779518E+01  0.11798838999E+03  0.91718558765E+02 0.  0.
        -11    1    3    3    0    0  0.19242535499E+02  0.20461177251E+02  0.25660803849E+01  0.28204959058E+02  0.00000000000E+00 0.  1.
         11    1    3    3    0    0 -0.37268698056E+02 -0.10130437647E+02 -0.11616124677E+03  0.12241330350E+03  0.00000000000E+00 0. -1.
        -13    1    4    4    0    0  0.42528155889E+02  0.44389609282E+02 -0.28405564869E+02  0.67719698545E+02  0.00000000000E+00 0. -1.
         13    1    4    4    0    0 -0.22032719865E+02  0.26472953457E+02  0.36615342821E+02  0.50268691442E+02  0.00000000000E+00 0.  1.
          1    1    1    2  501    0 -0.24692734671E+01 -0.81193302343E+02  0.10501510474E+03  0.13276528869E+03  0.00000000000E+00 0. -1.
<scales pt_clust_5="13000.00000" pt_clust_6="13000.00000" pt_clust_7="13000.00000" pt_clust_8="13000.00000" pt_clust_9="81.23084"></scales>
<clustering>
<clus scale="   81.231">  1  9  2 -1</clus>
<clus scale="   91.719">  7  8 -1 -1</clus>
<clus scale="   93.932">  1  7  2 -1</clus>
<clus scale="   96.697">  5  6 -1 -1</clus>
<clus scale="   81.231">  1  5  2 -1</clus>
</clustering>
</event>
<event>
 9    1  0.1445593E-005  0.1679626E+03  0.7546771E-02  0.1190981E+00
          1   -1    0    0  502    0 -0.00000000000E+00  0.00000000000E+00  0.16369150038E+04  0.16369150038E+04  0.00000000000E+00 0. -1.
         21   -1    0    0  501  502  0.00000000000E+00 -0.00000000000E+00 -0.56546705208E+02  0.56546705208E+02  0.00000000000E+00 0. -1.
         23    2    1    2    0    0  0.65861323129E+02 -0.59268391563E+02  0.48831908167E+03  0.50571455340E+03  0.97165981060E+02 0.  0.
         23    2    1    2    0    0 -0.15323948786E+03  0.15794313225E+03  0.99770879112E+03  0.10256614867E+04  0.90168063954E+02 0.  0.
        -13    1    4    4    0    0 -0.14935579858E+03  0.10246994420E+03  0.80248431547E+03  0.82267145362E+03  0.00000000000E+00 0. -1.
         13    1    4    4    0    0 -0.38836892764E+01  0.55473188051E+02  0.19522447566E+03  0.20299003308E+03  0.00000000000E+00 0.  1.
        -13    1    3    3    0    0  0.71724423740E+01 -0.60871154054E+02  0.14516387827E+03  0.15757313502E+03  0.00000000000E+00 0.  1.
         13    1    3    3    0    0  0.58688880755E+02  0.16027624913E+01  0.34315520340E+03  0.34814141838E+03  0.00000000000E+00 0. -1.
          1    1    1    2  501    0  0.87378164727E+02 -0.98674740684E+02  0.94340425763E+02  0.16208566887E+03  0.00000000000E+00 0. -1.
<scales pt_clust_5="13000.00000" pt_clust_6="13000.00000" pt_clust_7="13000.00000" pt_clust_8="13000.00000" pt_clust_9="141.70798"></scales>
<clustering>
<clus scale="   90.168">  5  6 -1 -1</clus>
<clus scale="   97.166">  7  8 -1 -1</clus>
<clus scale="  131.498">  1  7  2 -1</clus>
<clus scale="  141.708">  2  9  1 -1</clus>
<clus scale="  141.708">  2  5  1 -1</clus>
</clustering>
</event>
<event>
 9    1  0.1445593E-005  0.1339485E+03  0.7546771E-02  0.1221927E+00
         -2   -1    0    0    0  501 -0.00000000000E+00  0.00000000000E+00  0.33614333089E+03  0.33614333089E+03  0.00000000000E+00 0.  1.
         21   -1    0    0  501  502  0.00000000000E+00 -0.00000000000E+00 -0.17539230269E+03  0.17539230269E+03  0.00000000000E+00 0.  1.
         23    2    1    2    0    0  0.53212226482E+02 -0.10121582523E+03  0.26814624186E+03  0.30512294691E+03  0.90118929098E+02 0.  0.
         23    2    1    2    0    0 -0.15935281094E+02  0.30495838744E+02 -0.49271113366E+02  0.10757292654E+03  0.89220863856E+02 0.  0.
        -11    1    4    4    0    0 -0.34836548115E+02 -0.20394756782E+02 -0.28650085760E+02  0.49501096986E+02  0.00000000000E+00 0.  1.
         11    1    4    4    0    0  0.18901267020E+02  0.50890595526E+02 -0.20621027606E+02  0.58071829552E+02  0.00000000000E+00 0. -1.
        -11    1    3    3    0    0  0.65811036725E+02 -0.42099509455E+02  0.10309684025E+03  0.12935385468E+03  0.00000000000E+00 0.  1.
         11    1    3    3    0    0 -0.12598810243E+02 -0.59116315774E+02  0.16504940162E+03  0.17576909223E+03  0.00000000000E+00 0. -1.
         -2    1    1    2    0  502 -0.37276945387E+02  0.70719986485E+02 -0.58124100303E+02  0.98839760127E+02  0.00000000000E+00 0.  1.
<scales pt_clust_5="13000.00000" pt_clust_6="13000.00000" pt_clust_7="13000.00000" pt_clust_8="13000.00000" pt_clust_9="79.94302"></scales>
<clustering>
<clus scale="   79.943">  2  9  1 -1</clus>
<clus scale="   89.221">  5  6 -1 -1</clus>
<clus scale="   90.119">  7  8 -1 -1</clus>
<clus scale="  133.346">  2  5  1 -1</clus>
<clus scale="   79.943">  2  5  1 -1</clus>
</clustering>
</event>
<event>
 9    1  0.1445593E-005  0.9934954E+02  0.7546771E-02  0.1285640E+00
         21   -1    0    0  501  502  0.00000000000E+00  0.00000000000E+00  0.89394120463E+02  0.89394120463E+02  0.00000000000E+00 0.  1.
          1   -1    0    0  502    0 -0.00000000000E+00 -0.00000000000E+00 -0.28760372415E+03  0.28760372415E+03  0.00000000000E+00 0. -1.
         23    2    1    2    0    0  0.24145581735E+01  0.27128239159E+02 -0.22376367861E+03  0.24489193132E+03  0.95708425498E+02 0.  0.
         23    2    1    2    0    0  0.18200193928E+02 -0.23284841402E+02  0.45138743603E+02  0.10341272668E+03  0.88222757648E+02 0.  0.
        -11    1    4    4    0    0 -0.24739459888E+02 -0.33461237800E+02  0.42074605101E+02  0.59177425638E+02  0.00000000000E+00 0. -1.
         11    1    4    4    0    0  0.42939653816E+02  0.10176396398E+02  0.30641385016E+01  0.44235301041E+02  0.00000000000E+00 0.  1.
        -13    1    3    3    0    0 -0.25406555405E+02 -0.25153470400E+02 -0.12219949366E+03  0.12732205772E+03  0.00000000000E+00 0.  1.
         13    1    3    3    0    0  0.27821113578E+02  0.52281709559E+02 -0.10156418495E+03  0.11756987360E+03  0.00000000000E+00 0. -1.
          1    1    1    2  501    0 -0.20614752101E+02 -0.38433977568E+01 -0.19584668675E+02  0.28693186606E+02  0.00000000000E+00 0. -1.
<scales pt_clust_5="13000.00000" pt_clust_6="13000.00000" pt_clust_7="13000.00000" pt_clust_8="13000.00000" pt_clust_9="20.96998"></scales>
<clustering>
<clus scale="   20.970">  1  9  2 -1</clus>
<clus scale="   88.223">  5  6 -1 -1</clus>
<clus scale="   92.160">  1  5  2 -1</clus>
<clus scale="   95.708">  7  8 -1 -1</clus>
<clus scale="   20.970">  1  5  2 -1</clus>
</clustering>
</event>
<event>
 9    1  0.1445593E-005  0.1437737E+03  0.7546771E-02  0.1221779E+00
          3   -1    0    0  502    0 -0.00000000000E+00  0.00000000000E+00  0.17245453668E+03  0.17245453668E+03  0.00000000000E+00 0. -1.
         21   -1    0    0  501  502  0.00000000000E+00 -0.00000000000E+00 -0.20733434314E+03  0.20733434314E+03  0.00000000000E+00 0.  1.
         23    2    1    2    0    0  0.41806666774E+02  0.44750675691E+02  0.73679186556E+02  0.15670094428E+03  0.12400057680E+03 0.  0.
         23    2    1    2    0    0 -0.10058770457E+03 -0.40523793382E+02 -0.63991628297E+02  0.14920067726E+03  0.80036550778E+02 0.  0.
        -11    1    4    4    0    0 -0.47869343836E+02 -0.59037767254E+02 -0.51891354754E+02  0.92030672821E+02  0.00000000000E+00 0.  1.
         11    1    4    4    0    0 -0.52718360739E+02  0.18513973872E+02 -0.12100273543E+02  0.57170004437E+02  0.00000000000E+00 0. -1.
        -13    1    3    3    0    0 -0.34611888633E+02 -0.15042040768E+02  0.37336972568E+02  0.53087619515E+02  0.00000000000E+00 0.  1.
         13    1    3    3    0    0  0.76418555406E+02  0.59792716458E+02  0.36342213987E+02  0.10361332477E+03  0.00000000000E+00 0. -1.
          3    1    1    2  501    0  0.58781037801E+02 -0.42268823088E+01 -0.44567364721E+02  0.73887258287E+02  0.00000000000E+00 0. -1.
<scales pt_clust_5="13000.00000" pt_clust_6="13000.00000" pt_clust_7="13000.00000" pt_clust_8="13000.00000" pt_clust_9="58.93282"></scales>
<clustering>
<clus scale="   58.933">  2  9  1 -1</clus>
<clus scale="   80.037">  5  6 -1 -1</clus>
<clus scale="  108.169">  2  5  1 -1</clus>
<clus scale="  124.001">  7  8 -1 -1</clus>
<clus scale="   58.933">  2  5  1 -1</clus>
</clustering>
</event>
<event>
 9    1  0.1646528E-005  0.1605775E+03  0.7546771E-02  0.1188376E+00
         21   -1    0    0  501  502  0.00000000000E+00  0.00000000000E+00  0.30415150854E+03  0.30415150854E+03  0.00000000000E+00 0. -1.
          2   -1    0    0  502    0 -0.00000000000E+00 -0.00000000000E+00 -0.56033160519E+03  0.56033160519E+03  0.00000000000E+00 0. -1.
         23    2    1    2    0    0  0.24636900227E+02 -0.13353616788E+03 -0.49608929432E+03  0.52249646221E+03  0.91973257546E+02 0.  0.
         23    2    1    2    0    0 -0.82406883877E+02  0.39420378068E+02  0.15296701941E+03  0.20143738876E+03  0.93985381023E+02 0.  0.
        -11    1    4    4    0    0 -0.32384715902E+01  0.31796094032E+02  0.35324558292E+01  0.32155210124E+02  0.00000000000E+00 0.  1.
         11    1    4    4    0    0 -0.79168412287E+02  0.76242840358E+01  0.14943456358E+03  0.16928217864E+03  0.00000000000E+00 0. -1.
        -13    1    3    3    0    0 -0.17993934723E+02 -0.41198312499E+02 -0.61586201758E+02  0.76249215646E+02  0.00000000000E+00 0.  1.
         13    1    3    3    0    0  0.42630834950E+02 -0.92337855376E+02 -0.43450309256E+03  0.44624724657E+03  0.00000000000E+00 0. -1.
          2    1    1    2  501    0  0.57769983650E+02  0.94115789807E+02  0.86942178254E+02  0.14054926276E+03  0.00000000000E+00 0. -1.
<scales pt_clust_5="13000.00000" pt_clust_6="13000.00000" pt_clust_7="13000.00000" pt_clust_8="13000.00000" pt_clust_9="110.43167"></scales>
<clustering>
<clus scale="   91.973">  7  8 -1 -1</clus>
<clus scale="   93.985">  5  6 -1 -1</clus>
<clus scale="  110.432">  1  9  2 -1</clus>
<clus scale="  159.408">  2  7  1 -1</clus>
<clus scale="  110.432">  1  5  2 -1</clus>
</clustering>
</event>
<event>
 9    1  0.1445593E-005  0.1291568E+03  0.7546771E-02  0.1230069E+00
         -1   -1    0    0    0  501 -0.00000000000E+00  0.00000000000E+00  0.18184072102E+03  0.18184072102E+03  0.00000000000E+00 0.  1.
         21   -1    0    0  501  502  0.00000000000E+00 -0.00000000000E+00 -0.14404794673E+03  0.14404794673E+03  0.00000000000E+00 0.  1.
         23    2    1    2    0    0  0.45452211359E+02 -0.60761559178E+02  0.71634537522E+02  0.13945253221E+03  0.92507465552E+02 0.  0.
         23    2    1    2    0    0 -0.49450196193E+02  0.97512304116E+02 -0.26210291340E+02  0.14868907606E+03  0.97301030871E+02 0.  0.
        -11    1    4    4    0    0 -0.49985791221E+02  0.13735015820E+01 -0.12809952079E+02  0.51619383015E+02  0.00000000000E+00 0. -1.
         11    1    4    4    0    0  0.53559502751E+00  0.96138802534E+02 -0.13400339261E+02  0.97069693041E+02  0.00000000000E+00 0.  1.
        -11    1    3    3    0    0  0.55989422238E+02 -0.18988573215E+01  0.52208915925E+02  0.76578012274E+02  0.00000000000E+00 0.  1.
         11    1    3    3    0    0 -0.10537210879E+02 -0.58862701856E+02  0.19425621597E+02  0.62874519937E+02  0.00000000000E+00 0. -1.
         -1    1    1    2    0  502  0.39979848340E+01 -0.36750744938E+02 -0.76314718914E+01  0.37747059481E+02  0.00000000000E+00 0.  1.
<scales pt_clust_5="13000.00000" pt_clust_6="13000.00000" pt_clust_7="13000.00000" pt_clust_8="13000.00000" pt_clust_9="36.96757"></scales>
<clustering>
<clus scale="   36.968">  2  9  1 -1</clus>
<clus scale="   92.507">  7  8 -1 -1</clus>
<clus scale="   97.301">  5  6 -1 -1</clus>
<clus scale="  125.585">  1  7  2 -1</clus>
<clus scale="   36.968">  2  5  1 -1</clus>
</clustering>
</event>
<event>
 9    1  0.1445593E-005  0.1006157E+03  0.7546771E-02  0.1284337E+00
         21   -1    0    0  501  502  0.00000000000E+00  0.00000000000E+00  0.34638987540E+02  0.34638987540E+02  0.00000000000E+00 0.  1.
          3   -1    0    0  502    0 -0.00000000000E+00 -0.00000000000E+00 -0.37572741959E+03  0.37572741959E+03  0.00000000000E+00 0. -1.
         23    2    1    2    0    0 -0.14855393855E+01  0.10089520280E+02 -0.18071180501E+03  0.20255073786E+03  0.90917763328E+02 0.  0.
         23    2    1    2    0    0  0.22154663127E+01  0.18143094153E+02 -0.11087170227E+03  0.15082136353E+03  0.10060054262E+03 0.  0.
        -13    1    4    4    0    0 -0.35799408886E+02  0.32043172094E+02 -0.21352336063E+02  0.52576466312E+02  0.00000000000E+00 0.  1.
         13    1    4    4    0    0  0.38014875199E+02 -0.13900077941E+02 -0.89519366210E+02  0.98244897220E+02  0.00000000000E+00 0. -1.
        -13    1    3    3    0    0  0.20739179301E+02  0.27001595485E+02 -0.16878192488E+03  0.17218170020E+03  0.00000000000E+00 0. -1.
         13    1    3    3    0    0 -0.22224718686E+02 -0.16912075205E+02 -0.11929880135E+02  0.30369037661E+02  0.00000000000E+00 0.  1.
          3    1    1    2  501    0 -0.72992692716E+00 -0.28232614433E+02 -0.49504924762E+02  0.56994305740E+02  0.00000000000E+00 0. -1.
<scales pt_clust_5="13000.00000" pt_clust_6="13000.00000" pt_clust_7="13000.00000" pt_clust_8="13000.00000" pt_clust_9="28.24206"></scales>
<clustering>
<clus scale="   28.242">  1  9  2 -1</clus>
<clus scale="   90.918">  7  8 -1 -1</clus>
<clus scale="   90.935">  2  7  1 -1</clus>
<clus scale="  100.601">  5  6 -1 -1</clus>
<clus scale="   28.242">  1  5  2 -1</clus>
</clustering>
</event>
<event>
 9    1  0.1445593E-005  0.1244920E+03  0.7546771E-02  0.1237905E+00
         21   -1    0    0  501  502  0.00000000000E+00  0.00000000000E+00  0.71400165403E+02  0.71400165403E+02  0.00000000000E+00 0.  1.
          1   -1    0    0  502    0 -0.00000000000E+00 -0.00000000000E+00 -0.32498771774E+03  0.32498771774E+03  0.00000000000E+00 0. -1.
         23    2    1    2    0    0 -0.78899422850E+02 -0.17035342496E+02 -0.17682247364E+03  0.21305445670E+03  0.87239283084E+02 0.  0.
         23    2    1    2    0    0  0.74871289144E+02  0.40682851220E+02 -0.90319246858E+02  0.15578082213E+03  0.94070685495E+02 0.  0.
        -11    1    4    4    0    0  0.53308414969E+02  0.50517422494E+02 -0.10482631691E+03  0.12799356936E+03  0.00000000000E+00 0.  1.
         11    1    4    4    0    0  0.21562874175E+02 -0.98345712738E+01  0.14507070052E+02  0.27787252767E+02  0.00000000000E+00 0. -1.
        -13    1    3    3    0    0 -0.45150942415E+02 -0.47648873947E+02 -0.13943498438E+03  0.15411404108E+03  0.00000000000E+00 0. -1.
         13    1    3    3    0    0 -0.33748480435E+02  0.30613531451E+02 -0.37387489265E+02  0.58940415617E+02  0.00000000000E+00 0.  1.
          1    1    1    2  501    0  0.40281337061E+01 -0.23647508724E+02  0.13554168163E+02  0.27552604316E+02  0.00000000000E+00 0. -1.
<scales pt_clust_5="13000.00000" pt_clust_6="13000.00000" pt_clust_7="13000.00000" pt_clust_8="13000.00000" pt_clust_9="23.98813"></scales>
<clustering>
<clus scale="   23.988">  1  9  2 -1</clus>
<clus scale="   87.239">  7  8 -1 -1</clus>
<clus scale="   94.071">  5  6 -1 -1</clus>
<clus scale="  119.414">  2  7  1 -1</clus>
<clus scale="   23.988">  1  5  2 -1</clus>
</clustering>
</event>
<event>
 9    1  0.1445593E-005  0.9686150E+02  0.7546771E-02  0.1287198E+00
          1   -1    0    0  502    0 -0.00000000000E+00  0.00000000000E+00  0.38019945863E+03  0.38019945863E+03  0.00000000000E+00 0. -1.
         21   -1    0    0  501  502  0.00000000000E+00 -0.00000000000E+00 -0.12617795519E+03  0.12617795519E+03  0.00000000000E+00 0. -1.
         23    2    1    2    0    0  0.23925522690E+02  0.25157766895E+01  0.27026661073E+03  0.28658841866E+03  0.92250317450E+02 0.  0.
         23    2    1    2    0    0 -0.35976096831E+02 -0.38991500741E+02  0.68474460995E+02  0.12676695458E+03  0.92555347184E+02 0.  0.
        -11    1    3    3    0    0 -0.29651587495E+02  0.19719981511E+02  0.14421960224E+03  0.14855096089E+03  0.00000000000E+00 0. -1.
         11    1    3    3    0    0  0.53577110185E+02 -0.17204204821E+02  0.12604700849E+03  0.13803745777E+03  0.00000000000E+00 0.  1.
        -11    1    4    4    0    0 -0.67384548274E+00  0.29429825778E+02  0.15106707716E+02  0.33087479974E+02  0.00000000000E+00 0.  1.
         11    1    4    4    0    0 -0.35302251348E+02 -0.68421326519E+02  0.53367753279E+02  0.93679474608E+02  0.00000000000E+00 0. -1.
          1    1    1    2  501    0  0.12050574141E+02  0.36475724051E+02 -0.84719568279E+02  0.93022040569E+02  0.00000000000E+00 0. -1.
<scales pt_clust_5="13000.00000" pt_clust_6="13000.00000" pt_clust_7="13000.00000" pt_clust_8="13000.00000" pt_clust_9="38.41477"></scales>
<clustering>
<clus scale="   38.415">  2  9  1 -1</clus>
<clus scale="   92.250">  5  6 -1 -1</clus>
<clus scale="   92.555">  7  8 -1 -1</clus>
<clus scale="   96.570">  1  5  2 -1</clus>
<clus scale="   38.415">  2  5  1 -1</clus>
</clustering>
</event>
<event>
 9    1  0.1445593E-005  0.1777206E+03  0.7546771E-02  0.1185101E+00
          1   -1    0    0  502    0 -0.00000000000E+00  0.00000000000E+00  0.17719820563E+04  0.17719820563E+04  0.00000000000E+00 0. -1.
         21   -1    0    0  501  502  0.00000000000E+00 -0.00000000000E+00 -0.30374448743E+02  0.30374448743E+02  0.00000000000E+00 0. -1.
         23    2    1    2    0    0  0.84007075869E+02 -0.31554423019E+02  0.50818552286E+03  0.52368384413E+03  0.89103156764E+02 0.  0.
         23    2    1    2    0    0 -0.99674155369E+02 -0.11656523408E+03  0.59537924492E+03  0.62347531996E+03  0.10355017277E+03 0.  0.
        -11    1    3    3    0    0  0.95135872608E+02 -0.48321639885E+01  0.42687042388E+03  0.43737002966E+03  0.00000000000E+00 0. -1.
         11    1    3    3    0    0 -0.11128796739E+02 -0.26722259031E+02  0.81315098981E+02  0.86313814462E+02  0.00000000000E+00 0.  1.
        -13    1    4    4    0    0  0.52783990999E+01 -0.33137646996E+02  0.40334167597E+02  0.52467229975E+02  0.00000000000E+00 0.  1.
         13    1    4    4    0    0 -0.10495255447E+03 -0.83427587085E+02  0.55504507732E+03  0.57100808999E+03  0.00000000000E+00 0. -1.
          1    1    1    2  501    0  0.15667079500E+02  0.14811965710E+03  0.63804283979E+03  0.65519734097E+03  0.00000000000E+00 0. -1.
<scales pt_clust_5="13000.00000" pt_clust_6="13000.00000" pt_clust_7="13000.00000" pt_clust_8="13000.00000" pt_clust_9="144.43688"></scales>
<clustering>
<clus scale="   89.103">  5  6 -1 -1</clus>
<clus scale="  103.550">  7  8 -1 -1</clus>
<clus scale="  126.460">  1  5  2 -1</clus>
<clus scale="  144.437">  2  9  1 -1</clus>
<clus scale="  144.437">  2  5  1 -1</clus>
</clustering>
</event>
<event>
 9    1  0.1445593E-005  0.1815949E+03  0.7546771E-02  0.1166634E+00
         -4   -1    0    0    0  501 -0.00000000000E+00  0.00000000000E+00  0.42347114452E+03  0.42347114452E+03  0.00000000000E+00 0.  1.
         21   -1    0    0  501  502  0.00000000000E+00 -0.00000000000E+00 -0.18374740308E+03  0.18374740308E+03  0.00000000000E+00 0.  1.
         23    2    1    2    0    0 -0.13622031569E+03 -0.59461775534E+02  0.15595849739E+03  0.23260841476E+03  0.87703731687E+02 0.  0.
         23    2    1    2    0    0  0.99149644726E+02  0.18594495129E+03  0.26766064953E+02  0.23100952416E+03  0.90789873118E+02 0.  0.
        -11    1    4    4    0    0  0.56892807223E+02  0.17393491932E+03  0.78267414579E+01  0.18317042762E+03  0.00000000000E+00 0. -1.
         11    1    4    4    0    0  0.42256837504E+02  0.12010031974E+02  0.18939323495E+02  0.47839096546E+02  0.00000000000E+00 0.  1.
        -13    1    3    3    0    0 -0.12289746621E+03 -0.80557895992E+02  0.12558040112E+03  0.19329717782E+03  0.00000000000E+00 0.  1.
         13    1    3    3    0    0 -0.13322849479E+02  0.21096120457E+02  0.30378096275E+02  0.39311236941E+02  0.00000000000E+00 0. -1.
         -4    1    1    2    0  502  0.37070670963E+02 -0.12648317576E+03  0.56999179095E+02  0.14360060868E+03  0.00000000000E+00 0.  1.
<scales pt_clust_5="13000.00000" pt_clust_6="13000.00000" pt_clust_7="13000.00000" pt_clust_8="13000.00000" pt_clust_9="131.80382"></scales>
<clustering>
<clus scale="   87.704">  7  8 -1 -1</clus>
<clus scale="   90.790">  5  6 -1 -1</clus>
<clus scale="  131.804">  2  9  1 -1</clus>
<clus scale="  180.072">  1  7  2 -1</clus>
<clus scale="  131.804">  2  5  1 -1</clus>
</clustering>
</event>
<event>
 9    1  0.1445593E-005  0.1141516E+03  0.7546771E-02  0.1254297E+00
         -1   -1    0    0    0  501 -0.00000000000E+00  0.00000000000E+00  0.67123119084E+03  0.67123119084E+03  0.00000000000E+00 0.  1.
         21   -1    0    0  501  502  0.00000000000E+00 -0.00000000000E+00 -0.50993449253E+02  0.50993449253E+02  0.00000000000E+00 0. -1.
         23    2    1    2    0    0 -0.99247564551E+01 -0.69057723154E+02  0.53920053762E+03  0.55145258672E+03  0.92169765705E+02 0.  0.
         23    2    1    2    0    0 -0.16368905171E+02  0.33547636686E+02  0.73033868085E+02  0.12586797485E+03  0.95474688908E+02 0.  0.
        -11    1    4    4    0    0  0.33609470847E+02 -0.67178362666E+01  0.43053750278E+02  0.55030457637E+02  0.00000000000E+00 0.  1.
         11    1    4    4    0    0 -0.49978376017E+02  0.40265472953E+02  0.29980117807E+02  0.70837517215E+02  0.00000000000E+00 0. -1.
        -13    1    3    3    0    0 -0.28447346156E+02  0.12844705542E+02  0.12625854813E+03  0.13005944387E+03  0.00000000000E+00 0. -1.
         13    1    3    3    0    0  0.18522589700E+02 -0.81902428696E+02  0.41294198950E+03  0.42139314285E+03  0.00000000000E+00 0.  1.
         -1    1    1    2    0  502  0.26293661626E+02  0.35510086468E+02  0.80033358781E+01  0.44904078521E+02  0.00000000000E+00 0.  1.
<scales pt_clust_5="13000.00000" pt_clust_6="13000.00000" pt_clust_7="13000.00000" pt_clust_8="13000.00000" pt_clust_9="44.18510"></scales>
<clustering>
<clus scale="   44.185">  2  9  1 -1</clus>
<clus scale="   92.170">  7  8 -1 -1</clus>
<clus scale="   95.475">  5  6 -1 -1</clus>
<clus scale="  111.402">  1  7  2 -1</clus>
<clus scale="   44.185">  2  5  1 -1</clus>
</clustering>
</event>
<event>
 9    1  0.1445593E-005  0.1238685E+03  0.7546771E-02  0.1239269E+00
         21   -1    0    0  501  502  0.00000000000E+00  0.00000000000E+00  0.30856200741E+03  0.30856200741E+03  0.00000000000E+00 0.  1.
          1   -1    0    0  502    0 -0.00000000000E+00 -0.00000000000E+00 -0.20397646884E+03  0.20397646884E+03  0.00000000000E+00 0. -1.
         23    2    1    2    0    0  0.52226006039E+02  0.23012731659E+02 -0.10514581330E+03  0.15670994118E+03  0.10121868447E+03 0.  0.
         23    2    1    2    0    0 -0.99734309849E+02 -0.89004104185E+02  0.40786302536E+02  0.16833365546E+03  0.93829813831E+02 0.  0.
        -11    1    3    3    0    0  0.77848330237E+02  0.90596814957E+01 -0.10005133231E+03  0.12709331000E+03  0.00000000000E+00 0. -1.
         11    1    3    3    0    0 -0.25622324198E+02  0.13953050163E+02 -0.50944809946E+01  0.29616631185E+02  0.00000000000E+00 0.  1.
        -13    1    4    4    0    0 -0.51887971456E+02 -0.44272589472E+02  0.68993949013E+02  0.97018497003E+02  0.00000000000E+00 0.  1.
         13    1    4    4    0    0 -0.47846338394E+02 -0.44731514713E+02 -0.28207646477E+02  0.71315158458E+02  0.00000000000E+00 0. -1.
          1    1    1    2  501    0  0.47508303810E+02  0.65991372526E+02  0.16894504934E+03  0.18749487960E+03  0.00000000000E+00 0. -1.
<scales pt_clust_5="13000.00000" pt_clust_6="13000.00000" pt_clust_7="13000.00000" pt_clust_8="13000.00000" pt_clust_9="81.31359"></scales>
<clustering>
<clus scale="   81.314">  1  9  2 -1</clus>
<clus scale="   93.830">  7  8 -1 -1</clus>
<clus scale="  101.219">  5  6 -1 -1</clus>
<clus scale="  117.908">  1  7  2 -1</clus>
<clus scale="   81.314">  1  5  2 -1</clus>
</clustering>
</event>
<event>
 9    1  0.1445593E-005  0.1156762E+03  0.7546771E-02  0.1250421E+00
          2   -1    0    0  502    0 -0.00000000000E+00  0.00000000000E+00  0.35083297168E+03  0.35083297168E+03  0.00000000000E+00 0. -1.
         21   -1    0    0  501  502  0.00000000000E+00 -0.00000000000E+00 -0.11537765698E+03  0.11537765698E+03  0.00000000000E+00 0. -1.
         23    2    1    2    0    0  0.87515670099E+01  0.43040162086E+02  0.12790365511E+03  0.16293946638E+03  0.90889379113E+02 0.  0.
         23    2    1    2    0    0 -0.21999450861E+02 -0.14171227874E+03  0.11232685475E+03  0.20359922281E+03  0.90933907028E+02 0.  0.
        -13    1    3    3    0    0 -0.11489532478E+02  0.60323471211E+02  0.45735488100E+02  0.76568044296E+02  0.00000000000E+00 0.  1.
         13    1    3    3    0    0  0.20241099488E+02 -0.17283309125E+02  0.82168167007E+02  0.86371422080E+02  0.00000000000E+00 0. -1.
        -13    1    4    4    0    0  0.71838683335E+01 -0.12980923443E+03  0.61563522318E+02  0.14384753244E+03  0.00000000000E+00 0.  1.
         13    1    4    4    0    0 -0.29183319194E+02 -0.11903044306E+02  0.50763332429E+02  0.59751690372E+02  0.00000000000E+00 0. -1.
          2    1    1    2  501    0  0.13247883851E+02  0.98672116650E+02 -0.47751951473E+01  0.99671939479E+02  0.00000000000E+00 0. -1.
<scales pt_clust_5="13000.00000" pt_clust_6="13000.00000" pt_clust_7="13000.00000" pt_clust_8="13000.00000" pt_clust_9="99.55749"></scales>
<clustering>
<clus scale="   90.889">  5  6 -1 -1</clus>
<clus scale="   90.934">  7  8 -1 -1</clus>
<clus scale="   99.557">  2  9  1 -1</clus>
<clus scale="  115.641">  1  5  2 -1</clus>
<clus scale="   99.557">  2  5  1 -1</clus>
</clustering>
</event>
<event>
 9    1  0.1445593E-005  0.2003287E+03  0.7546771E-02  0.1149742E+00
         21   -1    0    0  501  502  0.00000000000E+00  0.00000000000E+00  0.11395308091E+03  0.11395308091E+03  0.00000000000E+00 0.  1.
          4   -1    0    0  502    0 -0.00000000000E+00 -0.00000000000E+00 -0.92026747757E+03  0.92026747757E+03  0.00000000000E+00 0. -1.
         23    2    1    2    0    0 -0.17182865256E+03 -0.84453078838E+01 -0.73469560079E+03  0.76045831026E+03  0.94460609578E+02 0.  0.
         23    2    1    2    0    0  0.20777882580E+03  0.15002112795E+02 -0.58953915423E+02  0.23508659898E+03  0.91613541785E+02 0.  0.
        -11    1    3    3    0    0 -0.82612303070E+02  0.20886451215E+02 -0.50771570169E+03  0.51481673458E+03  0.00000000000E+00 0.  1.
         11    1    3    3    0    0 -0.89216349485E+02 -0.29331759099E+02 -0.22697989911E+03  0.24564157569E+03  0.00000000000E+00 0. -1.
        -11    1    4    4    0    0  0.82012183137E+02 -0.29286946169E+02 -0.52302325553E+02  0.10158374209E+03  0.00000000000E+00 0.  1.
         11    1    4    4    0    0  0.12576664267E+03  0.44289058963E+02 -0.66515898696E+01  0.13350285689E+03  0.00000000000E+00 0. -1.
          4    1    1    2  501    0 -0.35950173247E+02 -0.65568049107E+01 -0.12664880447E+02  0.38675649236E+02  0.00000000000E+00 0. -1.
<scales pt_clust_5="13000.00000" pt_clust_6="13000.00000" pt_clust_7="13000.00000" pt_clust_8="13000.00000" pt_clust_9="36.54322"></scales>
<clustering>
<clus scale="   36.543">  1  9  2 -1</clus>
<clus scale="   91.614">  7  8 -1 -1</clus>
<clus scale="   94.461">  5  6 -1 -1</clus>
<clus scale="  199.002">  1  7  2 -1</clus>
<clus scale="   36.543">  1  5  2 -1</clus>
</clustering>
</event>
<event>
 9    1  0.1445593E-005  0.1794426E+03  0.7546771E-02  0.1172294E+00
         21   -1    0    0  501  502  0.00000000000E+00  0.00000000000E+00  0.88516113521E+02  0.88516113521E+02  0.00000000000E+00 0. -1.
          1   -1    0    0  502    0 -0.00000000000E+00 -0.00000000000E+00 -0.41952786889E+03  0.41952786889E+03  0.00000000000E+00 0. -1.
         23    2    1    2    0    0  0.35127502189E+02  0.13974860156E+03 -0.20560390066E+03  0.27642587779E+03  0.11564899003E+03 0.  0.
         23    2    1    2    0    0 -0.15000874084E+02 -0.12711547347E+03 -0.69906478308E+02  0.17124360781E+03  0.89744569110E+02 0.  0.
        -11    1    3    3    0    0 -0.31591147613E+02  0.10341361944E+03 -0.13215215032E+03  0.17075294471E+03  0.00000000000E+00 0.  1.
         11    1    3    3    0    0  0.66718649802E+02  0.36334982124E+02 -0.73451750343E+02  0.10567293308E+03  0.00000000000E+00 0. -1.
        -13    1    4    4    0    0 -0.85655254095E+00 -0.93986096987E+02 -0.15804229621E+01  0.94003286356E+02  0.00000000000E+00 0. -1.
         13    1    4    4    0    0 -0.14144321543E+02 -0.33129376488E+02 -0.68326055346E+02  0.77240321449E+02  0.00000000000E+00 0.  1.
          1    1    1    2  501    0 -0.20126628105E+02 -0.12633128085E+02 -0.55501376401E+02  0.60374496822E+02  0.00000000000E+00 0. -1.
<scales pt_clust_5="13000.00000" pt_clust_6="13000.00000" pt_clust_7="13000.00000" pt_clust_8="13000.00000" pt_clust_9="23.76295"></scales>
<clustering>
<clus scale="   23.763">  1  9  2 -1</clus>
<clus scale="   89.745">  7  8 -1 -1</clus>
<clus scale="  115.649">  5  6 -1 -1</clus>
<clus scale="  163.948">  1  7  2 -1</clus>
<clus scale="   23.763">  1  5  2 -1</clus>
</clustering>
</event>
<event>
 9    1  0.1445593E-005  0.3049370E+03  0.7546771E-02  0.1106044E+00
         -1   -1    0    0    0  501 -0.00000000000E+00  0.00000000000E+00  0.23525836710E+03  0.23525836710E+03  0.00000000000E+00 0.  1.
         21   -1    0    0  501  502  0.00000000000E+00 -0.00000000000E+00 -0.84918030007E+03  0.84918030007E+03  0.00000000000E+00 0.  1.
         23    2    1    2    0    0 -0.13788221355E+03 -0.15617320569E+02 -0.43801401646E+02  0.17145517444E+03  0.90680254421E+02 0.  0.
         23    2    1    2    0    0 -0.10108469303E+03 -0.17867916924E+03  0.32085618549E+02  0.23658970554E+03  0.11314080239E+03 0.  0.
        -11    1    4    4    0    0  0.25066998971E+02 -0.23630431222E+02  0.26932467229E+01  0.34554381705E+02  0.00000000000E+00 0. -1.
         11    1    4    4    0    0 -0.12615169200E+03 -0.15504873802E+03  0.29392371826E+02  0.20203532384E+03  0.00000000000E+00 0.  1.
        -13    1    3    3    0    0 -0.14457617653E+02  0.30265434044E+02 -0.14588365861E+02  0.36576490052E+02  0.00000000000E+00 0. -1.
         13    1    3    3    0    0 -0.12342459590E+03 -0.45882754613E+02 -0.29213035785E+02  0.13487868439E+03  0.00000000000E+00 0.  1.
         -1    1    1    2    0  502  0.23896690658E+03  0.19429648981E+03 -0.60220614988E+03  0.67639378719E+03  0.00000000000E+00 0.  1.
<scales pt_clust_5="13000.00000" pt_clust_6="13000.00000" pt_clust_7="13000.00000" pt_clust_8="13000.00000" pt_clust_9="283.17089"></scales>
<clustering>
<clus scale="   90.680">  7  8 -1 -1</clus>
<clus scale="  113.141">  5  6 -1 -1</clus>
<clus scale="  165.766">  1  7  2 -1</clus>
<clus scale="  283.171">  2  9  1 -1</clus>
<clus scale="  283.171">  2  5  1 -1</clus>
</clustering>
</event>
<event>
 9    1  0.1445593E-005  0.8980979E+02  0.7546771E-02  0.1303385E+00
          1   -1    0    0  502    0 -0.00000000000E+00  0.00000000000E+00  0.41200825030E+03  0.41200825030E+03  0.00000000000E+00 0. -1.
         21   -1    0    0  501  502  0.00000000000E+00 -0.00000000000E+00 -0.51576040358E+02  0.51576040358E+02  0.00000000000E+00 0. -1.
         23    2    1    2    0    0  0.53778162872E+01 -0.24679709769E+02  0.26323913503E+03  0.27908417151E+03  0.89191499546E+02 0.  0.
         23    2    1    2    0    0  0.37259294491E+01 -0.22301033725E+02  0.10093074468E+03  0.13649971685E+03  0.89072660360E+02 0.  0.
        -13    1    4    4    0    0 -0.21252960377E+02 -0.38455565599E+02  0.97008286664E+02  0.10649472537E+03  0.00000000000E+00 0. -1.
         13    1    4    4    0    0  0.24978889826E+02  0.16154531874E+02  0.39224580184E+01  0.30004991483E+02  0.00000000000E+00 0.  1.
        -13    1    3    3    0    0  0.11285988572E+02  0.19621965518E+02  0.15712755174E+02  0.27555140065E+02  0.00000000000E+00 0.  1.
         13    1    3    3    0    0 -0.59081722845E+01 -0.44301675286E+02  0.24752637986E+03  0.25152903145E+03  0.00000000000E+00 0. -1.
          1    1    1    2  501    0 -0.91037457363E+01  0.46980743493E+02 -0.37376697695E+01  0.48000402299E+02  0.00000000000E+00 0. -1.
<scales pt_clust_5="13000.00000" pt_clust_6="13000.00000" pt_clust_7="13000.00000" pt_clust_8="13000.00000" pt_clust_9="47.85466"></scales>
<clustering>
<clus scale="   47.855">  2  9  1 -1</clus>
<clus scale="   89.073">  5  6 -1 -1</clus>
<clus scale="   89.191">  7  8 -1 -1</clus>
<clus scale="   89.692">  2  5  1 -1</clus>
<clus scale="   47.855">  2  5  1 -1</clus>
</clustering>
</event>
<event>
 9    1  0.1445593E-005  0.9683145E+02  0.7546771E-02  0.1287127E+00
          3   -1    0    0  502    0 -0.00000000000E+00  0.00000000000E+00  0.24684537479E+03  0.24684537479E+03  0.00000000000E+00 0. -1.
         21   -1    0    0  501  502  0.00000000000E+00 -0.00000000000E+00 -0.59480899190E+02  0.59480899190E+02  0.00000000000E+00 0. -1.
         23    2    1    2    0    0 -0.10815065162E+01  0.23290273312E+02  0.10658177057E+03  0.14144113367E+03  0.90012854567E+02 0.  0.
         23    2    1    2    0    0  0.46750105065E+01 -0.53276600364E+02  0.84419822545E+02  0.13446603933E+03  0.89967535389E+02 0.  0.
        -11    1    3    3    0    0  0.28419329295E+02 -0.59718682546E+01  0.22355426845E+01  0.29125918682E+02  0.00000000000E+00 0. -1.
         11    1    3    3    0    0 -0.29500835811E+02  0.29262141566E+02  0.10434622789E+03  0.11231521499E+03  0.00000000000E+00 0.  1.
        -13    1    4    4    0    0  0.25073099754E+02  0.88062202550E+01 -0.13847439689E+01  0.26610662568E+02  0.00000000000E+00 0.  1.
         13    1    4    4    0    0 -0.20398089248E+02 -0.62082820619E+02  0.85804566514E+02  0.10785537676E+03  0.00000000000E+00 0. -1.
          3    1    1    2  501    0 -0.35935039903E+01  0.29986327052E+02 -0.36371175179E+01  0.30419100987E+02  0.00000000000E+00 0. -1.
<scales pt_clust_5="13000.00000" pt_clust_6="13000.00000" pt_clust_7="13000.00000" pt_clust_8="13000.00000" pt_clust_9="30.20088"></scales>
<clustering>
<clus scale="   30.201">  2  9  1 -1</clus>
<clus scale="   89.968">  7  8 -1 -1</clus>
<clus scale="   90.013">  5  6 -1 -1</clus>
<clus scale="   96.789">  2  7  1 -1</clus>
<clus scale="   30.201">  2  5  1 -1</clus>
</clustering>
</event>
<event>
 9    1  0.1445593E-005  0.1322946E+03  0.7546771E-02  0.1225349E+00
         21   -1    0    0  501  502  0.00000000000E+00  0.00000000000E+00  0.33228521236E+02  0.33228521236E+02  0.00000000000E+00 0.  1.
          1   -1    0    0  502    0 -0.00000000000E+00 -0.00000000000E+00 -0.62874450352E+03  0.62874450352E+03  0.00000000000E+00 0. -1.
         23    2    1    2    0    0 -0.84129756135E+02 -0.55180308610E+02 -0.37295317811E+03  0.39769090219E+03  0.94558438491E+02 0.  0.
         23    2    1    2    0    0  0.71230583805E+02  0.38135555199E+02 -0.18141888462E+03  0.21791689442E+03  0.89704205794E+02 0.  0.
        -11    1    3    3    0    0 -0.81826906486E+02 -0.76754645968E+02 -0.26830103765E+03  0.29081328220E+03  0.00000000000E+00 0.  1.
         11    1    3    3    0    0 -0.23028496494E+01  0.21574337358E+02 -0.10465214047E+03  0.10687761998E+03  0.00000000000E+00 0. -1.
        -13    1    4    4    0    0  0.44464923181E+02  0.67573684362E+02 -0.11866354207E+03  0.14361186730E+03  0.00000000000E+00 0. -1.
         13    1    4    4    0    0  0.26765660624E+02 -0.29438129162E+02 -0.62755342550E+02  0.74305027123E+02  0.00000000000E+00 0.  1.
          1    1    1    2  501    0  0.12899172330E+02  0.17044753410E+02 -0.41143919554E+02  0.46365228155E+02  0.00000000000E+00 0. -1.
<scales pt_clust_5="13000.00000" pt_clust_6="13000.00000" pt_clust_7="13000.00000" pt_clust_8="13000.00000" pt_clust_9="21.37551"></scales>
<clustering>
<clus scale="   21.376">  1  9  2 -1</clus>
<clus scale="   89.704">  7  8 -1 -1</clus>
<clus scale="   94.558">  5  6 -1 -1</clus>
<clus scale="  128.870">  1  7  2 -1</clus>
<clus scale="   21.376">  1  5  2 -1</clus>
</clustering>
</event>
<event>
 9    1  0.1790985E-005  0.9526977E+02  0.7546771E-02  0.1292454E+00
         -1   -1    0    0    0  501 -0.00000000000E+00  0.00000000000E+00  0.26043266469E+03  0.26043266469E+03  0.00000000000E+00 0.  1.
         21   -1    0    0  501  502  0.00000000000E+00 -0.00000000000E+00 -0.14646423153E+03  0.14646423153E+03  0.00000000000E+00 0. -1.
         23    2    1    2    0    0 -0.65722220203E+01  0.47593463144E+01  0.22190807137E+03  0.24142380220E+03  0.94743942550E+02 0.  0.
         23    2    1    2    0    0  0.29705537124E+02 -0.35418605992E+01 -0.63231202485E+02  0.11511957612E+03  0.91429580149E+02 0.  0.
        -11    1    3    3    0    0  0.30886354306E+02  0.28040032830E+02  0.56466670555E+02  0.70204666562E+02  0.00000000000E+00 0.  1.
         11    1    3    3    0    0 -0.37458576327E+02 -0.23280686516E+02  0.16544140082E+03  0.17121913564E+03  0.00000000000E+00 0. -1.
        -13    1    4    4    0    0 -0.28753269322E+02  0.63532463671E-02  0.24272909331E+00  0.28754294540E+02  0.00000000000E+00 0.  1.
         13    1    4    4    0    0  0.58458806446E+02 -0.35482138456E+01 -0.63473931578E+02  0.86365281581E+02  0.00000000000E+00 0. -1.
         -1    1    1    2    0  502 -0.23133315104E+02 -0.12174857152E+01 -0.44708435732E+02  0.50353517899E+02  0.00000000000E+00 0.  1.
<scales pt_clust_5="13000.00000" pt_clust_6="13000.00000" pt_clust_7="13000.00000" pt_clust_8="13000.00000" pt_clust_9="23.16533"></scales>
<clustering>
<clus scale="   23.165">  2  9  1 -1</clus>
<clus scale="   91.430">  7  8 -1 -1</clus>
<clus scale="   91.974">  2  7  1 -1</clus>
<clus scale="   94.744">  5  6 -1 -1</clus>
<clus scale="   23.165">  2  5  1 -1</clus>
</clustering>
</event>
<event>
 9    1  0.1445593E-005  0.1221095E+03  0.7546771E-02  0.1240155E+00
         21   -1    0    0  501  502  0.00000000000E+00  0.00000000000E+00  0.92754198453E+02  0.92754198453E+02  0.00000000000E+00 0. -1.
         -1   -1    0    0    0  501 -0.00000000000E+00 -0.00000000000E+00 -0.24178315254E+03  0.24178315254E+03  0.00000000000E+00 0.  1.
         23    2    1    2    0    0  0.42375639335E+01 -0.87154919527E+02 -0.14366350769E+03  0.19154379126E+03  0.91847066271E+02 0.  0.
         23    2    1    2    0    0 -0.19821360496E+02  0.65062767776E+02 -0.15679436734E+02  0.11405748742E+03  0.90206516497E+02 0.  0.
        -11    1    4    4    0    0 -0.28083654670E+02  0.90825151294E+00  0.25029093092E+02  0.37629404479E+02  0.00000000000E+00 0. -1.
         11    1    4    4    0    0  0.82622941740E+01  0.64154516263E+02 -0.40708529826E+02  0.76428082944E+02  0.00000000000E+00 0.  1.
        -11    1    3    3    0    0  0.18547791959E+02  0.10775476422E+02 -0.53581932281E+02  0.57716158444E+02  0.00000000000E+00 0.  1.
         11    1    3    3    0    0 -0.14310228025E+02 -0.97930395948E+02 -0.90081575409E+02  0.13382763282E+03  0.00000000000E+00 0. -1.
         -1    1    1    2    0  502  0.15583796563E+02  0.22092151751E+02  0.10313990334E+02  0.28936072313E+02  0.00000000000E+00 0.  1.
<scales pt_clust_5="13000.00000" pt_clust_6="13000.00000" pt_clust_7="13000.00000" pt_clust_8="13000.00000" pt_clust_9="27.03549"></scales>
<clustering>
<clus scale="   27.035">  1  9  2 -1</clus>
<clus scale="   90.207">  5  6 -1 -1</clus>
<clus scale="   91.847">  7  8 -1 -1</clus>
<clus scale="  120.880">  1  5  2 -1</clus>
<clus scale="   27.035">  1  5  2 -1</clus>
</clustering>
</event>
<event>
 9    1  0.1445593E-005  0.9508964E+02  0.7546771E-02  0.1293637E+00
         21   -1    0    0  501  502  0.00000000000E+00  0.00000000000E+00  0.41198446219E+03  0.41198446219E+03  0.00000000000E+00 0. -1.
         -2   -1    0    0    0  501 -0.00000000000E+00 -0.00000000000E+00 -0.43824895166E+02  0.43824895166E+02  0.00000000000E+00 0.  1.
         23    2    1    2    0    0 -0.10266771569E+02 -0.29531519777E+01  0.45084119893E+02  0.10535597426E+03  0.94621222469E+02 0.  0.
         23    2    1    2    0    0  0.30456073047E+01 -0.28225336564E+02  0.28755937817E+03  0.30264507298E+03  0.89987215089E+02 0.  0.
        -11    1    4    4    0    0  0.12259472312E+02  0.18018819563E+02  0.16036139251E+02  0.27057906088E+02  0.00000000000E+00 0.  1.
         11    1    4    4    0    0 -0.92138650072E+01 -0.46244156126E+02  0.27152323892E+03  0.27558716689E+03  0.00000000000E+00 0. -1.
        -11    1    3    3    0    0 -0.38396502707E+02  0.31995285741E+02  0.19056091077E+02  0.53489478750E+02  0.00000000000E+00 0. -1.
         11    1    3    3    0    0  0.28129731138E+02 -0.34948437719E+02  0.26028028815E+02  0.51866495514E+02  0.00000000000E+00 0.  1.
         -2    1    1    2    0  502  0.72211642646E+01  0.31178488542E+02  0.35516068966E+02  0.47808310113E+02  0.00000000000E+00 0.  1.
<scales pt_clust_5="13000.00000" pt_clust_6="13000.00000" pt_clust_7="13000.00000" pt_clust_8="13000.00000" pt_clust_9="32.00382"></scales>
<clustering>
<clus scale="   32.004">  1  9  2 -1</clus>
<clus scale="   89.987">  5  6 -1 -1</clus>
<clus scale="   90.480">  1  5  2 -1</clus>
<clus scale="   94.621">  7  8 -1 -1</clus>
<clus scale="   32.004">  1  5  2 -1</clus>
</clustering>
</event>
<event>
 9    1  0.1445593E-005  0.1527072E+03  0.7546771E-02  0.1197480E+00
          2   -1    0    0  502    0 -0.00000000000E+00  0.00000000000E+00  0.26265751498E+03  0.26265751498E+03  0.00000000000E+00 0. -1.
         21   -1    0    0  501  502  0.00000000000E+00 -0.00000000000E+00 -0.24659191459E+03  0.24659191459E+03  0.00000000000E+00 0. -1.
         23    2    1    2    0    0 -0.36245236147E+02 -0.12522366670E+03  0.17442126261E+03  0.23659958256E+03  0.92530545056E+02 0.  0.
         23    2    1    2    0    0  0.60874009844E+02  0.75663023527E+02 -0.38472403164E+02  0.14060883199E+03  0.94128527159E+02 0.  0.
        -11    1    3    3    0    0 -0.55961242450E+01 -0.74414098328E+02  0.29937011569E+02  0.80405219347E+02  0.00000000000E+00 0.  1.
         11    1    3    3    0    0 -0.30649111902E+02 -0.50809568376E+02  0.14448425104E+03  0.15619436321E+03  0.00000000000E+00 0. -1.
        -11    1    4    4    0    0  0.65719155898E+01  0.74484311545E+02 -0.42739717719E+02  0.86126570880E+02  0.00000000000E+00 0.  1.
         11    1    4    4    0    0  0.54302094254E+02  0.11787119814E+01  0.42673145545E+01  0.54482261112E+02  0.00000000000E+00 0. -1.
          2    1    1    2  501    0 -0.24628773697E+02  0.49560643177E+02 -0.11988325905E+03  0.13204101502E+03  0.00000000000E+00 0. -1.
<scales pt_clust_5="13000.00000" pt_clust_6="13000.00000" pt_clust_7="13000.00000" pt_clust_8="13000.00000" pt_clust_9="55.34288"></scales>
<clustering>
<clus scale="   55.343">  2  9  1 -1</clus>
<clus scale="   92.531">  5  6 -1 -1</clus>
<clus scale="   94.129">  7  8 -1 -1</clus>
<clus scale="  151.727">  1  5  2 -1</clus>
<clus scale="   55.343">  2  5  1 -1</clus>
</clustering>
</event>
<event>
 9    1  0.1445593E-005  0.1086248E+03  0.7546771E-02  0.1263714E+00
          2   -1    0    0  502    0 -0.00000000000E+00  0.00000000000E+00  0.21204230040E+03  0.21204230040E+03  0.00000000000E+00 0. -1.
         21   -1    0    0  501  502  0.00000000000E+00 -0.00000000000E+00 -0.14992037262E+03  0.14992037262E+03  0.00000000000E+00 0. -1.
         23    2    1    2    0    0 -0.49853346601E+02 -0.28847640695E+02  0.15463028002E+03  0.18783469795E+03  0.89743009274E+02 0.  0.
         23    2    1    2    0    0  0.67721301956E+02  0.14249160061E+02 -0.48281823373E+02  0.12424445755E+03  0.91193955188E+02 0.  0.
        -11    1    4    4    0    0 -0.23200654881E+01  0.30770907512E+02  0.91352832348E+01  0.32182057933E+02  0.00000000000E+00 0.  1.
         11    1    4    4    0    0  0.70041367444E+02 -0.16521747451E+02 -0.57417106608E+02  0.92062399619E+02  0.00000000000E+00 0. -1.
        -13    1    3    3    0    0 -0.42654587693E+02  0.48037503660E+01  0.17335164779E+02  0.46292524308E+02  0.00000000000E+00 0.  1.
         13    1    3    3    0    0 -0.71987589082E+01 -0.33651391061E+02  0.13729511524E+03  0.14154217364E+03  0.00000000000E+00 0. -1.
          2    1    1    2  501    0 -0.17867955354E+02  0.14598480634E+02 -0.44226528862E+02  0.49883517524E+02  0.00000000000E+00 0. -1.
<scales pt_clust_5="13000.00000" pt_clust_6="13000.00000" pt_clust_7="13000.00000" pt_clust_8="13000.00000" pt_clust_9="23.07335"></scales>
<clustering>
<clus scale="   23.073">  2  9  1 -1</clus>
<clus scale="   89.743">  7  8 -1 -1</clus>
<clus scale="   91.194">  5  6 -1 -1</clus>
<clus scale="  107.410">  1  7  2 -1</clus>
<clus scale="   23.073">  2  5  1 -1</clus>
</clustering>
</event>
<event>
 9    1  0.1445593E-005  0.3836133E+03  0.7546771E-02  0.1086170E+00
         21   -1    0    0  501  502  0.00000000000E+00  0.00000000000E+00  0.17198066762E+04  0.17198066762E+04  0.00000000000E+00 0.  1.
          1   -1    0    0  502    0 -0.00000000000E+00 -0.00000000000E+00 -0.14696113829E+03  0.14696113829E+03  0.00000000000E+00 0. -1.
         23    2    1    2    0    0  0.82743546195E+02 -0.65640625103E+02  0.29879223032E+02  0.14312640560E+03  0.91854308070E+02 0.  0.
         23    2    1    2    0    0 -0.32771190617E+03  0.28160766920E+03  0.91044597583E+03  0.10117894293E+04  0.90044442108E+02 0.  0.
        -13    1    3    3    0    0  0.54807456305E+02  0.12971878668E+02  0.16008084536E+02  0.58552418168E+02  0.00000000000E+00 0.  1.
         13    1    3    3    0    0  0.27936089890E+02 -0.78612503771E+02  0.13871138496E+02  0.84573987435E+02  0.00000000000E+00 0. -1.
        -13    1    4    4    0    0 -0.31184624739E+02  0.49410016827E+02  0.72629717753E+02  0.93214304073E+02  0.00000000000E+00 0. -1.
         13    1    4    4    0    0 -0.29652728143E+03  0.23219765238E+03  0.83781625808E+03  0.91857512524E+03  0.00000000000E+00 0.  1.
          1    1    1    2  501    0  0.24496835998E+03 -0.21596704410E+03  0.63252033905E+03  0.71185197959E+03  0.00000000000E+00 0. -1.
<scales pt_clust_5="13000.00000" pt_clust_6="13000.00000" pt_clust_7="13000.00000" pt_clust_8="13000.00000" pt_clust_9="372.89560"></scales>
<clustering>
<clus scale="   90.044">  7  8 -1 -1</clus>
<clus scale="   91.854">  5  6 -1 -1</clus>
<clus scale="  139.973">  2  5  1 -1</clus>
<clus scale="  372.896">  1  9  2 -1</clus>
<clus scale="  372.896">  1  5  2 -1</clus>
</clustering>
</event>
<event>
 9    1  0.1445593E-005  0.9563705E+02  0.7546771E-02  0.1290394E+00
          1   -1    0    0  502    0 -0.00000000000E+00  0.00000000000E+00  0.19120972912E+03  0.19120972912E+03  0.00000000000E+00 0. -1.
         21   -1    0    0  501  502  0.00000000000E+00 -0.00000000000E+00 -0.97735368058E+02  0.97735368058E+02  0.00000000000E+00 0.  1.
         23    2    1    2    0    0 -0.32695628134E+02  0.89439356793E+01  0.11524999678E+03  0.15143541588E+03  0.92201547382E+02 0.  0.
         23    2    1    2    0    0 -0.20520421421E+01 -0.18105055040E+02  0.46097459342E+01  0.92928126115E+02  0.91007598423E+02 0.  0.
        -11    1    3    3    0    0  0.15848963469E+02  0.38289019910E+02  0.45830075095E+02  0.61787008925E+02  0.00000000000E+00 0.  1.
         11    1    3    3    0    0 -0.48544591602E+02 -0.29345084231E+02  0.69419921682E+02  0.89648406950E+02  0.00000000000E+00 0. -1.
        -11    1    4    4    0    0 -0.23162380868E+02 -0.49256270489E+02  0.85273177799E+01  0.55094384637E+02  0.00000000000E+00 0. -1.
         11    1    4    4    0    0  0.21110338726E+02  0.31151215449E+02 -0.39175718456E+01  0.37833741478E+02  0.00000000000E+00 0.  1.
          1    1    1    2  501    0  0.34747670276E+02  0.91611193608E+01 -0.26385381654E+02  0.44581555184E+02  0.00000000000E+00 0. -1.
<scales pt_clust_5="13000.00000" pt_clust_6="13000.00000" pt_clust_7="13000.00000" pt_clust_8="13000.00000" pt_clust_9="35.93503"></scales>
<clustering>
<clus scale="   35.935">  2  9  1 -1</clus>
<clus scale="   91.008">  7  8 -1 -1</clus>
<clus scale="   92.202">  5  6 -1 -1</clus>
<clus scale="   94.487">  2  7  1 -1</clus>
<clus scale="   35.935">  2  5  1 -1</clus>
</clustering>
</event>
<event>
 9    1  0.1445593E-005  0.9596348E+02  0.7546771E-02  0.1289718E+00
         -3   -1    0    0    0  501 -0.00000000000E+00  0.00000000000E+00  0.73434583843E+02  0.73434583843E+02  0.00000000000E+00 0.  1.
         21   -1    0    0  501  502  0.00000000000E+00 -0.00000000000E+00 -0.40810939370E+03  0.40810939370E+03  0.00000000000E+00 0.  1.
         23    2    1    2    0    0  0.24811252926E+02  0.22874786482E+02 -0.26058718641E+02  0.99576446859E+02  0.89986431330E+02 0.  0.
         23    2    1    2    0    0  0.97231474137E+01 -0.34354748053E+02 -0.32226748232E+02  0.10319256186E+03  0.91298155585E+02 0.  0.
        -11    1    4    4    0    0 -0.40706292415E+02 -0.96919132951E+01 -0.15394709165E+02  0.44586236618E+02  0.00000000000E+00 0. -1.
         11    1    4    4    0    0  0.50429439829E+02 -0.24662834758E+02 -0.16832039066E+02  0.58606325246E+02  0.00000000000E+00 0.  1.
        -11    1    3    3    0    0  0.56331352412E+02  0.40036155139E+01 -0.37539554147E+01  0.56598077556E+02  0.00000000000E+00 0.  1.
         11    1    3    3    0    0 -0.31520099487E+02  0.18871170968E+02 -0.22304763227E+02  0.42978369303E+02  0.00000000000E+00 0. -1.
         -3    1    1    2    0  502 -0.34534400339E+02  0.11479961572E+02 -0.27638934298E+03  0.27877496881E+03  0.00000000000E+00 0.  1.
<scales pt_clust_5="13000.00000" pt_clust_6="13000.00000" pt_clust_7="13000.00000" pt_clust_8="13000.00000" pt_clust_9="36.39250"></scales>
<clustering>
<clus scale="   36.393">  2  9  1 -1</clus>
<clus scale="   89.986">  7  8 -1 -1</clus>
<clus scale="   91.298">  5  6 -1 -1</clus>
<clus scale="   94.716">  1  7  2 -1</clus>
<clus scale="   36.393">  2  5  1 -1</clus>
</clustering>
</event>
<event>
 9    1  0.1445593E-005  0.1522735E+03  0.7546771E-02  0.1201220E+00
         21   -1    0    0  501  502  0.00000000000E+00  0.00000000000E+00  0.26506339980E+03  0.26506339980E+03  0.00000000000E+00 0. -1.
          2   -1    0    0  502    0 -0.00000000000E+00 -0.00000000000E+00 -0.24923343736E+03  0.24923343736E+03  0.00000000000E+00 0. -1.
         23    2    1    2    0    0  0.10698995874E+03  0.42637631037E+02 -0.18801524072E+03  0.24472104774E+03  0.10617834814E+03 0.  0.
         23    2    1    2    0    0 -0.83688248837E+02 -0.88921216783E+01  0.10140721945E+03  0.15923418532E+03  0.89382933478E+02 0.  0.
        -13    1    3    3    0    0  0.63589921966E+02  0.22976129259E+02 -0.18501289001E+03  0.19698058321E+03  0.00000000000E+00 0.  1.
         13    1    3    3    0    0  0.43400036777E+02  0.19661501778E+02 -0.30023507145E+01  0.47740464537E+02  0.00000000000E+00 0. -1.
        -13    1    4    4    0    0 -0.14294298732E+02  0.36745613982E+02  0.37788957061E+02  0.54612932525E+02  0.00000000000E+00 0. -1.
         13    1    4    4    0    0 -0.69393950105E+02 -0.45637735661E+02  0.63618262385E+02  0.10462125279E+03  0.00000000000E+00 0.  1.
          2    1    1    2  501    0 -0.23301709906E+02 -0.33745509359E+02  0.10243798372E+03  0.11034160410E+03  0.00000000000E+00 0. -1.
<scales pt_clust_5="13000.00000" pt_clust_6="13000.00000" pt_clust_7="13000.00000" pt_clust_8="13000.00000" pt_clust_9="41.00889"></scales>
<clustering>
<clus scale="   41.009">  1  9  2 -1</clus>
<clus scale="   89.383">  7  8 -1 -1</clus>
<clus scale="  106.178">  5  6 -1 -1</clus>
<clus scale="  141.077">  1  7  2 -1</clus>
<clus scale="   41.009">  1  5  2 -1</clus>
</clustering>
</event>
<event>
 9    1  0.1445593E-005  0.1248497E+03  0.7546771E-02  0.1235430E+00
          1   -1    0    0  502    0 -0.00000000000E+00  0.00000000000E+00  0.64748510047E+03  0.64748510047E+03  0.00000000000E+00 0. -1.
         21   -1    0    0  501  502  0.00000000000E+00 -0.00000000000E+00 -0.35454105054E+02  0.35454105054E+02  0.00000000000E+00 0.  1.
         23    2    1    2    0    0  0.22259054841E+02  0.86133074349E+02  0.42496269330E+03  0.44375040164E+03  0.91688364801E+02 0.  0.
         23    2    1    2    0    0 -0.41316359594E+02 -0.65475974722E+02  0.13817533006E+03  0.18279359712E+03  0.91252027238E+02 0.  0.
        -13    1    4    4    0    0 -0.16659893256E+02 -0.46521696924E+02  0.93806643205E+01  0.50297288109E+02  0.00000000000E+00 0.  1.
         13    1    4    4    0    0 -0.24656466338E+02 -0.18954277799E+02  0.12879466574E+03  0.13249630901E+03  0.00000000000E+00 0. -1.
        -13    1    3    3    0    0 -0.35936121468E+02  0.36770338649E+02  0.17568952307E+03  0.18305810866E+03  0.00000000000E+00 0. -1.
         13    1    3    3    0    0  0.58195176309E+02  0.49362735700E+02  0.24927317024E+03  0.26069229298E+03  0.00000000000E+00 0.  1.
          1    1    1    2  501    0  0.19057304754E+02 -0.20657099626E+02  0.48892972061E+02  0.56395206768E+02  0.00000000000E+00 0. -1.
<scales pt_clust_5="13000.00000" pt_clust_6="13000.00000" pt_clust_7="13000.00000" pt_clust_8="13000.00000" pt_clust_9="28.10510"></scales>
<clustering>
<clus scale="   28.105">  2  9  1 -1</clus>
<clus scale="   91.252">  5  6 -1 -1</clus>
<clus scale="   91.688">  7  8 -1 -1</clus>
<clus scale="  124.530">  2  5  1 -1</clus>
<clus scale="   28.105">  2  5  1 -1</clus>
</clustering>
</event>
<event>
 9    1  0.1445593E-005  0.1269458E+03  0.7546771E-02  0.1233422E+00
         21   -1    0    0  501  502  0.00000000000E+00  0.00000000000E+00  0.21324263271E+03  0.21324263271E+03  0.00000000000E+00 0. -1.
          1   -1    0    0  502    0 -0.00000000000E+00 -0.00000000000E+00 -0.80325856156E+03  0.80325856156E+03  0.00000000000E+00 0. -1.
         23    2    1    2    0    0 -0.78952676227E+02 -0.24989203106E+02 -0.55141834955E+03  0.56574485647E+03  0.95640268945E+02 0.  0.
         23    2    1    2    0    0  0.72705691854E+02  0.48366884909E+02 -0.22761409452E+03  0.26019720303E+03  0.90933686047E+02 0.  0.
        -11    1    3    3    0    0 -0.89592008848E+02  0.78218957383E+01 -0.34856416294E+03  0.35997900743E+03  0.00000000000E+00 0. -1.
         11    1    3    3    0    0  0.10639332621E+02 -0.32811098845E+02 -0.20285418661E+03  0.20576584904E+03  0.00000000000E+00 0.  1.
        -13    1    4    4    0    0  0.93883568499E+02  0.45713075350E+02 -0.19545707049E+03  0.22160161574E+03  0.00000000000E+00 0.  1.
         13    1    4    4    0    0 -0.21177876644E+02  0.26538095594E+01 -0.32157024021E+02  0.38595587290E+02  0.00000000000E+00 0. -1.
          1    1    1    2  501    0  0.62469843726E+01 -0.23377681803E+02  0.18901651521E+03  0.19055913477E+03  0.00000000000E+00 0. -1.
<scales pt_clust_5="13000.00000" pt_clust_6="13000.00000" pt_clust_7="13000.00000" pt_clust_8="13000.00000" pt_clust_9="24.19795"></scales>
<clustering>
<clus scale="   24.198">  1  9  2 -1</clus>
<clus scale="   90.934">  7  8 -1 -1</clus>
<clus scale="   95.640">  5  6 -1 -1</clus>
<clus scale="  123.439">  1  7  2 -1</clus>
<clus scale="   24.198">  1  5  2 -1</clus>
</clustering>
</event>
<event>
 9    1  0.1445593E-005  0.1037076E+03  0.7546771E-02  0.1273550E+00
         -2   -1    0    0    0  501 -0.00000000000E+00  0.00000000000E+00  0.21131076854E+03  0.21131076854E+03  0.00000000000E+00 0.  1.
         21   -1    0    0  501  502  0.00000000000E+00 -0.00000000000E+00 -0.67656905552E+02  0.67656905552E+02  0.00000000000E+00 0.  1.
         23    2    1    2    0    0 -0.28814772540E+02 -0.29448383715E+02  0.87083016706E+02  0.13253258503E+03  0.91016129760E+02 0.  0.
         23    2    1    2    0    0  0.53131200578E+02  0.19641711519E+02  0.46484691010E+02  0.11834256300E+03  0.92926930507E+02 0.  0.
        -11    1    3    3    0    0 -0.54093267760E+02 -0.11521546060E+02  0.20308716536E+02  0.58917498317E+02  0.00000000000E+00 0.  1.
         11    1    3    3    0    0  0.25278495219E+02 -0.17926837655E+02  0.66774300170E+02  0.73615086715E+02  0.00000000000E+00 0. -1.
        -13    1    4    4    0    0  0.11130500335E+02  0.52808438324E+02  0.14064104280E+02  0.55771123577E+02  0.00000000000E+00 0. -1.
         13    1    4    4    0    0  0.42000700242E+02 -0.33166726805E+02  0.32420586730E+02  0.62571439425E+02  0.00000000000E+00 0.  1.
         -2    1    1    2    0  502 -0.24316428037E+02  0.98066721960E+01  0.10086155269E+02  0.28092526055E+02  0.00000000000E+00 0.  1.
<scales pt_clust_5="13000.00000" pt_clust_6="13000.00000" pt_clust_7="13000.00000" pt_clust_8="13000.00000" pt_clust_9="26.21945"></scales>
<clustering>
<clus scale="   26.219">  2  9  1 -1</clus>
<clus scale="   91.016">  5  6 -1 -1</clus>
<clus scale="   92.927">  7  8 -1 -1</clus>
<clus scale="  101.999">  1  5  2 -1</clus>
<clus scale="   26.219">  2  5  1 -1</clus>
</clustering>
</event>
<event>
 9    1  0.1445593E-005  0.1424123E+03  0.7546771E-02  0.1210643E+00
          1   -1    0    0  502    0 -0.00000000000E+00  0.00000000000E+00  0.84375314981E+03  0.84375314981E+03  0.00000000000E+00 0. -1.
         21   -1    0    0  501  502  0.00000000000E+00 -0.00000000000E+00 -0.34760498475E+02  0.34760498475E+02  0.00000000000E+00 0.  1.
         23    2    1    2    0    0  0.48743319552E+02 -0.90186333445E+02  0.42854467838E+03  0.45001501180E+03  0.91397393509E+02 0.  0.
         23    2    1    2    0    0 -0.34478398507E+02  0.11447821304E+03  0.36926340098E+03  0.39818893445E+03  0.88909768816E+02 0.  0.
        -11    1    3    3    0    0  0.56406441633E+02 -0.18546385575E+02  0.13030253407E+03  0.14319359435E+03  0.00000000000E+00 0. -1.
         11    1    3    3    0    0 -0.76631220816E+01 -0.71639947869E+02  0.29824214431E+03  0.30682141746E+03  0.00000000000E+00 0.  1.
        -11    1    4    4    0    0 -0.44903487565E+02  0.25858835391E+02  0.78648207359E+02  0.94183560583E+02  0.00000000000E+00 0.  1.
         11    1    4    4    0    0  0.10425089059E+02  0.88619377651E+02  0.29061519362E+03  0.30400537387E+03  0.00000000000E+00 0. -1.
          1    1    1    2  501    0 -0.14264921045E+02 -0.24291879597E+02  0.11184571973E+02  0.30309702028E+02  0.00000000000E+00 0. -1.
<scales pt_clust_5="13000.00000" pt_clust_6="13000.00000" pt_clust_7="13000.00000" pt_clust_8="13000.00000" pt_clust_9="28.17061"></scales>
<clustering>
<clus scale="   28.171">  2  9  1 -1</clus>
<clus scale="   88.910">  7  8 -1 -1</clus>
<clus scale="   91.397">  5  6 -1 -1</clus>
<clus scale="  140.829">  2  7  1 -1</clus>
<clus scale="   28.171">  2  5  1 -1</clus>
</clustering>
</event>
<event>
 9    1  0.1445593E-005  0.1019450E+03  0.7546771E-02  0.1278429E+00
         21   -1    0    0  501  502  0.00000000000E+00  0.00000000000E+00  0.96096356456E+02  0.96096356456E+02  0.00000000000E+00 0.  1.
          2   -1    0    0  502    0 -0.00000000000E+00 -0.00000000000E+00 -0.13379077584E+03  0.13379077584E+03  0.00000000000E+00 0. -1.
         23    2    1    2    0    0 -0.91449716337E+01  0.41122621689E+02 -0.30147223257E+02  0.10341399062E+03  0.89503619289E+02 0.  0.
         23    2    1    2    0    0  0.25123640304E+02 -0.28936427384E+02  0.68469228646E+01  0.10175448787E+03  0.94013729409E+02 0.  0.
        -11    1    3    3    0    0  0.24741495847E+02  0.47664489916E+02  0.52712876933E+01  0.53961390731E+02  0.00000000000E+00 0.  1.
         11    1    3    3    0    0 -0.33886467480E+02 -0.65418682267E+01 -0.35418510950E+02  0.49452599893E+02  0.00000000000E+00 0. -1.
        -13    1    4    4    0    0 -0.27241320640E+02 -0.39343321135E+02  0.70144113996E+01  0.48365157246E+02  0.00000000000E+00 0. -1.
         13    1    4    4    0    0  0.52364960944E+02  0.10406893751E+02 -0.16748853507E+00  0.53389330625E+02  0.00000000000E+00 0.  1.
          2    1    1    2  501    0 -0.15978668670E+02 -0.12186194305E+02 -0.14394118987E+02  0.24718653797E+02  0.00000000000E+00 0. -1.
<scales pt_clust_5="13000.00000" pt_clust_6="13000.00000" pt_clust_7="13000.00000" pt_clust_8="13000.00000" pt_clust_9="20.09531"></scales>
<clustering>
<clus scale="   20.095">  1  9  2 -1</clus>
<clus scale="   89.504">  5  6 -1 -1</clus>
<clus scale="   94.014">  7  8 -1 -1</clus>
<clus scale="   97.801">  2  5  1 -1</clus>
<clus scale="   20.095">  1  5  2 -1</clus>
</clustering>
</event>
<event>
 9    1  0.1445593E-005  0.1144873E+03  0.7546771E-02  0.1253942E+00
          2   -1    0    0  502    0 -0.00000000000E+00  0.00000000000E+00  0.19758545288E+03  0.19758545288E+03  0.00000000000E+00 0. -1.
         21   -1    0    0  501  502  0.00000000000E+00 -0.00000000000E+00 -0.13123745802E+03  0.13123745802E+03  0.00000000000E+00 0.  1.
         23    2    1    2    0    0  0.66707562956E+02  0.44052510044E+02  0.11211918969E+03  0.16487647628E+03  0.90680853206E+02 0.  0.
         23    2    1    2    0    0 -0.20550476848E+02 -0.27696865235E+02 -0.61400904650E+01  0.10094954463E+03  0.94676667703E+02 0.  0.
        -13    1    3    3    0    0 -0.18874400405E+02  0.23684398600E+02  0.14863193087E+02  0.33735859800E+02  0.00000000000E+00 0.  1.
         13    1    3    3    0    0  0.85581963361E+02  0.20368111444E+02  0.97255996602E+02  0.13114061648E+03  0.00000000000E+00 0. -1.
        -13    1    4    4    0    0 -0.30845358882E+02 -0.36766121871E+00 -0.43626086522E+02  0.53430391768E+02  0.00000000000E+00 0.  1.
         13    1    4    4    0    0  0.10294882034E+02 -0.27329204016E+02  0.37485996056E+02  0.47519152861E+02  0.00000000000E+00 0. -1.
          2    1    1    2  501    0 -0.46157086107E+02 -0.16355644809E+02 -0.39631104360E+02  0.62996889985E+02  0.00000000000E+00 0. -1.
<scales pt_clust_5="13000.00000" pt_clust_6="13000.00000" pt_clust_7="13000.00000" pt_clust_8="13000.00000" pt_clust_9="48.96921"></scales>
<clustering>
<clus scale="   48.969">  2  9  1 -1</clus>
<clus scale="   90.681">  5  6 -1 -1</clus>
<clus scale="   94.677">  7  8 -1 -1</clus>
<clus scale="  111.206">  1  5  2 -1</clus>
<clus scale="   48.969">  2  5  1 -1</clus>
</clustering>
</event>
<event>
 9    1  0.1445593E-005  0.2222689E+03  0.7546771E-02  0.1132277E+00
          3   -1    0    0  502    0 -0.00000000000E+00  0.00000000000E+00  0.56788972601E+03  0.56788972601E+03  0.00000000000E+00 0. -1.
         21   -1    0    0  501  502  0.00000000000E+00 -0.00000000000E+00 -0.57717826564E+03  0.57717826564E+03  0.00000000000E+00 0. -1.
         23    2    1    2    0    0 -0.22069793988E+02  0.19915199420E+03  0.46796588347E+03  0.51784380968E+03  0.94981843157E+02 0.  0.
         23    2    1    2    0    0 -0.22545440089E+02 -0.20825229608E+03 -0.10549193134E+03  0.25268355016E+03  0.94037828828E+02 0.  0.
        -11    1    3    3    0    0  0.33434336027E+02  0.10132397336E+03  0.26724020955E+03  0.28775290095E+03  0.00000000000E+00 0. -1.
         11    1    3    3    0    0 -0.55504130015E+02  0.97828020836E+02  0.20072567392E+03  0.23009090873E+03  0.00000000000E+00 0.  1.
        -13    1    4    4    0    0  0.14732355326E+02 -0.87229134186E+02 -0.94526814317E+00  0.88469529648E+02  0.00000000000E+00 0. -1.
         13    1    4    4    0    0 -0.37277795415E+02 -0.12102316189E+03 -0.10454666320E+03  0.16421402051E+03  0.00000000000E+00 0.  1.
          3    1    1    2  501    0  0.44615234077E+02  0.91003018851E+01 -0.37176249175E+03  0.37454063181E+03  0.00000000000E+00 0. -1.
<scales pt_clust_5="13000.00000" pt_clust_6="13000.00000" pt_clust_7="13000.00000" pt_clust_8="13000.00000" pt_clust_9="45.53388"></scales>
<clustering>
<clus scale="   45.534">  2  9  1 -1</clus>
<clus scale="   94.038">  7  8 -1 -1</clus>
<clus scale="   94.982">  5  6 -1 -1</clus>
<clus scale="  221.867">  2  7  1 -1</clus>
<clus scale="   45.534">  2  5  1 -1</clus>
</clustering>
</event>
<event>
 9    1  0.2226018E-005  0.1054011E+03  0.7546771E-02  0.1276709E+00
          2   -1    0    0  502    0 -0.00000000000E+00  0.00000000000E+00  0.14361852673E+03  0.14361852673E+03  0.00000000000E+00 0. -1.
         21   -1    0    0  501  502  0.00000000000E+00 -0.00000000000E+00 -0.22479205691E+03  0.22479205691E+03  0.00000000000E+00 0.  1.
         23    2    1    2    0    0  0.15904612274E+01  0.20492866186E+01  0.10383166470E+03  0.13835931447E+03  0.91408731341E+02 0.  0.
         23    2    1    2    0    0  0.20804211037E+02 -0.69152839822E+01 -0.12033674688E+03  0.16144217763E+03  0.10536606531E+03 0.  0.
        -13    1    3    3    0    0 -0.28244486794E+02  0.35375934467E+02  0.64474982622E+02  0.78779636695E+02  0.00000000000E+00 0. -1.
         13    1    3    3    0    0  0.29834948022E+02 -0.33326647849E+02  0.39356682074E+02  0.59579677778E+02  0.00000000000E+00 0.  1.
        -13    1    4    4    0    0  0.47404538434E+02 -0.24101288440E+02 -0.20993695073E+02  0.57173399421E+02  0.00000000000E+00 0.  1.
         13    1    4    4    0    0 -0.26600327397E+02  0.17186004458E+02 -0.99343051809E+02  0.10426877821E+03  0.00000000000E+00 0. -1.
          2    1    1    2  501    0 -0.22394672264E+02  0.48659973636E+01 -0.64668447986E+02  0.68609091534E+02  0.00000000000E+00 0. -1.
<scales pt_clust_5="13000.00000" pt_clust_6="13000.00000" pt_clust_7="13000.00000" pt_clust_8="13000.00000" pt_clust_9="22.91723"></scales>
<clustering>
<clus scale="   22.917">  2  9  1 -1</clus>
<clus scale="   91.409">  5  6 -1 -1</clus>
<clus scale="   91.449">  1  5  2 -1</clus>
<clus scale="  105.366">  7  8 -1 -1</clus>
<clus scale="   22.917">  2  5  1 -1</clus>
</clustering>
</event>
<event>
 9    1  0.1445593E-005  0.1425347E+03  0.7546771E-02  0.1210714E+00
         21   -1    0    0  501  502  0.00000000000E+00  0.00000000000E+00  0.46157471508E+03  0.46157471508E+03  0.00000000000E+00 0.  1.
         -3   -1    0    0    0  501 -0.00000000000E+00 -0.00000000000E+00 -0.10004084572E+03  0.10004084572E+03  0.00000000000E+00 0.  1.
         23    2    1    2    0    0  0.63174457036E+02  0.75775037242E+02  0.68086724435E+02  0.14947599358E+03  0.89299509078E+02 0.  0.
         23    2    1    2    0    0 -0.60115918809E+02 -0.12700019271E+03  0.31443608134E+03  0.35669674387E+03  0.92841505811E+02 0.  0.
        -11    1    4    4    0    0 -0.28707466243E+02 -0.26479550748E+02  0.19764026508E+02  0.43771017462E+02  0.00000000000E+00 0. -1.
         11    1    4    4    0    0 -0.31408452566E+02 -0.10052064196E+03  0.29467205483E+03  0.31292572641E+03  0.00000000000E+00 0.  1.
        -11    1    3    3    0    0 -0.19579232742E+02  0.20130508694E+02 -0.11003291687E+01  0.28103282003E+02  0.00000000000E+00 0. -1.
         11    1    3    3    0    0  0.82753689778E+02  0.55644528547E+02  0.69187053604E+02  0.12137271158E+03  0.00000000000E+00 0.  1.
         -3    1    1    2    0  502 -0.30585382273E+01  0.51225155465E+02 -0.20988936421E+02  0.55442823346E+02  0.00000000000E+00 0.  1.
<scales pt_clust_5="13000.00000" pt_clust_6="13000.00000" pt_clust_7="13000.00000" pt_clust_8="13000.00000" pt_clust_9="51.31641"></scales>
<clustering>
<clus scale="   51.316">  1  9  2 -1</clus>
<clus scale="   89.300">  7  8 -1 -1</clus>
<clus scale="   92.842">  5  6 -1 -1</clus>
<clus scale="  140.253">  2  7  1 -1</clus>
<clus scale="   51.316">  1  5  2 -1</clus>
</clustering>
</event>
<event>
 9    1  0.1445593E-005  0.1044470E+03  0.7546771E-02  0.1275245E+00
         -1   -1    0    0    0  501 -0.00000000000E+00  0.00000000000E+00  0.36668386936E+03  0.36668386936E+03  0.00000000000E+00 0.  1.
         21   -1    0    0  501  502  0.00000000000E+00 -0.00000000000E+00 -0.12926862319E+03  0.12926862319E+03  0.00000000000E+00 0.  1.
         23    2    1    2    0    0  0.52231816333E+02 -0.17035812872E+02  0.31505951287E+03  0.33252542172E+03  0.91061945313E+02 0.  0.
         23    2    1    2    0    0 -0.28849600858E+02 -0.29050617464E+02 -0.43237655004E+02  0.10134243512E+03  0.82003393232E+02 0.  0.
        -11    1    3    3    0    0  0.71253811423E+02 -0.30864172705E+02  0.27793885919E+03  0.28858224521E+03  0.00000000000E+00 0.  1.
         11    1    3    3    0    0 -0.19021995090E+02  0.13828359833E+02  0.37120653679E+02  0.43943176517E+02  0.00000000000E+00 0. -1.
        -11    1    4    4    0    0 -0.50738220755E+02 -0.33322865118E+02 -0.10307798289E+02  0.61571349592E+02  0.00000000000E+00 0.  1.
         11    1    4    4    0    0  0.21888619897E+02  0.42722476531E+01 -0.32929856715E+02  0.39771085530E+02  0.00000000000E+00 0. -1.
         -1    1    1    2    0  502 -0.23382215475E+02  0.46086430337E+02 -0.34406611705E+02  0.62084635706E+02  0.00000000000E+00 0.  1.
<scales pt_clust_5="13000.00000" pt_clust_6="13000.00000" pt_clust_7="13000.00000" pt_clust_8="13000.00000" pt_clust_9="51.67869"></scales>
<clustering>
<clus scale="   51.679">  2  9  1 -1</clus>
<clus scale="   82.003">  7  8 -1 -1</clus>
<clus scale="   91.062">  5  6 -1 -1</clus>
<clus scale="   96.651">  2  7  1 -1</clus>
<clus scale="   51.679">  2  5  1 -1</clus>
</clustering>
</event>
<event>
 9    1  0.1445593E-005  0.1519626E+03  0.7546771E-02  0.1198355E+00
         -1   -1    0    0    0  501 -0.00000000000E+00  0.00000000000E+00  0.37962896398E+03  0.37962896398E+03  0.00000000000E+00 0.  1.
         21   -1    0    0  501  502  0.00000000000E+00 -0.00000000000E+00 -0.14884859075E+03  0.14884859075E+03  0.00000000000E+00 0.  1.
         23    2    1    2    0    0  0.11176230215E+03 -0.51571337350E+02  0.29374741570E+03  0.33168553629E+03  0.92613906822E+02 0.  0.
         23    2    1    2    0    0 -0.88111278719E+02  0.68230400590E+02 -0.20499126370E+02  0.14540700900E+03  0.91126280959E+02 0.  0.
        -11    1    3    3    0    0  0.10427500630E+03 -0.75301576183E+02  0.25563292048E+03  0.28616742364E+03  0.00000000000E+00 0.  1.
         11    1    3    3    0    0  0.74872958474E+01  0.23730238834E+02  0.38114495217E+02  0.45518112657E+02  0.00000000000E+00 0. -1.
        -13    1    4    4    0    0 -0.31502026196E+02 -0.21171115123E+02 -0.86527502019E+01  0.38928959093E+02  0.00000000000E+00 0. -1.
         13    1    4    4    0    0 -0.56609252523E+02  0.89401515713E+02 -0.11846376168E+02  0.10647804990E+03  0.00000000000E+00 0.  1.
         -1    1    1    2    0  502 -0.23651023432E+02 -0.16659063240E+02 -0.42467916105E+02  0.51385009446E+02  0.00000000000E+00 0.  1.
<scales pt_clust_5="13000.00000" pt_clust_6="13000.00000" pt_clust_7="13000.00000" pt_clust_8="13000.00000" pt_clust_9="28.92914"></scales>
<clustering>
<clus scale="   28.929">  2  9  1 -1</clus>
<clus scale="   91.126">  7  8 -1 -1</clus>
<clus scale="   92.614">  5  6 -1 -1</clus>
<clus scale="  151.061">  2  7  1 -1</clus>
<clus scale="   28.929">  2  5  1 -1</clus>
</clustering>
</event>
<event>
 9    1  0.1445593E-005  0.1007816E+03  0.7546771E-02  0.1279179E+00
          1   -1    0    0  502    0 -0.00000000000E+00  0.00000000000E+00  0.24426315117E+03  0.24426315117E+03  0.00000000000E+00 0. -1.
         21   -1    0    0  501  502  0.00000000000E+00 -0.00000000000E+00 -0.79201389086E+02  0.79201389086E+02  0.00000000000E+00 0.  1.
         23    2    1    2    0    0  0.29234451246E+02 -0.16718050329E+02  0.15164072819E+03  0.18031099737E+03  0.91558718754E+02 0.  0.
         23    2    1    2    0    0 -0.47209924228E+02  0.41176673981E+02  0.64829738067E+01  0.11201709194E+03  0.92636410289E+02 0.  0.
        -13    1    4    4    0    0 -0.25438915472E+02 -0.37388878389E+01 -0.37514428159E+02  0.45480215729E+02  0.00000000000E+00 0.  1.
         13    1    4    4    0    0 -0.21771008756E+02  0.44915561820E+02  0.43997401966E+02  0.66536876209E+02  0.00000000000E+00 0. -1.
        -13    1    3    3    0    0  0.60485787174E+02 -0.23230709986E+02  0.90034870613E+02  0.11092553476E+03  0.00000000000E+00 0.  1.
         13    1    3    3    0    0 -0.31251335928E+02  0.65126596572E+01  0.61605857577E+02  0.69385462605E+02  0.00000000000E+00 0. -1.
          1    1    1    2  501    0  0.17975472981E+02 -0.24458623652E+02  0.69380600859E+01  0.31136450948E+02  0.00000000000E+00 0. -1.
<scales pt_clust_5="13000.00000" pt_clust_6="13000.00000" pt_clust_7="13000.00000" pt_clust_8="13000.00000" pt_clust_9="30.35361"></scales>
<clustering>
<clus scale="   30.354">  2  9  1 -1</clus>
<clus scale="   91.559">  7  8 -1 -1</clus>
<clus scale="   92.636">  5  6 -1 -1</clus>
<clus scale="   99.792">  1  7  2 -1</clus>
<clus scale="   30.354">  2  5  1 -1</clus>
</clustering>
</event>
<event>
 9    1  0.1445593E-005  0.1204460E+03  0.7546771E-02  0.1246719E+00
         21   -1    0    0  501  502  0.00000000000E+00  0.00000000000E+00  0.18551490883E+03  0.18551490883E+03  0.00000000000E+00 0.  1.
          1   -1    0    0  502    0 -0.00000000000E+00 -0.00000000000E+00 -0.19852837336E+03  0.19852837336E+03  0.00000000000E+00 0. -1.
         23    2    1    2    0    0 -0.56456627297E+02  0.50974798650E+02 -0.14152787251E+03  0.17844619219E+03  0.77634553810E+02 0.  0.
         23    2    1    2    0    0  0.82576312282E+02 -0.52231636054E+02  0.11325528517E+03  0.17532072276E+03  0.91452747671E+02 0.  0.
        -13    1    3    3    0    0 -0.63181225837E+02  0.21448107279E+02 -0.12985068488E+03  0.14599003037E+03  0.00000000000E+00 0. -1.
         13    1    3    3    0    0  0.67245985396E+01  0.29526691371E+02 -0.11677187632E+02  0.32456161816E+02  0.00000000000E+00 0.  1.
        -13    1    4    4    0    0  0.65169386507E+02 -0.10801090759E+02  0.11239938374E+03  0.13037382392E+03  0.00000000000E+00 0.  1.
         13    1    4    4    0    0  0.17406925775E+02 -0.41430545295E+02  0.85590143297E+00  0.44946898843E+02  0.00000000000E+00 0. -1.
          1    1    1    2  501    0 -0.26119684985E+02  0.12568374044E+01  0.15259122817E+02  0.30276367238E+02  0.00000000000E+00 0. -1.
<scales pt_clust_5="13000.00000" pt_clust_6="13000.00000" pt_clust_7="13000.00000" pt_clust_8="13000.00000" pt_clust_9="26.14991"></scales>
<clustering>
<clus scale="   26.150">  1  9  2 -1</clus>
<clus scale="   77.635">  5  6 -1 -1</clus>
<clus scale="   91.453">  7  8 -1 -1</clus>
<clus scale="  110.321">  2  5  1 -1</clus>
<clus scale="   26.150">  1  5  2 -1</clus>
</clustering>
</event>
<event>
 9    1  0.1445593E-005  0.1023793E+03  0.7546771E-02  0.1275999E+00
         21   -1    0    0  501  502  0.00000000000E+00  0.00000000000E+00  0.12256163783E+03  0.12256163783E+03  0.00000000000E+00 0.  1.
          1   -1    0    0  502    0 -0.00000000000E+00 -0.00000000000E+00 -0.36606509223E+03  0.36606509223E+03  0.00000000000E+00 0. -1.
         23    2    1    2    0    0 -0.89546607828E+01 -0.47921018471E+02 -0.21641245058E+03  0.23985790569E+03  0.91218727213E+02 0.  0.
         23    2    1    2    0    0 -0.64587709361E+02  0.27246336628E+02 -0.92295157879E+02  0.14833225543E+03  0.92574979188E+02 0.  0.
        -11    1    4    4    0    0 -0.81681287379E+02  0.40134418848E+02 -0.87800697920E+02  0.12645776702E+03  0.00000000000E+00 0.  1.
         11    1    4    4    0    0  0.17093578018E+02 -0.12888082220E+02 -0.44944599593E+01  0.21874488407E+02  0.00000000000E+00 0. -1.
        -13    1    3    3    0    0 -0.37149305622E+02 -0.42055020972E+01 -0.35282996073E+02  0.51406682133E+02  0.00000000000E+00 0.  1.
         13    1    3    3    0    0  0.28194644839E+02 -0.43715516374E+02 -0.18112945451E+03  0.18845122356E+03  0.00000000000E+00 0. -1.
          1    1    1    2  501    0  0.73542370144E+02  0.20674681843E+02  0.65204154061E+02  0.10043656895E+03  0.00000000000E+00 0. -1.
<scales pt_clust_5="13000.00000" pt_clust_6="13000.00000" pt_clust_7="13000.00000" pt_clust_8="13000.00000" pt_clust_9="76.39321"></scales>
<clustering>
<clus scale="   76.393">  1  9  2 -1</clus>
<clus scale="   91.219">  7  8 -1 -1</clus>
<clus scale="   92.575">  5  6 -1 -1</clus>
<clus scale="  101.155">  2  7  1 -1</clus>
<clus scale="   76.393">  1  5  2 -1</clus>
</clustering>
</event>
<event>
 9    1  0.1445593E-005  0.1244553E+03  0.7546771E-02  0.1238796E+00
         -1   -1    0    0    0  501 -0.00000000000E+00  0.00000000000E+00  0.34266360053E+03  0.34266360053E+03  0.00000000000E+00 0.  1.
         21   -1    0    0  501  502  0.00000000000E+00 -0.00000000000E+00 -0.56751312609E+02  0.56751312609E+02  0.00000000000E+00 0. -1.
         23    2    1    2    0    0 -0.57348491608E+02 -0.55097505811E+02  0.17840609326E+03  0.21631756908E+03  0.92951449390E+02 0.  0.
         23    2    1    2    0    0  0.49614454703E+02  0.36017417336E+02  0.11056214371E+03  0.16228379252E+03  0.10175064239E+03 0.  0.
        -11    1    4    4    0    0 -0.81644106689E+01 -0.26151428826E+02  0.67920982936E+01  0.28225651993E+02  0.00000000000E+00 0.  1.
         11    1    4    4    0    0  0.57778865372E+02  0.62168846162E+02  0.10377004542E+03  0.13405814053E+03  0.00000000000E+00 0. -1.
        -11    1    3    3    0    0 -0.52390104145E+02 -0.78474775182E+02  0.16150441901E+03  0.18704729539E+03  0.00000000000E+00 0.  1.
         11    1    3    3    0    0 -0.49583874625E+01  0.23377269371E+02  0.16901674248E+02  0.29270273690E+02  0.00000000000E+00 0. -1.
         -1    1    1    2    0  502  0.77340369051E+01  0.19080088474E+02 -0.30559490479E+01  0.20813551538E+02  0.00000000000E+00 0.  1.
<scales pt_clust_5="13000.00000" pt_clust_6="13000.00000" pt_clust_7="13000.00000" pt_clust_8="13000.00000" pt_clust_9="20.58798"></scales>
<clustering>
<clus scale="   20.588">  2  9  1 -1</clus>
<clus scale="   92.951">  7  8 -1 -1</clus>
<clus scale="  101.751">  5  6 -1 -1</clus>
<clus scale="  117.371">  1  7  2 -1</clus>
<clus scale="   20.588">  2  5  1 -1</clus>
</clustering>
</event>
<event>
 9    1  0.1445593E-005  0.1457927E+03  0.7546771E-02  0.1205986E+00
         21   -1    0    0  501  502  0.00000000000E+00  0.00000000000E+00  0.16049256259E+03  0.16049256259E+03  0.00000000000E+00 0. -1.
          1   -1    0    0  502    0 -0.00000000000E+00 -0.00000000000E+00 -0.25253840863E+03  0.25253840863E+03  0.00000000000E+00 0. -1.
         23    2    1    2    0    0 -0.10577863297E+02  0.11912889446E+03 -0.16455743985E+03  0.22274437246E+03  0.90732131922E+02 0.  0.
         23    2    1    2    0    0 -0.93740535501E+01 -0.95797958723E+02  0.27704393251E+02  0.13597180547E+03  0.91954753557E+02 0.  0.
        -11    1    4    4    0    0 -0.16278884773E+02  0.14374715323E+02  0.10940722556E+02  0.24317358823E+02  0.00000000000E+00 0.  1.
         11    1    4    4    0    0  0.69048312229E+01 -0.11017267405E+03  0.16763670695E+02  0.11165444665E+03  0.00000000000E+00 0. -1.
        -13    1    3    3    0    0 -0.12609776654E+02  0.90496089756E+02 -0.49009873415E+02  0.10368469714E+03  0.00000000000E+00 0. -1.
         13    1    3    3    0    0  0.20319133574E+01  0.28632804701E+02 -0.11554756644E+03  0.11905967532E+03  0.00000000000E+00 0.  1.
          1    1    1    2  501    0  0.19951916847E+02 -0.23330935734E+02  0.44807200569E+02  0.54314793297E+02  0.00000000000E+00 0. -1.
<scales pt_clust_5="13000.00000" pt_clust_6="13000.00000" pt_clust_7="13000.00000" pt_clust_8="13000.00000" pt_clust_9="30.69872"></scales>
<clustering>
<clus scale="   30.699">  1  9  2 -1</clus>
<clus scale="   90.732">  7  8 -1 -1</clus>
<clus scale="   91.955">  5  6 -1 -1</clus>
<clus scale="  145.025">  2  7  1 -1</clus>
<clus scale="   30.699">  1  5  2 -1</clus>
</clustering>
</event>
<event>
 9    1  0.1445593E-005  0.1052432E+03  0.7546771E-02  0.1272096E+00
          2   -1    0    0  502    0 -0.00000000000E+00  0.00000000000E+00  0.32326001638E+03  0.32326001638E+03  0.00000000000E+00 0. -1.
         21   -1    0    0  501  502  0.00000000000E+00 -0.00000000000E+00 -0.84389942120E+02  0.84389942120E+02  0.00000000000E+00 0.  1.
         23    2    1    2    0    0  0.58565432997E+02 -0.22253400164E+02  0.15549388763E+03  0.19368644489E+03  0.97010133920E+02 0.  0.
         23    2    1    2    0    0  0.75462403009E+01  0.40070772162E+02  0.10190966475E+03  0.14302902339E+03  0.91701195407E+02 0.  0.
        -11    1    4    4    0    0 -0.32366531197E+02 -0.83918409254E+01  0.56106448254E+02  0.65314231768E+02  0.00000000000E+00 0. -1.
         11    1    4    4    0    0  0.39912771498E+02  0.48462613088E+02  0.45803216492E+02  0.77714791622E+02  0.00000000000E+00 0.  1.
        -13    1    3    3    0    0  0.85114857571E+02 -0.18762360007E+02  0.13131468184E+03  0.15760745794E+03  0.00000000000E+00 0.  1.
         13    1    3    3    0    0 -0.26549424574E+02 -0.34910401577E+01  0.24179205791E+02  0.36078986949E+02  0.00000000000E+00 0. -1.
          2    1    1    2  501    0 -0.66111673297E+02 -0.17817371998E+02 -0.18533478117E+02  0.70934490216E+02  0.00000000000E+00 0. -1.
<scales pt_clust_5="13000.00000" pt_clust_6="13000.00000" pt_clust_7="13000.00000" pt_clust_8="13000.00000" pt_clust_9="68.47052"></scales>
<clustering>
<clus scale="   68.471">  2  9  1 -1</clus>
<clus scale="   91.701">  5  6 -1 -1</clus>
<clus scale="   97.010">  7  8 -1 -1</clus>
<clus scale="  100.371">  2  5  1 -1</clus>
<clus scale="   68.471">  2  5  1 -1</clus>
</clustering>
</event>
<event>
 9    1  0.1445593E-005  0.1119752E+03  0.7546771E-02  0.1257828E+00
         21   -1    0    0  501  502  0.00000000000E+00  0.00000000000E+00  0.10345204644E+03  0.10345204644E+03  0.00000000000E+00 0. -1.
          2   -1    0    0  502    0 -0.00000000000E+00 -0.00000000000E+00 -0.31002081756E+03  0.31002081756E+03  0.00000000000E+00 0. -1.
         23    2    1    2    0    0  0.20421337530E+02  0.44591642970E+02 -0.16185975076E+03  0.19142965326E+03  0.89673226667E+02 0.  0.
         23    2    1    2    0    0 -0.50373704988E+02 -0.99211084077E+02 -0.62395152106E+02  0.15728808030E+03  0.92011063676E+02 0.  0.
        -11    1    3    3    0    0  0.47611114467E+02  0.12390328176E+02 -0.12876590265E+03  0.13784410085E+03  0.00000000000E+00 0.  1.
         11    1    3    3    0    0 -0.27189776937E+02  0.32201314794E+02 -0.33093848110E+02  0.53585552409E+02  0.00000000000E+00 0. -1.
        -11    1    4    4    0    0 -0.33095922475E+02 -0.57884214861E+02 -0.84253872178E+02  0.10744597429E+03  0.00000000000E+00 0. -1.
         11    1    4    4    0    0 -0.17277782513E+02 -0.41326869217E+02  0.21858720071E+02  0.49842106004E+02  0.00000000000E+00 0.  1.
          2    1    1    2  501    0  0.29952367458E+02  0.54619441107E+02  0.17686131743E+02  0.64755130447E+02  0.00000000000E+00 0. -1.
<scales pt_clust_5="13000.00000" pt_clust_6="13000.00000" pt_clust_7="13000.00000" pt_clust_8="13000.00000" pt_clust_9="62.29308"></scales>
<clustering>
<clus scale="   62.293">  1  9  2 -1</clus>
<clus scale="   89.673">  5  6 -1 -1</clus>
<clus scale="   92.011">  7  8 -1 -1</clus>
<clus scale="  110.062">  2  5  1 -1</clus>
<clus scale="   62.293">  1  5  2 -1</clus>
</clustering>
</event>
<event>
 9    1  0.1445593E-005  0.1148380E+03  0.7546771E-02  0.1252487E+00
          1   -1    0    0  502    0 -0.00000000000E+00  0.00000000000E+00  0.11929560895E+04  0.11929560895E+04  0.00000000000E+00 0. -1.
         21   -1    0    0  501  502  0.00000000000E+00 -0.00000000000E+00 -0.31817618646E+02  0.31817618646E+02  0.00000000000E+00 0. -1.
         23    2    1    2    0    0  0.54457394735E+02  0.62460300454E+01  0.60804120594E+03  0.61722175859E+03  0.90796312770E+02 0.  0.
         23    2    1    2    0    0 -0.11282520313E+03  0.63869869776E+02  0.37552183110E+03  0.40791208592E+03  0.92556671707E+02 0.  0.
        -11    1    4    4    0    0 -0.15015642229E+02 -0.18919773094E+02  0.25281000206E+02  0.34965072528E+02  0.00000000000E+00 0.  1.
         11    1    4    4    0    0 -0.97809560900E+02  0.82789642869E+02  0.35024083090E+03  0.37294701339E+03  0.00000000000E+00 0. -1.
        -13    1    3    3    0    0  0.23012702690E+02 -0.42283474119E+02  0.26341976641E+03  0.26778246770E+03  0.00000000000E+00 0.  1.
         13    1    3    3    0    0  0.31444692045E+02  0.48529504165E+02  0.34462143953E+03  0.34943929089E+03  0.00000000000E+00 0. -1.
          1    1    1    2  501    0  0.58367808395E+02 -0.70115899821E+02  0.17757543384E+03  0.19963986368E+03  0.00000000000E+00 0. -1.
<scales pt_clust_5="13000.00000" pt_clust_6="13000.00000" pt_clust_7="13000.00000" pt_clust_8="13000.00000" pt_clust_9="91.23070"></scales>
<clustering>
<clus scale="   90.796">  7  8 -1 -1</clus>
<clus scale="   91.231">  2  9  1 -1</clus>
<clus scale="   92.557">  5  6 -1 -1</clus>
<clus scale="  113.424">  1  7  2 -1</clus>
<clus scale="   91.231">  2  5  1 -1</clus>
</clustering>
</event>
<event>
 9    1  0.1445593E-005  0.1013798E+03  0.7546771E-02  0.1281299E+00
         21   -1    0    0  501  502  0.00000000000E+00  0.00000000000E+00  0.55741886401E+02  0.55741886401E+02  0.00000000000E+00 0. -1.
          1   -1    0    0  502    0 -0.00000000000E+00 -0.00000000000E+00 -0.55572616696E+03  0.55572616696E+03  0.00000000000E+00 0. -1.
         23    2    1    2    0    0  0.18439232207E+02  0.57225406606E+02 -0.37245757483E+03  0.38839841242E+03  0.92270955777E+02 0.  0.
         23    2    1    2    0    0  0.89921428406E+01  0.25880068246E+02 -0.33816465664E+02  0.94848701225E+02  0.84273876193E+02 0.  0.
        -11    1    4    4    0    0  0.36559804969E+02 -0.14766498934E+02 -0.16974626790E+02  0.42927925465E+02  0.00000000000E+00 0.  1.
         11    1    4    4    0    0 -0.27567662128E+02  0.40646567180E+02 -0.16841838874E+02  0.51920775759E+02  0.00000000000E+00 0. -1.
        -11    1    3    3    0    0  0.51540116517E+02  0.56906655259E+02 -0.24789470748E+03  0.25951211343E+03  0.00000000000E+00 0.  1.
         11    1    3    3    0    0 -0.33100884311E+02  0.31875134771E+00 -0.12456286735E+03  0.12888629899E+03  0.00000000000E+00 0. -1.
          1    1    1    2  501    0 -0.27431375047E+02 -0.83105474853E+02 -0.93710240064E+02  0.12822093971E+03  0.00000000000E+00 0. -1.
<scales pt_clust_5="13000.00000" pt_clust_6="13000.00000" pt_clust_7="13000.00000" pt_clust_8="13000.00000" pt_clust_9="87.51571"></scales>
<clustering>
<clus scale="   84.274">  5  6 -1 -1</clus>
<clus scale="   87.516">  1  9  2 -1</clus>
<clus scale="   92.271">  7  8 -1 -1</clus>
<clus scale="   94.160">  1  5  2 -1</clus>
<clus scale="   87.516">  1  5  2 -1</clus>
</clustering>
</event>
<event>
 9    1  0.1445593E-005  0.1451923E+03  0.7546771E-02  0.1207502E+00
         -4   -1    0    0    0  501 -0.00000000000E+00  0.00000000000E+00  0.26808290685E+02  0.26808290685E+02  0.00000000000E+00 0.  1.
         21   -1    0    0  501  502  0.00000000000E+00 -0.00000000000E+00 -0.13143763316E+04  0.13143763316E+04  0.00000000000E+00 0.  1.
         23    2    1    2    0    0  0.13030741441E+03  0.26415825607E+02 -0.35069145674E+03  0.38538611450E+03  0.88657438042E+02 0.  0.
         23    2    1    2    0    0 -0.79463260056E+02  0.14130520494E+02 -0.57355684656E+03  0.58670452796E+03  0.93491526754E+02 0.  0.
        -11    1    3    3    0    0  0.13555803745E+03  0.30024304814E+01 -0.30485701680E+03  0.33365071077E+03  0.00000000000E+00 0.  1.
         11    1    3    3    0    0 -0.52506230382E+01  0.23413395125E+02 -0.45834439947E+02  0.51735403727E+02  0.00000000000E+00 0. -1.
        -11    1    4    4    0    0 -0.24603393661E+02 -0.39552274525E+02 -0.20170934099E+03  0.20701779547E+03  0.00000000000E+00 0. -1.
         11    1    4    4    0    0 -0.54859866396E+02  0.53682795018E+02 -0.37184750557E+03  0.37968673248E+03  0.00000000000E+00 0.  1.
         -4    1    1    2    0  502 -0.50844154358E+02 -0.40546346101E+02 -0.36331973763E+03  0.36909397985E+03  0.00000000000E+00 0.  1.
<scales pt_clust_5="13000.00000" pt_clust_6="13000.00000" pt_clust_7="13000.00000" pt_clust_8="13000.00000" pt_clust_9="65.03179"></scales>
<clustering>
<clus scale="   65.032">  2  9  1 -1</clus>
<clus scale="   88.657">  5  6 -1 -1</clus>
<clus scale="   93.492">  7  8 -1 -1</clus>
<clus scale="  142.128">  1  5  2 -1</clus>
<clus scale="   65.032">  2  5  1 -1</clus>
</clustering>
</event>
<event>
 9    1  0.1445593E-005  0.9878564E+02  0.7546771E-02  0.1285717E+00
          1   -1    0    0  502    0 -0.00000000000E+00  0.00000000000E+00  0.16607435480E+03  0.16607435480E+03  0.00000000000E+00 0. -1.
         21   -1    0    0  501  502  0.00000000000E+00 -0.00000000000E+00 -0.23241169768E+03  0.23241169768E+03  0.00000000000E+00 0. -1.
         23    2    1    2    0    0  0.17287260345E+02 -0.28568087591E+02  0.78308379154E+02  0.12173804552E+03  0.87022781397E+02 0.  0.
         23    2    1    2    0    0 -0.83905150032E+02 -0.11311492023E+02 -0.15390831745E+03  0.19855516988E+03  0.92565443080E+02 0.  0.
        -11    1    4    4    0    0 -0.84489324215E+02  0.87341401254E+01 -0.63771910517E+02  0.10621481856E+03  0.00000000000E+00 0. -1.
         11    1    4    4    0    0  0.58417418376E+00 -0.20045632149E+02 -0.90136406937E+02  0.92340351327E+02  0.00000000000E+00 0.  1.
        -11    1    3    3    0    0 -0.34923318392E+02 -0.17266717345E+02  0.25123060288E+02  0.46356723931E+02  0.00000000000E+00 0.  1.
         11    1    3    3    0    0  0.52210578736E+02 -0.11301370246E+02  0.53185318866E+02  0.75381321588E+02  0.00000000000E+00 0. -1.
          1    1    1    2  501    0  0.66617889687E+02  0.39879579615E+02  0.92625954208E+01  0.78192837079E+02  0.00000000000E+00 0. -1.
<scales pt_clust_5="13000.00000" pt_clust_6="13000.00000" pt_clust_7="13000.00000" pt_clust_8="13000.00000" pt_clust_9="77.64232"></scales>
<clustering>
<clus scale="   77.642">  2  9  1 -1</clus>
<clus scale="   87.023">  7  8 -1 -1</clus>
<clus scale="   92.565">  5  6 -1 -1</clus>
<clus scale="   93.612">  1  7  2 -1</clus>
<clus scale="   77.642">  2  5  1 -1</clus>
</clustering>
</event>
<event>
 9    1  0.1445593E-005  0.9744623E+02  0.7546771E-02  0.1286375E+00
         -2   -1    0    0    0  501 -0.00000000000E+00  0.00000000000E+00  0.17889840242E+03  0.17889840242E+03  0.00000000000E+00 0.  1.
         21   -1    0    0  501  502  0.00000000000E+00 -0.00000000000E+00 -0.82376614726E+02  0.82376614726E+02  0.00000000000E+00 0. -1.
         23    2    1    2    0    0  0.35637221433E+02  0.16603784655E+02  0.88644692703E+02  0.13262513830E+03  0.90475679316E+02 0.  0.
         23    2    1    2    0    0 -0.58290857260E+01 -0.27569291578E+02 -0.91432322803E-01  0.95904425361E+02  0.91671186124E+02 0.  0.
        -11    1    3    3    0    0  0.46679128953E+02  0.43312822242E+02  0.80415677215E+02  0.10257496182E+03  0.00000000000E+00 0.  1.
         11    1    3    3    0    0 -0.11041907519E+02 -0.26709037587E+02  0.82290154884E+01  0.30050176479E+02  0.00000000000E+00 0. -1.
        -13    1    4    4    0    0  0.16812281891E+02 -0.51346226390E+02  0.19769787164E+02  0.57532010841E+02  0.00000000000E+00 0.  1.
         13    1    4    4    0    0 -0.22641367617E+02  0.23776934812E+02 -0.19861219487E+02  0.38372414520E+02  0.00000000000E+00 0. -1.
         -2    1    1    2    0  502 -0.29808135707E+02  0.10965506923E+02  0.79685273114E+01  0.32745453485E+02  0.00000000000E+00 0.  1.
<scales pt_clust_5="13000.00000" pt_clust_6="13000.00000" pt_clust_7="13000.00000" pt_clust_8="13000.00000" pt_clust_9="31.76110"></scales>
<clustering>
<clus scale="   31.761">  2  9  1 -1</clus>
<clus scale="   90.476">  5  6 -1 -1</clus>
<clus scale="   91.671">  7  8 -1 -1</clus>
<clus scale="   96.322">  1  5  2 -1</clus>
<clus scale="   31.761">  2  5  1 -1</clus>
</clustering>
</event>
<event>
 9    1  0.1445593E-005  0.1231144E+03  0.7546771E-02  0.1240085E+00
         21   -1    0    0  501  502  0.00000000000E+00  0.00000000000E+00  0.32002298605E+03  0.32002298605E+03  0.00000000000E+00 0. -1.
         -1   -1    0    0    0  501 -0.00000000000E+00 -0.00000000000E+00 -0.70003334833E+02  0.70003334833E+02  0.00000000000E+00 0.  1.
         23    2    1    2    0    0 -0.10963885422E+02 -0.76540569774E+02  0.33614688098E+02  0.11851518605E+03  0.83290074214E+02 0.  0.
         23    2    1    2    0    0  0.43110406343E+01  0.98715148867E+02  0.14914567686E+03  0.20037897692E+03  0.90244311616E+02 0.  0.
        -11    1    3    3    0    0 -0.26052977008E+02 -0.49224177804E+02 -0.17715359768E+02  0.58443231115E+02  0.00000000000E+00 0.  1.
         11    1    3    3    0    0  0.15089091586E+02 -0.27316391970E+02  0.51330047867E+02  0.60071954930E+02  0.00000000000E+00 0. -1.
        -13    1    4    4    0    0  0.44373668552E+02  0.71105673852E+02  0.80284012103E+02  0.11606274990E+03  0.00000000000E+00 0. -1.
         13    1    4    4    0    0 -0.40062627917E+02  0.27609475015E+02  0.68861664760E+02  0.84316227025E+02  0.00000000000E+00 0.  1.
         -1    1    1    2    0  502  0.66528447875E+01 -0.22174579093E+02  0.67259286261E+02  0.71132157918E+02  0.00000000000E+00 0.  1.
<scales pt_clust_5="13000.00000" pt_clust_6="13000.00000" pt_clust_7="13000.00000" pt_clust_8="13000.00000" pt_clust_9="23.15108"></scales>
<clustering>
<clus scale="   23.151">  1  9  2 -1</clus>
<clus scale="   83.290">  5  6 -1 -1</clus>
<clus scale="   90.244">  7  8 -1 -1</clus>
<clus scale="  118.112">  2  5  1 -1</clus>
<clus scale="   23.151">  1  5  2 -1</clus>
</clustering>
</event>
<event>
 9    1  0.1445593E-005  0.9889158E+02  0.7546771E-02  0.1283825E+00
         -2   -1    0    0    0  501 -0.00000000000E+00  0.00000000000E+00  0.16664224422E+03  0.16664224422E+03  0.00000000000E+00 0.  1.
         21   -1    0    0  501  502  0.00000000000E+00 -0.00000000000E+00 -0.21433462977E+03  0.21433462977E+03  0.00000000000E+00 0.  1.
         23    2    1    2    0    0  0.34836584071E+02  0.21622583882E+02  0.93832807951E+02  0.13629254216E+03  0.89944079719E+02 0.  0.
         23    2    1    2    0    0 -0.14101916243E+02 -0.21558201085E+02  0.57179998075E+01  0.95988371668E+02  0.92290042247E+02 0.  0.
        -11    1    4    4    0    0 -0.33553413412E+02 -0.50680596638E+02  0.44629390467E+01  0.60944829576E+02  0.00000000000E+00 0. -1.
         11    1    4    4    0    0  0.19451497169E+02  0.29122395552E+02  0.12550607608E+01  0.35043542092E+02  0.00000000000E+00 0.  1.
        -13    1    3    3    0    0  0.68866193458E+01 -0.25751926242E+02 -0.98518500546E+00  0.26675041156E+02  0.00000000000E+00 0. -1.
         13    1    3    3    0    0  0.27949964725E+02  0.47374510124E+02  0.94817992956E+02  0.10961750100E+03  0.00000000000E+00 0.  1.
         -2    1    1    2    0  502 -0.20734667827E+02 -0.64382796977E-01 -0.14724319330E+03  0.14869596016E+03  0.00000000000E+00 0.  1.
<scales pt_clust_5="13000.00000" pt_clust_6="13000.00000" pt_clust_7="13000.00000" pt_clust_8="13000.00000" pt_clust_9="20.73477"></scales>
<clustering>
<clus scale="   20.735">  2  9  1 -1</clus>
<clus scale="   89.944">  7  8 -1 -1</clus>
<clus scale="   92.290">  5  6 -1 -1</clus>
<clus scale="   96.706">  1  7  2 -1</clus>
<clus scale="   20.735">  2  5  1 -1</clus>
</clustering>
</event>
<event>
 9    1  0.1445593E-005  0.9866002E+02  0.7546771E-02  0.1283346E+00
          2   -1    0    0  502    0 -0.00000000000E+00  0.00000000000E+00  0.20829739674E+03  0.20829739674E+03  0.00000000000E+00 0. -1.
         21   -1    0    0  501  502  0.00000000000E+00 -0.00000000000E+00 -0.71625244975E+02  0.71625244975E+02  0.00000000000E+00 0.  1.
         23    2    1    2    0    0 -0.30855789707E+02 -0.10295590544E+02  0.76201415958E+02  0.12413421589E+03  0.92436836911E+02 0.  0.
         23    2    1    2    0    0  0.35176586480E+02 -0.27153522845E+02  0.57669214665E+02  0.11798691925E+03  0.92846479501E+02 0.  0.
        -11    1    4    4    0    0  0.58491959460E+02 -0.10404902082E+00  0.11488915046E+02  0.59609691466E+02  0.00000000000E+00 0.  1.
         11    1    4    4    0    0 -0.23315372980E+02 -0.27049473824E+02  0.46180299618E+02  0.58377227788E+02  0.00000000000E+00 0. -1.
        -13    1    3    3    0    0 -0.21125264153E+02 -0.47272540867E+02  0.18640744751E+02  0.55031329899E+02  0.00000000000E+00 0. -1.
         13    1    3    3    0    0 -0.97305255532E+01  0.36976950323E+02  0.57560671206E+02  0.69102885992E+02  0.00000000000E+00 0.  1.
          2    1    1    2  501    0 -0.43207967734E+01  0.37449113389E+02  0.28015211459E+01  0.37801506572E+02  0.00000000000E+00 0. -1.
<scales pt_clust_5="13000.00000" pt_clust_6="13000.00000" pt_clust_7="13000.00000" pt_clust_8="13000.00000" pt_clust_9="37.69755"></scales>
<clustering>
<clus scale="   37.698">  2  9  1 -1</clus>
<clus scale="   92.437">  7  8 -1 -1</clus>
<clus scale="   92.846">  5  6 -1 -1</clus>
<clus scale="   98.275">  1  7  2 -1</clus>
<clus scale="   37.698">  2  5  1 -1</clus>
</clustering>
</event>
<event>
 9    1  0.1445593E-005  0.3413316E+03  0.7546771E-02  0.1066295E+00
          1   -1    0    0  502    0 -0.00000000000E+00  0.00000000000E+00  0.12504044621E+04  0.12504044621E+04  0.00000000000E+00 0. -1.
         21   -1    0    0  501  502  0.00000000000E+00 -0.00000000000E+00 -0.13871950783E+03  0.13871950783E+03  0.00000000000E+00 0. -1.
         23    2    1    2    0    0 -0.26764597545E+03  0.15598872750E+03  0.66640676660E+03  0.74043986320E+03  0.90478512156E+02 0.  0.
         23    2    1    2    0    0  0.31581147728E+03 -0.18087388403E+03  0.45937969574E+03  0.59266590337E+03  0.88152805097E+02 0.  0.
        -11    1    3    3    0    0 -0.44091168880E+02  0.23092050223E+01  0.48399729648E+02  0.65512574602E+02  0.00000000000E+00 0.  1.
         11    1    3    3    0    0 -0.22355480657E+03  0.15367952248E+03  0.61800703695E+03  0.67492728860E+03  0.00000000000E+00 0. -1.
        -11    1    4    4    0    0  0.15205255861E+03 -0.40741207285E+02  0.22049740502E+03  0.27092237297E+03  0.00000000000E+00 0.  1.
         11    1    4    4    0    0  0.16375891867E+03 -0.14013267675E+03  0.23888229072E+03  0.32174353040E+03  0.00000000000E+00 0. -1.
          1    1    1    2  501    0 -0.48165501839E+02  0.24885156526E+02 -0.14101508045E+02  0.56018203397E+02  0.00000000000E+00 0. -1.
<scales pt_clust_5="13000.00000" pt_clust_6="13000.00000" pt_clust_7="13000.00000" pt_clust_8="13000.00000" pt_clust_9="54.21427"></scales>
<clustering>
<clus scale="   54.214">  2  9  1 -1</clus>
<clus scale="   88.153">  7  8 -1 -1</clus>
<clus scale="   90.479">  5  6 -1 -1</clus>
<clus scale="  340.722">  2  7  1 -1</clus>
<clus scale="   54.214">  2  5  1 -1</clus>
</clustering>
</event>
<event>
 9    1  0.1445593E-005  0.1240121E+03  0.7546771E-02  0.1238443E+00
         21   -1    0    0  501  502  0.00000000000E+00  0.00000000000E+00  0.36826113532E+03  0.36826113532E+03  0.00000000000E+00 0.  1.
         -1   -1    0    0    0  501 -0.00000000000E+00 -0.00000000000E+00 -0.81474444449E+02  0.81474444449E+02  0.00000000000E+00 0.  1.
         23    2    1    2    0    0  0.57597790726E+02 -0.13293987866E+02  0.59806912117E+02  0.12827153371E+03  0.96863223222E+02 0.  0.
         23    2    1    2    0    0 -0.99147745152E+02 -0.89409280002E+01  0.59386440665E+02  0.14737120540E+03  0.91001688361E+02 0.  0.
        -11    1    4    4    0    0 -0.36310281035E+02 -0.43339420941E+02  0.37440821278E+01  0.56663569137E+02  0.00000000000E+00 0. -1.
         11    1    4    4    0    0 -0.62837464117E+02  0.34398492941E+02  0.55642358537E+02  0.90707636265E+02  0.00000000000E+00 0.  1.
        -11    1    3    3    0    0  0.43126349519E+02  0.27540984590E+02 -0.38011051668E+01  0.51311170865E+02  0.00000000000E+00 0. -1.
         11    1    3    3    0    0  0.14471441207E+02 -0.40834972457E+02  0.63608017284E+02  0.76960362843E+02  0.00000000000E+00 0.  1.
         -1    1    1    2    0  502  0.41549954427E+02  0.22234915867E+02  0.16759333809E+03  0.17409284066E+03  0.00000000000E+00 0.  1.
<scales pt_clust_5="13000.00000" pt_clust_6="13000.00000" pt_clust_7="13000.00000" pt_clust_8="13000.00000" pt_clust_9="47.12526"></scales>
<clustering>
<clus scale="   47.125">  1  9  2 -1</clus>
<clus scale="   91.002">  5  6 -1 -1</clus>
<clus scale="   96.863">  7  8 -1 -1</clus>
<clus scale="  119.490">  1  5  2 -1</clus>
<clus scale="   47.125">  1  5  2 -1</clus>
</clustering>
</event>
<event>
 9    1  0.1445593E-005  0.2913704E+03  0.7546771E-02  0.1089662E+00
         21   -1    0    0  501  502  0.00000000000E+00  0.00000000000E+00  0.72066320003E+03  0.72066320003E+03  0.00000000000E+00 0. -1.
         -1   -1    0    0    0  501 -0.00000000000E+00 -0.00000000000E+00 -0.15224828279E+03  0.15224828279E+03  0.00000000000E+00 0.  1.
         23    2    1    2    0    0 -0.22785656152E+03 -0.13772962849E+03  0.15920698437E+03  0.32335565711E+03  0.91235705300E+02 0.  0.
         23    2    1    2    0    0  0.24455756134E+03  0.15856444646E+03  0.26904077891E+03  0.40686790021E+03  0.90595049587E+02 0.  0.
        -11    1    4    4    0    0  0.14334246013E+03  0.45882071671E+02  0.16369569993E+03  0.22237020383E+03  0.00000000000E+00 0. -1.
         11    1    4    4    0    0  0.10121510121E+03  0.11268237479E+03  0.10534507898E+03  0.18449769638E+03  0.00000000000E+00 0.  1.
        -13    1    3    3    0    0 -0.20703874704E+02 -0.34611081094E+02  0.58350348470E+02  0.70931942937E+02  0.00000000000E+00 0. -1.
         13    1    3    3    0    0 -0.20715268682E+03 -0.10311854739E+03  0.10085663590E+03  0.25242371417E+03  0.00000000000E+00 0.  1.
         -1    1    1    2    0  502 -0.16700999819E+02 -0.20834817974E+02  0.14016715396E+03  0.14268792551E+03  0.00000000000E+00 0.  1.
<scales pt_clust_5="13000.00000" pt_clust_6="13000.00000" pt_clust_7="13000.00000" pt_clust_8="13000.00000" pt_clust_9="26.70230"></scales>
<clustering>
<clus scale="   26.702">  1  9  2 -1</clus>
<clus scale="   90.595">  5  6 -1 -1</clus>
<clus scale="   91.236">  7  8 -1 -1</clus>
<clus scale="  291.170">  1  5  2 -1</clus>
<clus scale="   26.702">  1  5  2 -1</clus>
</clustering>
</event>
<event>
 9    1  0.1445593E-005  0.1339679E+03  0.7546771E-02  0.1222151E+00
         21   -1    0    0  501  502  0.00000000000E+00  0.00000000000E+00  0.46585803581E+03  0.46585803581E+03  0.00000000000E+00 0.  1.
         -1   -1    0    0    0  501 -0.00000000000E+00 -0.00000000000E+00 -0.55685609142E+02  0.55685609142E+02  0.00000000000E+00 0.  1.
         23    2    1    2    0    0  0.29735022612E+02 -0.10567808589E+03  0.11255142453E+03  0.18175113467E+03  0.91179067683E+02 0.  0.
         23    2    1    2    0    0 -0.47142052414E+02  0.68929211127E+02  0.20563155253E+03  0.23921645288E+03  0.89255625487E+02 0.  0.
        -11    1    4    4    0    0  0.22972534624E+02  0.24400379747E+02  0.95948779700E+02  0.10163308617E+03  0.00000000000E+00 0. -1.
         11    1    4    4    0    0 -0.70114587038E+02  0.44528831380E+02  0.10968277283E+03  0.13758336671E+03  0.00000000000E+00 0.  1.
        -13    1    3    3    0    0  0.62120019337E+02 -0.77894722862E+02  0.84961229825E+02  0.13093851697E+03  0.00000000000E+00 0.  1.
         13    1    3    3    0    0 -0.32384996726E+02 -0.27783363026E+02  0.27590194703E+02  0.50812617702E+02  0.00000000000E+00 0. -1.
         -1    1    1    2    0  502  0.17407029802E+02  0.36748874761E+02  0.91989449615E+02  0.10057605741E+03  0.00000000000E+00 0.  1.
<scales pt_clust_5="13000.00000" pt_clust_6="13000.00000" pt_clust_7="13000.00000" pt_clust_8="13000.00000" pt_clust_9="40.66306"></scales>
<clustering>
<clus scale="   40.663">  1  9  2 -1</clus>
<clus scale="   89.256">  5  6 -1 -1</clus>
<clus scale="   91.179">  7  8 -1 -1</clus>
<clus scale="  132.666">  1  5  2 -1</clus>
<clus scale="   40.663">  1  5  2 -1</clus>
</clustering>
</event>
<event>
 9    1  0.1445593E-005  0.1237001E+03  0.7546771E-02  0.1239211E+00
         -1   -1    0    0    0  501 -0.00000000000E+00  0.00000000000E+00  0.45184480190E+03  0.45184480190E+03  0.00000000000E+00 0.  1.
         21   -1    0    0  501  502  0.00000000000E+00 -0.00000000000E+00 -0.10567966339E+03  0.10567966339E+03  0.00000000000E+00 0.  1.
         23    2    1    2    0    0  0.47105820868E+02 -0.46515109164E+02  0.26828745360E+03  0.29236541798E+03  0.95481758113E+02 0.  0.
         23    2    1    2    0    0 -0.90658954383E+02  0.65504454639E+02  0.13110510665E+03  0.19381040258E+03  0.88679442772E+02 0.  0.
        -13    1    3    3    0    0  0.60202197066E+02  0.74140704268E+01  0.14359256281E+03  0.15587846890E+03  0.00000000000E+00 0.  1.
         13    1    3    3    0    0 -0.13096376198E+02 -0.53929179591E+02  0.12469489079E+03  0.13648694908E+03  0.00000000000E+00 0. -1.
        -13    1    4    4    0    0 -0.43391339868E+02 -0.40460898212E+01  0.73604999690E+01  0.44196789230E+02  0.00000000000E+00 0. -1.
         13    1    4    4    0    0 -0.47267614514E+02  0.69550544460E+02  0.12374460668E+03  0.14961361335E+03  0.00000000000E+00 0.  1.
         -1    1    1    2    0  502  0.43553133515E+02 -0.18989345475E+02 -0.53227421736E+02  0.71348644733E+02  0.00000000000E+00 0.  1.
<scales pt_clust_5="13000.00000" pt_clust_6="13000.00000" pt_clust_7="13000.00000" pt_clust_8="13000.00000" pt_clust_9="47.51285"></scales>
<clustering>
<clus scale="   47.513">  2  9  1 -1</clus>
<clus scale="   88.679">  7  8 -1 -1</clus>
<clus scale="   95.482">  5  6 -1 -1</clus>
<clus scale="  118.528">  2  7  1 -1</clus>
<clus scale="   47.513">  2  5  1 -1</clus>
</clustering>
</event>
<event>
 9    1  0.1445593E-005  0.1480696E+03  0.7546771E-02  0.1225087E+00
         -4   -1    0    0    0  501 -0.00000000000E+00  0.00000000000E+00  0.82524490175E+02  0.82524490175E+02  0.00000000000E+00 0.  1.
         21   -1    0    0  501  502  0.00000000000E+00 -0.00000000000E+00 -0.62456609628E+03  0.62456609628E+03  0.00000000000E+00 0.  1.
         23    2    1    2    0    0 -0.78794325820E+01  0.50461884786E+01  0.92690763936E+01  0.92881181843E+02  0.91942638027E+02 0.  0.
         23    2    1    2    0    0  0.12001332557E+03  0.49833396447E+01 -0.38396746095E+03  0.41252064640E+03  0.91182457998E+02 0.  0.
        -11    1    3    3    0    0 -0.18101729999E+02 -0.40221216265E+02 -0.48522107660E+01  0.44372996474E+02  0.00000000000E+00 0. -1.
         11    1    3    3    0    0  0.10222297417E+02  0.45267404744E+02  0.14121287160E+02  0.48508185369E+02  0.00000000000E+00 0.  1.
        -13    1    4    4    0    0  0.62496837070E+02 -0.42074597511E+02 -0.16784361841E+03  0.18397719054E+03  0.00000000000E+00 0. -1.
         13    1    4    4    0    0  0.57516488503E+02  0.47057937156E+02 -0.21612384255E+03  0.22854345586E+03  0.00000000000E+00 0.  1.
         -4    1    1    2    0  502 -0.11213389299E+03 -0.10029528123E+02 -0.16734322154E+03  0.20168875821E+03  0.00000000000E+00 0.  1.
<scales pt_clust_5="13000.00000" pt_clust_6="13000.00000" pt_clust_7="13000.00000" pt_clust_8="13000.00000" pt_clust_9="116.66347"></scales>
<clustering>
<clus scale="   91.182">  7  8 -1 -1</clus>
<clus scale="   91.943">  5  6 -1 -1</clus>
<clus scale="   92.418">  1  5  2 -1</clus>
<clus scale="  116.663">  2  9  1 -1</clus>
<clus scale="  116.663">  2  5  1 -1</clus>
</clustering>
</event>
<event>
 9    1  0.1445593E-005  0.1008736E+03  0.7546771E-02  0.1279453E+00
         21   -1    0    0  501  502  0.00000000000E+00  0.00000000000E+00  0.23142531198E+03  0.23142531198E+03  0.00000000000E+00 0.  1.
         -3   -1    0    0    0  501 -0.00000000000E+00 -0.00000000000E+00 -0.22107910900E+03  0.22107910900E+03  0.00000000000E+00 0.  1.
         23    2    1    2    0    0 -0.44099298257E+02 -0.20333213324E+02 -0.13468280516E+03  0.17010069832E+03  0.91850976545E+02 0.  0.
         23    2    1    2    0    0  0.30357890354E+02  0.19608268164E+01 -0.34896909313E+02  0.10102095984E+03  0.89788605617E+02 0.  0.
        -11    1    3    3    0    0  0.59549397383E+01 -0.30270661647E+02 -0.10838863891E+03  0.11269370572E+03  0.00000000000E+00 0. -1.
         11    1    3    3    0    0 -0.50054237996E+02  0.99374483230E+01 -0.26294166246E+02  0.57406992598E+02  0.00000000000E+00 0.  1.
        -13    1    4    4    0    0  0.22705353480E+02 -0.34940610438E+02 -0.45671443624E+02  0.61824429614E+02  0.00000000000E+00 0. -1.
         13    1    4    4    0    0  0.76525368739E+01  0.36901437254E+02  0.10774534311E+02  0.39196530225E+02  0.00000000000E+00 0.  1.
         -3    1    1    2    0  502  0.13741407904E+02  0.18372386508E+02  0.17992591745E+03  0.18138276282E+03  0.00000000000E+00 0.  1.
<scales pt_clust_5="13000.00000" pt_clust_6="13000.00000" pt_clust_7="13000.00000" pt_clust_8="13000.00000" pt_clust_9="22.94277"></scales>
<clustering>
<clus scale="   22.943">  1  9  2 -1</clus>
<clus scale="   89.789">  7  8 -1 -1</clus>
<clus scale="   91.851">  5  6 -1 -1</clus>
<clus scale="   98.999">  1  7  2 -1</clus>
<clus scale="   22.943">  1  5  2 -1</clus>
</clustering>
</event>
<event>
 9    1  0.1445593E-005  0.1001820E+03  0.7546771E-02  0.1281002E+00
          2   -1    0    0  502    0 -0.00000000000E+00  0.00000000000E+00  0.30438134549E+03  0.30438134549E+03  0.00000000000E+00 0. -1.
         21   -1    0    0  501  502  0.00000000000E+00 -0.00000000000E+00 -0.16470637147E+03  0.16470637147E+03  0.00000000000E+00 0. -1.
         23    2    1    2    0    0 -0.90310391980E+00  0.43277814747E+02  0.18608445821E+03  0.21246649726E+03  0.92955914411E+02 0.  0.
         23    2    1    2    0    0 -0.48438299013E+02  0.65725865986E+01  0.64870023576E+02  0.12508124324E+03  0.95119555009E+02 0.  0.
        -11    1    4    4    0    0  0.22278537385E+02 -0.97668411746E+01 -0.44353743117E+01  0.24726442522E+02  0.00000000000E+00 0. -1.
         11    1    4    4    0    0 -0.70716836398E+02  0.16339427773E+02  0.69305397888E+02  0.10035480071E+03  0.00000000000E+00 0.  1.
        -13    1    3    3    0    0 -0.26393497588E+02  0.35130094402E+02  0.27933644282E+02  0.52067540085E+02  0.00000000000E+00 0.  1.
         13    1    3    3    0    0  0.25490393668E+02  0.81477203452E+01  0.15815081393E+03  0.16039895717E+03  0.00000000000E+00 0. -1.
          2    1    1    2  501    0  0.49341402933E+02 -0.49850401346E+02 -0.11127950777E+03  0.13153997646E+03  0.00000000000E+00 0. -1.
<scales pt_clust_5="13000.00000" pt_clust_6="13000.00000" pt_clust_7="13000.00000" pt_clust_8="13000.00000" pt_clust_9="70.14012"></scales>
<clustering>
<clus scale="   70.140">  2  9  1 -1</clus>
<clus scale="   92.956">  7  8 -1 -1</clus>
<clus scale="   95.120">  5  6 -1 -1</clus>
<clus scale="   98.130">  1  7  2 -1</clus>
<clus scale="   70.140">  2  5  1 -1</clus>
</clustering>
</event>
<event>
 9    1  0.1445593E-005  0.9610489E+02  0.7546771E-02  0.1289959E+00
         21   -1    0    0  501  502  0.00000000000E+00  0.00000000000E+00  0.64967349069E+02  0.64967349069E+02  0.00000000000E+00 0. -1.
          2   -1    0    0  502    0 -0.00000000000E+00 -0.00000000000E+00 -0.28945600634E+03  0.28945600634E+03  0.00000000000E+00 0. -1.
         23    2    1    2    0    0 -0.91021100350E+01 -0.32399044002E+02 -0.16375207667E+03  0.19041631805E+03  0.91165152931E+02 0.  0.
         23    2    1    2    0    0  0.24444022952E+02 -0.12684878559E+02 -0.63508260939E+02  0.11630361424E+03  0.93460232583E+02 0.  0.
        -11    1    3    3    0    0  0.33799466243E+02 -0.19683031400E+02 -0.12580804830E+03  0.13174782981E+03  0.00000000000E+00 0.  1.
         11    1    3    3    0    0 -0.42901576278E+02 -0.12716012603E+02 -0.37944028366E+02  0.58668488240E+02  0.00000000000E+00 0. -1.
        -11    1    4    4    0    0 -0.21170136147E+02  0.25216710518E+02 -0.55680536156E+01  0.33392519745E+02  0.00000000000E+00 0.  1.
         11    1    4    4    0    0  0.45614159099E+02 -0.37901589077E+02 -0.57940207323E+02  0.82911094491E+02  0.00000000000E+00 0. -1.
          2    1    1    2  501    0 -0.15341912917E+02  0.45083922562E+02  0.27716803354E+01  0.47703423120E+02  0.00000000000E+00 0. -1.
<scales pt_clust_5="13000.00000" pt_clust_6="13000.00000" pt_clust_7="13000.00000" pt_clust_8="13000.00000" pt_clust_9="47.62283"></scales>
<clustering>
<clus scale="   47.623">  1  9  2 -1</clus>
<clus scale="   91.165">  5  6 -1 -1</clus>
<clus scale="   93.460">  7  8 -1 -1</clus>
<clus scale="   93.874">  2  5  1 -1</clus>
<clus scale="   47.623">  1  5  2 -1</clus>
</clustering>
</event>
<event>
 9    1  0.1445593E-005  0.2950358E+03  0.7546771E-02  0.1087787E+00
         -1   -1    0    0    0  501 -0.00000000000E+00  0.00000000000E+00  0.11240640199E+04  0.11240640199E+04  0.00000000000E+00 0.  1.
         21   -1    0    0  501  502  0.00000000000E+00 -0.00000000000E+00 -0.16610251550E+03  0.16610251550E+03  0.00000000000E+00 0.  1.
         23    2    1    2    0    0 -0.21966937859E+03 -0.12267498339E+03  0.54819955396E+03  0.61018250020E+03  0.92174536329E+02 0.  0.
         23    2    1    2    0    0  0.31605781737E+03  0.11838233161E+03  0.45468619827E+03  0.57355402986E+03  0.91201786754E+02 0.  0.
        -11    1    4    4    0    0  0.28791789059E+03  0.12603632521E+03  0.44048377800E+03  0.54111720142E+03  0.00000000000E+00 0.  1.
         11    1    4    4    0    0  0.28139926786E+02 -0.76539935990E+01  0.14202420275E+02  0.32436828440E+02  0.00000000000E+00 0. -1.
        -11    1    3    3    0    0 -0.70279456275E+02 -0.90912167263E+02  0.25012752860E+03  0.27525988573E+03  0.00000000000E+00 0.  1.
         11    1    3    3    0    0 -0.14938992232E+03 -0.31762816124E+02  0.29807202536E+03  0.33492261447E+03  0.00000000000E+00 0. -1.
         -1    1    1    2    0  502 -0.96388438781E+02  0.42926517737E+01 -0.44924247848E+02  0.10643000533E+03  0.00000000000E+00 0.  1.
<scales pt_clust_5="13000.00000" pt_clust_6="13000.00000" pt_clust_7="13000.00000" pt_clust_8="13000.00000" pt_clust_9="96.48398"></scales>
<clustering>
<clus scale="   91.202">  5  6 -1 -1</clus>
<clus scale="   92.175">  7  8 -1 -1</clus>
<clus scale="   96.484">  2  9  1 -1</clus>
<clus scale="  294.733">  2  5  1 -1</clus>
<clus scale="   96.484">  2  5  1 -1</clus>
</clustering>
</event>
<event>
 9    1  0.1445593E-005  0.9955690E+02  0.7546771E-02  0.1282876E+00
          2   -1    0    0  502    0 -0.00000000000E+00  0.00000000000E+00  0.21458513894E+03  0.21458513894E+03  0.00000000000E+00 0. -1.
         21   -1    0    0  501  502  0.00000000000E+00 -0.00000000000E+00 -0.18259555110E+03  0.18259555110E+03  0.00000000000E+00 0. -1.
         23    2    1    2    0    0  0.56302084620E+01 -0.21738358398E+02  0.97950288697E+02  0.13779284839E+03  0.94278070300E+02 0.  0.
         23    2    1    2    0    0 -0.11234373841E+02  0.43420897909E+02  0.68908149774E+02  0.12267227537E+03  0.91041575715E+02 0.  0.
        -13    1    4    4    0    0  0.32494681141E+02 -0.23193999423E+01  0.54050682890E+01  0.33022699492E+02  0.00000000000E+00 0.  1.
         13    1    4    4    0    0 -0.43729054982E+02  0.45740297851E+02  0.63503081485E+02  0.89649575879E+02  0.00000000000E+00 0. -1.
        -13    1    3    3    0    0  0.29730563757E+02 -0.41480526810E+02  0.21761672751E+02  0.55480725722E+02  0.00000000000E+00 0.  1.
         13    1    3    3    0    0 -0.24100355295E+02  0.19742168412E+02  0.76188615946E+02  0.82312122672E+02  0.00000000000E+00 0. -1.
          2    1    1    2  501    0  0.56041653789E+01 -0.21682539511E+02 -0.13486885064E+03  0.13671556627E+03  0.00000000000E+00 0. -1.
<scales pt_clust_5="13000.00000" pt_clust_6="13000.00000" pt_clust_7="13000.00000" pt_clust_8="13000.00000" pt_clust_9="22.39507"></scales>
<clustering>
<clus scale="   22.395">  2  9  1 -1</clus>
<clus scale="   91.042">  5  6 -1 -1</clus>
<clus scale="   94.278">  7  8 -1 -1</clus>
<clus scale="   96.498">  2  5  1 -1</clus>
<clus scale="   22.395">  2  5  1 -1</clus>
</clustering>
</event>
<event>
 9    1  0.1445593E-005  0.9368056E+02  0.7546771E-02  0.1294651E+00
         -3   -1    0    0    0  501 -0.00000000000E+00  0.00000000000E+00  0.99653236121E+02  0.99653236121E+02  0.00000000000E+00 0.  1.
         21   -1    0    0  501  502  0.00000000000E+00 -0.00000000000E+00 -0.17568849817E+03  0.17568849817E+03  0.00000000000E+00 0.  1.
         23    2    1    2    0    0 -0.23588143446E+02 -0.31039025359E+02  0.17580773924E+02  0.99170063270E+02  0.89475115147E+02 0.  0.
         23    2    1    2    0    0 -0.11837063049E+02  0.11718785096E+02 -0.22758868389E+02  0.94630545586E+02  0.90330106177E+02 0.  0.
        -11    1    3    3    0    0 -0.47251681484E+02 -0.47777580042E+02  0.19929180572E+02  0.70089876559E+02  0.00000000000E+00 0.  1.
         11    1    3    3    0    0  0.23663538038E+02  0.16738554683E+02 -0.23484066478E+01  0.29080186711E+02  0.00000000000E+00 0. -1.
        -13    1    4    4    0    0  0.32676377072E+02 -0.18787365690E+02 -0.12416729900E+02  0.39684832235E+02  0.00000000000E+00 0. -1.
         13    1    4    4    0    0 -0.44513440121E+02  0.30506150786E+02 -0.10342138489E+02  0.54945713351E+02  0.00000000000E+00 0.  1.
         -3    1    1    2    0  502  0.35425206495E+02  0.19320240263E+02 -0.70857167586E+02  0.81541125436E+02  0.00000000000E+00 0.  1.
<scales pt_clust_5="13000.00000" pt_clust_6="13000.00000" pt_clust_7="13000.00000" pt_clust_8="13000.00000" pt_clust_9="40.35117"></scales>
<clustering>
<clus scale="   40.351">  2  9  1 -1</clus>
<clus scale="   89.475">  5  6 -1 -1</clus>
<clus scale="   90.330">  7  8 -1 -1</clus>
<clus scale="   92.856">  1  5  2 -1</clus>
<clus scale="   40.351">  2  5  1 -1</clus>
</clustering>
</event>
<event>
 9    1  0.1445593E-005  0.1147564E+03  0.7546771E-02  0.1254287E+00
         21   -1    0    0  501  502  0.00000000000E+00  0.00000000000E+00  0.10589455549E+03  0.10589455549E+03  0.00000000000E+00 0. -1.
          2   -1    0    0  502    0 -0.00000000000E+00 -0.00000000000E+00 -0.28727624854E+03  0.28727624854E+03  0.00000000000E+00 0. -1.
         23    2    1    2    0    0  0.63153977433E+02 -0.71962259226E+02 -0.12281175481E+03  0.18299087392E+03  0.96103804289E+02 0.  0.
         23    2    1    2    0    0 -0.45192004356E+02 -0.24583330653E+02 -0.31183015226E+02  0.10823030061E+03  0.89970884894E+02 0.  0.
        -11    1    3    3    0    0  0.18646495443E+02  0.13184979204E+02  0.47185290017E+01  0.23319519396E+02  0.00000000000E+00 0.  1.
         11    1    3    3    0    0  0.44507481990E+02 -0.85147238430E+02 -0.12753028381E+03  0.15967135452E+03  0.00000000000E+00 0. -1.
        -11    1    4    4    0    0 -0.22206001950E+01  0.31676702262E+02 -0.25200942011E+01  0.31854283954E+02  0.00000000000E+00 0.  1.
         11    1    4    4    0    0 -0.42971404161E+02 -0.56260032915E+02 -0.28662921025E+02  0.76376016660E+02  0.00000000000E+00 0. -1.
          2    1    1    2  501    0 -0.17961973076E+02  0.96545589878E+02 -0.27386923018E+02  0.10194962949E+03  0.00000000000E+00 0. -1.
<scales pt_clust_5="13000.00000" pt_clust_6="13000.00000" pt_clust_7="13000.00000" pt_clust_8="13000.00000" pt_clust_9="98.20226"></scales>
<clustering>
<clus scale="   89.971">  7  8 -1 -1</clus>
<clus scale="   96.104">  5  6 -1 -1</clus>
<clus scale="   98.202">  1  9  2 -1</clus>
<clus scale="  109.672">  1  7  2 -1</clus>
<clus scale="   98.202">  1  5  2 -1</clus>
</clustering>
</event>
<event>
 9    1  0.1445593E-005  0.9861097E+02  0.7546771E-02  0.1284849E+00
          1   -1    0    0  502    0 -0.00000000000E+00  0.00000000000E+00  0.31165306601E+03  0.31165306601E+03  0.00000000000E+00 0. -1.
         21   -1    0    0  501  502  0.00000000000E+00 -0.00000000000E+00 -0.57792587821E+02  0.57792587821E+02  0.00000000000E+00 0. -1.
         23    2    1    2    0    0  0.33223689376E+02 -0.30677651864E+02  0.14983214607E+03  0.18219187432E+03  0.93269905179E+02 0.  0.
         23    2    1    2    0    0 -0.23359153191E+02 -0.49511590525E+00  0.11915330003E+03  0.15122857751E+03  0.90148092447E+02 0.  0.
        -11    1    4    4    0    0  0.21396191227E+02  0.24580263774E+02  0.80955799902E+02  0.87268710911E+02  0.00000000000E+00 0. -1.
         11    1    4    4    0    0 -0.44755344418E+02 -0.25075379680E+02  0.38197500125E+02  0.63959866603E+02  0.00000000000E+00 0.  1.
        -13    1    3    3    0    0 -0.22016574767E+02 -0.34209372218E+02  0.31156347345E+02  0.51241864641E+02  0.00000000000E+00 0.  1.
         13    1    3    3    0    0  0.55240264143E+02  0.35317203543E+01  0.11867579873E+03  0.13095000968E+03  0.00000000000E+00 0. -1.
          1    1    1    2  501    0 -0.98645361849E+01  0.31172767769E+02 -0.15124967912E+02  0.36025201996E+02  0.00000000000E+00 0. -1.
<scales pt_clust_5="13000.00000" pt_clust_6="13000.00000" pt_clust_7="13000.00000" pt_clust_8="13000.00000" pt_clust_9="32.69634"></scales>
<clustering>
<clus scale="   32.696">  2  9  1 -1</clus>
<clus scale="   90.148">  5  6 -1 -1</clus>
<clus scale="   93.270">  7  8 -1 -1</clus>
<clus scale="   95.664">  2  5  1 -1</clus>
<clus scale="   32.696">  2  5  1 -1</clus>
</clustering>
</event>
<event>
 9    1  0.1445593E-005  0.1420652E+03  0.7546771E-02  0.1210635E+00
          1   -1    0    0  502    0 -0.00000000000E+00  0.00000000000E+00  0.71917573184E+03  0.71917573184E+03  0.00000000000E+00 0. -1.
         21   -1    0    0  501  502  0.00000000000E+00 -0.00000000000E+00 -0.17807296941E+03  0.17807296941E+03  0.00000000000E+00 0. -1.
         23    2    1    2    0    0 -0.60521516904E+02 -0.77782626090E+02  0.41491824771E+03  0.43600409396E+03  0.90716187853E+02 0.  0.
         23    2    1    2    0    0  0.31836481623E+02  0.14005657578E+03  0.26022544039E+03  0.31068616079E+03  0.90438955645E+02 0.  0.
        -13    1    4    4    0    0  0.54384459508E+02  0.55572874609E+02  0.87279574615E+02  0.11689199277E+03  0.00000000000E+00 0.  1.
         13    1    4    4    0    0 -0.22547977885E+02  0.84483701173E+02  0.17294586577E+03  0.19379416802E+03  0.00000000000E+00 0. -1.
        -13    1    3    3    0    0 -0.50527679741E+02 -0.16780361741E+02  0.30745096352E+03  0.31202679681E+03  0.00000000000E+00 0. -1.
         13    1    3    3    0    0 -0.99938371631E+01 -0.61002264349E+02  0.10746728419E+03  0.12397729715E+03  0.00000000000E+00 0.  1.
          1    1    1    2  501    0  0.28685035281E+02 -0.62273949691E+02 -0.13404092566E+03  0.15055844650E+03  0.00000000000E+00 0. -1.
<scales pt_clust_5="13000.00000" pt_clust_6="13000.00000" pt_clust_7="13000.00000" pt_clust_8="13000.00000" pt_clust_9="68.56294"></scales>
<clustering>
<clus scale="   68.563">  2  9  1 -1</clus>
<clus scale="   90.439">  5  6 -1 -1</clus>
<clus scale="   90.716">  7  8 -1 -1</clus>
<clus scale="  141.888">  2  5  1 -1</clus>
<clus scale="   68.563">  2  5  1 -1</clus>
</clustering>
</event>
<event>
 9    1  0.1445593E-005  0.1057174E+03  0.7546771E-02  0.1269897E+00
         21   -1    0    0  501  502  0.00000000000E+00  0.00000000000E+00  0.17157894651E+03  0.17157894651E+03  0.00000000000E+00 0. -1.
         -3   -1    0    0    0  501 -0.00000000000E+00 -0.00000000000E+00 -0.16620360602E+03  0.16620360602E+03  0.00000000000E+00 0.  1.
         23    2    1    2    0    0  0.49943215476E+02  0.78758410021E+01 -0.11558981047E+03  0.15644555758E+03  0.92508672881E+02 0.  0.
         23    2    1    2    0    0 -0.50446200057E+02 -0.30684139210E+02  0.11576426835E+03  0.15793783599E+03  0.89758892092E+02 0.  0.
        -11    1    3    3    0    0 -0.25289037001E+02  0.61616192621E+01 -0.51072734346E+02  0.57322989611E+02  0.00000000000E+00 0. -1.
         11    1    3    3    0    0  0.75232252477E+02  0.17142217400E+01 -0.64517076120E+02  0.99122567965E+02  0.00000000000E+00 0.  1.
        -13    1    4    4    0    0  0.19604504546E+01  0.23097208043E+02  0.43575890383E+01  0.23586287703E+02  0.00000000000E+00 0.  1.
         13    1    4    4    0    0 -0.52406650512E+02 -0.53781347254E+02  0.11140667932E+03  0.13435154828E+03  0.00000000000E+00 0. -1.
         -3    1    1    2    0  502  0.50298458071E+00  0.22808298208E+02  0.52008826049E+01  0.23399158970E+02  0.00000000000E+00 0.  1.
<scales pt_clust_5="13000.00000" pt_clust_6="13000.00000" pt_clust_7="13000.00000" pt_clust_8="13000.00000" pt_clust_9="22.81384"></scales>
<clustering>
<clus scale="   22.814">  1  9  2 -1</clus>
<clus scale="   89.759">  7  8 -1 -1</clus>
<clus scale="   92.509">  5  6 -1 -1</clus>
<clus scale="  103.320">  1  7  2 -1</clus>
<clus scale="   22.814">  1  5  2 -1</clus>
</clustering>
</event>
<event>
 9    1  0.1445593E-005  0.9844418E+02  0.7546771E-02  0.1288839E+00
         21   -1    0    0  501  502  0.00000000000E+00  0.00000000000E+00  0.15965017668E+03  0.15965017668E+03  0.00000000000E+00 0.  1.
         -1   -1    0    0    0  501 -0.00000000000E+00 -0.00000000000E+00 -0.29905706240E+03  0.29905706240E+03  0.00000000000E+00 0.  1.
         23    2    1    2    0    0 -0.18243258817E+02  0.28927997918E+02 -0.25503448815E+03  0.27060343278E+03  0.83749520166E+02 0.  0.
         23    2    1    2    0    0 -0.96226010726E+00 -0.14220911821E+01  0.33472430980E+02  0.99363178295E+02  0.93539773772E+02 0.  0.
        -11    1    3    3    0    0 -0.33692741333E+02  0.52344526813E+02 -0.16821728324E+03  0.17936611912E+03  0.00000000000E+00 0.  1.
         11    1    3    3    0    0  0.15449482516E+02 -0.23416528895E+02 -0.86817204913E+02  0.91237313663E+02  0.00000000000E+00 0. -1.
        -13    1    4    4    0    0  0.32569020555E+02  0.47271459592E+00 -0.18518131906E+02  0.37468463650E+02  0.00000000000E+00 0. -1.
         13    1    4    4    0    0 -0.33531280663E+02 -0.18948057780E+01  0.51990562886E+02  0.61894714645E+02  0.00000000000E+00 0.  1.
         -1    1    1    2    0  502  0.19205518925E+02 -0.27505906736E+02  0.82155171456E+02  0.88740628009E+02  0.00000000000E+00 0.  1.
<scales pt_clust_5="13000.00000" pt_clust_6="13000.00000" pt_clust_7="13000.00000" pt_clust_8="13000.00000" pt_clust_9="33.54738"></scales>
<clustering>
<clus scale="   33.547">  1  9  2 -1</clus>
<clus scale="   83.750">  5  6 -1 -1</clus>
<clus scale="   89.194">  2  5  1 -1</clus>
<clus scale="   93.540">  7  8 -1 -1</clus>
<clus scale="   33.547">  1  5  2 -1</clus>
</clustering>
</event>
<event>
 9    1  0.1445593E-005  0.1563667E+03  0.7546771E-02  0.1193370E+00
         21   -1    0    0  501  502  0.00000000000E+00  0.00000000000E+00  0.79891422613E+03  0.79891422613E+03  0.00000000000E+00 0.  1.
          3   -1    0    0  502    0 -0.00000000000E+00 -0.00000000000E+00 -0.10776463315E+03  0.10776463315E+03  0.00000000000E+00 0. -1.
         23    2    1    2    0    0 -0.25838451761E+02 -0.12474089433E+03 -0.35001304950E+02  0.15956344146E+03  0.89484547243E+02 0.  0.
         23    2    1    2    0    0  0.44265827963E+02  0.10713679412E+03  0.57385997482E+03  0.59270687595E+03  0.92457633114E+02 0.  0.
        -11    1    4    4    0    0 -0.18637972417E+02  0.59033923186E+02  0.34560673040E+03  0.35110737702E+03  0.00000000000E+00 0. -1.
         11    1    4    4    0    0  0.62903800380E+02  0.48102870934E+02  0.22825324442E+03  0.24159949893E+03  0.00000000000E+00 0.  1.
        -13    1    3    3    0    0 -0.36723248907E+01 -0.12659791427E+03 -0.46003652837E+02  0.13474737081E+03  0.00000000000E+00 0. -1.
         13    1    3    3    0    0 -0.22166126870E+02  0.18570199350E+01  0.11002347887E+02  0.24816070650E+02  0.00000000000E+00 0.  1.
          3    1    1    2  501    0 -0.18427376202E+02  0.17604100211E+02  0.15229092311E+03  0.15440854186E+03  0.00000000000E+00 0. -1.
<scales pt_clust_5="13000.00000" pt_clust_6="13000.00000" pt_clust_7="13000.00000" pt_clust_8="13000.00000" pt_clust_9="25.48475"></scales>
<clustering>
<clus scale="   25.485">  1  9  2 -1</clus>
<clus scale="   89.485">  7  8 -1 -1</clus>
<clus scale="   92.458">  5  6 -1 -1</clus>
<clus scale="  154.627">  2  7  1 -1</clus>
<clus scale="   25.485">  1  5  2 -1</clus>
</clustering>
</event>
<event>
 9    1  0.1445593E-005  0.1034150E+03  0.7546771E-02  0.1274749E+00
          1   -1    0    0  502    0 -0.00000000000E+00  0.00000000000E+00  0.34164578900E+03  0.34164578900E+03  0.00000000000E+00 0. -1.
         21   -1    0    0  501  502  0.00000000000E+00 -0.00000000000E+00 -0.65055365750E+02  0.65055365750E+02  0.00000000000E+00 0.  1.
         23    2    1    2    0    0 -0.39768599070E+02 -0.34309234963E+02  0.24392381897E+03  0.26643846519E+03  0.93444963447E+02 0.  0.
         23    2    1    2    0    0  0.19332488044E+02 -0.18014946329E+01  0.96257461351E+01  0.92802173658E+02  0.90236345062E+02 0.  0.
        -11    1    3    3    0    0  0.14646733074E+02  0.19657509069E+02  0.27470135614E+02  0.36817832679E+02  0.00000000000E+00 0.  1.
         11    1    3    3    0    0 -0.54415332144E+02 -0.53966744033E+02  0.21645368336E+03  0.22962063251E+03  0.00000000000E+00 0. -1.
        -13    1    4    4    0    0  0.20824986696E+02 -0.36041225367E+02 -0.21194325006E+02  0.46710270919E+02  0.00000000000E+00 0.  1.
         13    1    4    4    0    0 -0.14924986524E+01  0.34239730734E+02  0.30820071141E+02  0.46091902739E+02  0.00000000000E+00 0. -1.
          1    1    1    2  501    0  0.20436111026E+02  0.36110729596E+02  0.23040858139E+02  0.47460515901E+02  0.00000000000E+00 0. -1.
<scales pt_clust_5="13000.00000" pt_clust_6="13000.00000" pt_clust_7="13000.00000" pt_clust_8="13000.00000" pt_clust_9="41.49240"></scales>
<clustering>
<clus scale="   41.492">  2  9  1 -1</clus>
<clus scale="   90.236">  7  8 -1 -1</clus>
<clus scale="   93.445">  5  6 -1 -1</clus>
<clus scale="  100.525">  2  7  1 -1</clus>
<clus scale="   41.492">  2  5  1 -1</clus>
</clustering>
</event>
<event>
 9    1  0.1445593E-005  0.1076335E+03  0.7546771E-02  0.1271685E+00
         21   -1    0    0  501  502  0.00000000000E+00  0.00000000000E+00  0.38927746335E+02  0.38927746335E+02  0.00000000000E+00 0.  1.
          1   -1    0    0  502    0 -0.00000000000E+00 -0.00000000000E+00 -0.62776208593E+03  0.62776208593E+03  0.00000000000E+00 0. -1.
         23    2    1    2    0    0  0.41849364163E+02  0.19054412504E+01 -0.36997662711E+03  0.38716439691E+03  0.10610638833E+03 0.  0.
         23    2    1    2    0    0  0.11234275182E+02 -0.60923294805E+01 -0.20360464996E+03  0.22413537563E+03  0.92835810480E+02 0.  0.
        -13    1    4    4    0    0  0.45107032112E+02 -0.26082792136E+02 -0.13965324939E+03  0.14905699063E+03  0.00000000000E+00 0.  1.
         13    1    4    4    0    0 -0.33872756930E+02  0.19990462655E+02 -0.63951400570E+02  0.75078385000E+02  0.00000000000E+00 0. -1.
        -13    1    3    3    0    0 -0.30042834548E+01 -0.45284723201E+02 -0.20145016640E+03  0.20649915597E+03  0.00000000000E+00 0. -1.
         13    1    3    3    0    0  0.44853647618E+02  0.47190164451E+02 -0.16852646070E+03  0.18066524094E+03  0.00000000000E+00 0.  1.
          1    1    1    2  501    0 -0.53083639345E+02  0.41868882302E+01 -0.15253062527E+02  0.55390059718E+02  0.00000000000E+00 0. -1.
<scales pt_clust_5="13000.00000" pt_clust_6="13000.00000" pt_clust_7="13000.00000" pt_clust_8="13000.00000" pt_clust_9="53.24850"></scales>
<clustering>
<clus scale="   53.249">  1  9  2 -1</clus>
<clus scale="   92.836">  5  6 -1 -1</clus>
<clus scale="   94.577">  1  5  2 -1</clus>
<clus scale="  106.106">  7  8 -1 -1</clus>
<clus scale="   53.249">  1  5  2 -1</clus>
</clustering>
</event>
<event>
 9    1  0.1445593E-005  0.9790530E+02  0.7546771E-02  0.1287563E+00
         21   -1    0    0  501  502  0.00000000000E+00  0.00000000000E+00  0.86218910723E+02  0.86218910723E+02  0.00000000000E+00 0.  1.
         -4   -1    0    0    0  501 -0.00000000000E+00 -0.00000000000E+00 -0.35984723884E+03  0.35984723884E+03  0.00000000000E+00 0.  1.
         23    2    1    2    0    0 -0.29020067045E+01 -0.30824788787E+00 -0.17871854744E+03  0.20326245855E+03  0.96782184299E+02 0.  0.
         23    2    1    2    0    0  0.28152479724E+02  0.12037875038E+01 -0.15236147526E+03  0.18004155602E+03  0.91689320719E+02 0.  0.
        -13    1    4    4    0    0  0.13103583639E+01 -0.40099766655E+02 -0.10194256646E+03  0.10955361784E+03  0.00000000000E+00 0.  1.
         13    1    4    4    0    0  0.26842121360E+02  0.41303554159E+02 -0.50418908792E+02  0.70487938181E+02  0.00000000000E+00 0. -1.
        -13    1    3    3    0    0 -0.42472500616E+02  0.22653078611E+01 -0.37905789808E+02  0.56972746373E+02  0.00000000000E+00 0.  1.
         13    1    3    3    0    0  0.39570493911E+02 -0.25735557489E+01 -0.14081275763E+03  0.14628971218E+03  0.00000000000E+00 0. -1.
         -4    1    1    2    0  502 -0.25250473020E+02 -0.89553961590E+00  0.57451694576E+02  0.62762134991E+02  0.00000000000E+00 0.  1.
<scales pt_clust_5="13000.00000" pt_clust_6="13000.00000" pt_clust_7="13000.00000" pt_clust_8="13000.00000" pt_clust_9="25.26635"></scales>
<clustering>
<clus scale="   25.266">  1  9  2 -1</clus>
<clus scale="   91.689">  5  6 -1 -1</clus>
<clus scale="   92.874">  1  5  2 -1</clus>
<clus scale="   96.782">  7  8 -1 -1</clus>
<clus scale="   25.266">  1  5  2 -1</clus>
</clustering>
</event>
<event>
 9    1  0.1445593E-005  0.1281687E+03  0.7546771E-02  0.1230899E+00
         21   -1    0    0  501  502  0.00000000000E+00  0.00000000000E+00  0.10864249375E+03  0.10864249375E+03  0.00000000000E+00 0.  1.
          1   -1    0    0  502    0 -0.00000000000E+00 -0.00000000000E+00 -0.19407309260E+03  0.19407309260E+03  0.00000000000E+00 0. -1.
         23    2    1    2    0    0 -0.72973988246E+02  0.37522759799E+02 -0.74773414496E+02  0.14457779708E+03  0.92620275477E+02 0.  0.
         23    2    1    2    0    0  0.95146803204E+02 -0.33736871028E+02 -0.94213594964E+01  0.13561016312E+03  0.90057002500E+02 0.  0.
        -11    1    4    4    0    0  0.45116123299E+02 -0.60269524082E+02  0.95443290568E+01  0.75887906360E+02  0.00000000000E+00 0.  1.
         11    1    4    4    0    0  0.50030679906E+02  0.26532653054E+02 -0.18965688553E+02  0.59722256758E+02  0.00000000000E+00 0. -1.
        -11    1    3    3    0    0  0.47948436138E+00 -0.24055446745E+02 -0.30902697982E+02  0.39164667315E+02  0.00000000000E+00 0.  1.
         11    1    3    3    0    0 -0.73453472608E+02  0.61578206543E+02 -0.43870716515E+02  0.10541312976E+03  0.00000000000E+00 0. -1.
          1    1    1    2  501    0 -0.22172814958E+02 -0.37858887704E+01 -0.12358248654E+01  0.22527626152E+02  0.00000000000E+00 0. -1.
<scales pt_clust_5="13000.00000" pt_clust_6="13000.00000" pt_clust_7="13000.00000" pt_clust_8="13000.00000" pt_clust_9="22.49370"></scales>
<clustering>
<clus scale="   22.494">  1  9  2 -1</clus>
<clus scale="   90.057">  5  6 -1 -1</clus>
<clus scale="   92.620">  7  8 -1 -1</clus>
<clus scale="  126.329">  1  5  2 -1</clus>
<clus scale="   22.494">  1  5  2 -1</clus>
</clustering>
</event>
<event>
 9    1  0.1445593E-005  0.1062741E+03  0.7546771E-02  0.1268482E+00
          2   -1    0    0  502    0 -0.00000000000E+00  0.00000000000E+00  0.31990219127E+03  0.31990219127E+03  0.00000000000E+00 0. -1.
         21   -1    0    0  501  502  0.00000000000E+00 -0.00000000000E+00 -0.11404290149E+03  0.11404290149E+03  0.00000000000E+00 0. -1.
         23    2    1    2    0    0  0.29048543641E+01 -0.26844673545E+02  0.14174811590E+03  0.17192849228E+03  0.93476218485E+02 0.  0.
         23    2    1    2    0    0 -0.52440248678E+01  0.11073374540E+03  0.95331829642E+02  0.17247567440E+03  0.91489006715E+02 0.  0.
        -11    1    4    4    0    0 -0.30982419364E+02  0.97507868249E+00  0.20819022326E+02  0.37340230030E+02  0.00000000000E+00 0.  1.
         11    1    4    4    0    0  0.25738394496E+02  0.10975866672E+03  0.74512807315E+02  0.13513544437E+03  0.00000000000E+00 0. -1.
        -11    1    3    3    0    0  0.37225617503E+02 -0.44585943348E+02  0.94136715880E+02  0.11061362583E+03  0.00000000000E+00 0.  1.
         11    1    3    3    0    0 -0.34320763139E+02  0.17741269803E+02  0.47611400017E+02  0.61314866454E+02  0.00000000000E+00 0. -1.
          2    1    1    2  501    0  0.23391705037E+01 -0.83889071859E+02 -0.31220655753E+02  0.89540926071E+02  0.00000000000E+00 0. -1.
<scales pt_clust_5="13000.00000" pt_clust_6="13000.00000" pt_clust_7="13000.00000" pt_clust_8="13000.00000" pt_clust_9="83.92168"></scales>
<clustering>
<clus scale="   83.922">  2  9  1 -1</clus>
<clus scale="   91.489">  5  6 -1 -1</clus>
<clus scale="   93.476">  7  8 -1 -1</clus>
<clus scale="  104.530">  2  5  1 -1</clus>
<clus scale="   83.922">  2  5  1 -1</clus>
</clustering>
</event>
<event>
 9    1  0.1445593E-005  0.1137854E+03  0.7546771E-02  0.1255169E+00
          3   -1    0    0  502    0 -0.00000000000E+00  0.00000000000E+00  0.26941926089E+03  0.26941926089E+03  0.00000000000E+00 0. -1.
         21   -1    0    0  501  502  0.00000000000E+00 -0.00000000000E+00 -0.14181609877E+03  0.14181609877E+03  0.00000000000E+00 0. -1.
         23    2    1    2    0    0  0.46178207512E+02  0.30892904310E+02  0.11499082089E+03  0.15482879047E+03  0.87534376583E+02 0.  0.
         23    2    1    2    0    0 -0.61600832118E+02 -0.60546424976E+02  0.10132839592E+03  0.16160294586E+03  0.91583493026E+02 0.  0.
        -13    1    3    3    0    0 -0.15870459928E+02 -0.17959117914E+02  0.19387445572E+02  0.30826522029E+02  0.00000000000E+00 0.  1.
         13    1    3    3    0    0  0.62048667441E+02  0.48852022223E+02  0.95603375314E+02  0.12400226844E+03  0.00000000000E+00 0. -1.
        -13    1    4    4    0    0 -0.21512563408E+02 -0.30571012823E+02 -0.10714721607E+02  0.38886790412E+02  0.00000000000E+00 0.  1.
         13    1    4    4    0    0 -0.40088268709E+02 -0.29975412154E+02  0.11204311753E+03  0.12271615545E+03  0.00000000000E+00 0. -1.
          3    1    1    2  501    0  0.15422624605E+02  0.29653520667E+02 -0.88716054693E+02  0.94803623338E+02  0.00000000000E+00 0. -1.
<scales pt_clust_5="13000.00000" pt_clust_6="13000.00000" pt_clust_7="13000.00000" pt_clust_8="13000.00000" pt_clust_9="33.42437"></scales>
<clustering>
<clus scale="   33.424">  2  9  1 -1</clus>
<clus scale="   87.534">  5  6 -1 -1</clus>
<clus scale="   91.583">  7  8 -1 -1</clus>
<clus scale="  110.553">  1  5  2 -1</clus>
<clus scale="   33.424">  2  5  1 -1</clus>
</clustering>
</event>
<event>
 9    1  0.1445593E-005  0.9856067E+02  0.7546771E-02  0.1287329E+00
          1   -1    0    0  502    0 -0.00000000000E+00  0.00000000000E+00  0.30198250541E+03  0.30198250541E+03  0.00000000000E+00 0. -1.
         21   -1    0    0  501  502  0.00000000000E+00 -0.00000000000E+00 -0.25183052932E+03  0.25183052932E+03  0.00000000000E+00 0. -1.
         23    2    1    2    0    0  0.15146176046E+02  0.23189497270E+02  0.20478532179E+03  0.22287370601E+03  0.83477550143E+02 0.  0.
         23    2    1    2    0    0 -0.46630726203E+02 -0.76296884403E+02  0.34224035380E+02  0.13224664678E+03  0.91226376626E+02 0.  0.
        -11    1    4    4    0    0 -0.49690572309E+02 -0.32667189572E+01  0.31853375910E+02  0.59113974541E+02  0.00000000000E+00 0. -1.
         11    1    4    4    0    0  0.30598461057E+01 -0.73030165446E+02  0.23706594694E+01  0.73132672244E+02  0.00000000000E+00 0.  1.
        -13    1    3    3    0    0 -0.15639147003E+02  0.46051915371E+02  0.13064214175E+03  0.13940133080E+03  0.00000000000E+00 0. -1.
         13    1    3    3    0    0  0.30785323049E+02 -0.22862418100E+02  0.74143180044E+02  0.83472375213E+02  0.00000000000E+00 0.  1.
          1    1    1    2  501    0  0.31484550157E+02  0.53107387133E+02 -0.18885738108E+03  0.19869268194E+03  0.00000000000E+00 0. -1.
<scales pt_clust_5="13000.00000" pt_clust_6="13000.00000" pt_clust_7="13000.00000" pt_clust_8="13000.00000" pt_clust_9="61.73874"></scales>
<clustering>
<clus scale="   61.739">  2  9  1 -1</clus>
<clus scale="   83.478">  7  8 -1 -1</clus>
<clus scale="   91.226">  5  6 -1 -1</clus>
<clus scale="   91.436">  1  7  2 -1</clus>
<clus scale="   61.739">  2  5  1 -1</clus>
</clustering>
</event>
<event>
 9    1  0.1445593E-005  0.9818162E+02  0.7546771E-02  0.1284241E+00
         21   -1    0    0  501  502  0.00000000000E+00  0.00000000000E+00  0.40309537749E+02  0.40309537749E+02  0.00000000000E+00 0. -1.
          1   -1    0    0  502    0 -0.00000000000E+00 -0.00000000000E+00 -0.30637601331E+03  0.30637601331E+03  0.00000000000E+00 0. -1.
         23    2    1    2    0    0  0.30453946844E+02 -0.14989157477E+02 -0.12332035228E+03  0.15688830392E+03  0.90851047873E+02 0.  0.
         23    2    1    2    0    0 -0.43124790871E+02 -0.30051987442E+01 -0.13020871883E+03  0.16446873249E+03  0.90702120702E+02 0.  0.
        -13    1    4    4    0    0 -0.12721020979E+02 -0.44780945996E+02 -0.44557775164E+02  0.64440304365E+02  0.00000000000E+00 0.  1.
         13    1    4    4    0    0 -0.30403769892E+02  0.41775747252E+02 -0.85650943662E+02  0.10002842812E+03  0.00000000000E+00 0. -1.
        -13    1    3    3    0    0  0.54986571284E+02 -0.13385043583E+02 -0.11921142472E+03  0.13196229082E+03  0.00000000000E+00 0. -1.
         13    1    3    3    0    0 -0.24532624440E+02 -0.16041138943E+01 -0.41089275526E+01  0.24926013097E+02  0.00000000000E+00 0.  1.
          1    1    1    2  501    0  0.12670844027E+02  0.17994356222E+02 -0.12537404455E+02  0.25328514656E+02  0.00000000000E+00 0. -1.
<scales pt_clust_5="13000.00000" pt_clust_6="13000.00000" pt_clust_7="13000.00000" pt_clust_8="13000.00000" pt_clust_9="22.00789"></scales>
<clustering>
<clus scale="   22.008">  1  9  2 -1</clus>
<clus scale="   90.702">  5  6 -1 -1</clus>
<clus scale="   90.851">  7  8 -1 -1</clus>
<clus scale="   98.044">  1  5  2 -1</clus>
<clus scale="   22.008">  1  5  2 -1</clus>
</clustering>
</event>
<event>
 9    1  0.1445593E-005  0.1092917E+03  0.7546771E-02  0.1262867E+00
          1   -1    0    0  502    0 -0.00000000000E+00  0.00000000000E+00  0.64386282927E+03  0.64386282927E+03  0.00000000000E+00 0. -1.
         21   -1    0    0  501  502  0.00000000000E+00 -0.00000000000E+00 -0.73285833121E+02  0.73285833121E+02  0.00000000000E+00 0. -1.
         23    2    1    2    0    0  0.46173396497E+02 -0.24811784405E+02  0.41173751191E+03  0.42467907910E+03  0.89871766000E+02 0.  0.
         23    2    1    2    0    0 -0.54754588733E+02  0.51148438383E+02  0.20595202336E+03  0.23781752436E+03  0.92340192924E+02 0.  0.
        -13    1    4    4    0    0  0.16904242550E+02  0.24196526853E+02  0.17277224190E+02  0.34201283655E+02  0.00000000000E+00 0.  1.
         13    1    4    4    0    0 -0.71658831283E+02  0.26951911530E+02  0.18867479917E+03  0.20361624070E+03  0.00000000000E+00 0. -1.
        -13    1    3    3    0    0 -0.80747558160E-02 -0.49215522151E+02  0.15295878775E+03  0.16068154355E+03  0.00000000000E+00 0.  1.
         13    1    3    3    0    0  0.46181471253E+02  0.24403737746E+02  0.25877872416E+03  0.26399753556E+03  0.00000000000E+00 0. -1.
          1    1    1    2  501    0  0.85811922365E+01 -0.26336653977E+02 -0.47112539121E+02  0.54652058930E+02  0.00000000000E+00 0. -1.
<scales pt_clust_5="13000.00000" pt_clust_6="13000.00000" pt_clust_7="13000.00000" pt_clust_8="13000.00000" pt_clust_9="27.69939"></scales>
<clustering>
<clus scale="   27.699">  2  9  1 -1</clus>
<clus scale="   89.872">  7  8 -1 -1</clus>
<clus scale="   92.340">  5  6 -1 -1</clus>
<clus scale="  107.214">  1  7  2 -1</clus>
<clus scale="   27.699">  2  5  1 -1</clus>
</clustering>
</event>
<event>
 9    1  0.1445593E-005  0.1131218E+03  0.7546771E-02  0.1255382E+00
         21   -1    0    0  501  502  0.00000000000E+00  0.00000000000E+00  0.11726358412E+03  0.11726358412E+03  0.00000000000E+00 0.  1.
          2   -1    0    0  502    0 -0.00000000000E+00 -0.00000000000E+00 -0.49149245063E+03  0.49149245063E+03  0.00000000000E+00 0. -1.
         23    2    1    2    0    0 -0.41936247130E+02 -0.47461007114E+02 -0.28055707284E+03  0.30165044162E+03  0.90936911063E+02 0.  0.
         23    2    1    2    0    0  0.26835589318E+02  0.66004428709E+02 -0.18170235407E+03  0.21588460917E+03  0.92269634974E+02 0.  0.
        -11    1    4    4    0    0  0.48670925391E+02  0.61548368545E+02 -0.81110614448E+02  0.11285385428E+03  0.00000000000E+00 0.  1.
         11    1    4    4    0    0 -0.21835336073E+02  0.44560601642E+01 -0.10059173962E+03  0.10303075489E+03  0.00000000000E+00 0. -1.
        -13    1    3    3    0    0 -0.33004811948E+02  0.53222859604E+01 -0.28377085654E+02  0.43850921652E+02  0.00000000000E+00 0.  1.
         13    1    3    3    0    0 -0.89314351828E+01 -0.52783293075E+02 -0.25217998718E+03  0.25779951997E+03  0.00000000000E+00 0. -1.
          2    1    1    2  501    0  0.15100657812E+02 -0.18543421595E+02  0.88030560398E+02  0.91220983961E+02  0.00000000000E+00 0. -1.
<scales pt_clust_5="13000.00000" pt_clust_6="13000.00000" pt_clust_7="13000.00000" pt_clust_8="13000.00000" pt_clust_9="23.91419"></scales>
<clustering>
<clus scale="   23.914">  1  9  2 -1</clus>
<clus scale="   90.937">  7  8 -1 -1</clus>
<clus scale="   92.270">  5  6 -1 -1</clus>
<clus scale="  112.037">  2  7  1 -1</clus>
<clus scale="   23.914">  1  5  2 -1</clus>
</clustering>
</event>
<event>
 9    1  0.1445593E-005  0.3037199E+03  0.7546771E-02  0.1093597E+00
         21   -1    0    0  501  502  0.00000000000E+00  0.00000000000E+00  0.41992757305E+03  0.41992757305E+03  0.00000000000E+00 0.  1.
         -4   -1    0    0    0  501 -0.00000000000E+00 -0.00000000000E+00 -0.68234107530E+03  0.68234107530E+03  0.00000000000E+00 0.  1.
         23    2    1    2    0    0  0.20184638652E+03  0.68167023784E+02 -0.72678675669E+02  0.24288095438E+03  0.91215465923E+02 0.  0.
         23    2    1    2    0    0 -0.45095863576E+03 -0.13104539976E+03 -0.31561020760E+03  0.57328419095E+03  0.92240839548E+02 0.  0.
        -11    1    4    4    0    0 -0.41676456677E+03 -0.10213419998E+03 -0.25936973244E+03  0.50139481153E+03  0.00000000000E+00 0.  1.
         11    1    4    4    0    0 -0.34194068994E+02 -0.28911199775E+02 -0.56240475166E+02  0.71889379423E+02  0.00000000000E+00 0. -1.
        -13    1    3    3    0    0  0.12083501781E+03 -0.57044263498E+01 -0.50162607139E+02  0.13095773809E+03  0.00000000000E+00 0. -1.
         13    1    3    3    0    0  0.81011368705E+02  0.73871450133E+02 -0.22516068530E+02  0.11192321630E+03  0.00000000000E+00 0.  1.
         -4    1    1    2    0  502  0.24911224925E+03  0.62878375975E+02  0.12587538102E+03  0.28610350301E+03  0.00000000000E+00 0.  1.
<scales pt_clust_5="13000.00000" pt_clust_6="13000.00000" pt_clust_7="13000.00000" pt_clust_8="13000.00000" pt_clust_9="289.37413"></scales>
<clustering>
<clus scale="   91.215">  7  8 -1 -1</clus>
<clus scale="   92.241">  5  6 -1 -1</clus>
<clus scale="  231.752">  2  7  1 -1</clus>
<clus scale="  289.374">  1  9  2 -1</clus>
<clus scale="  289.374">  1  5  2 -1</clus>
</clustering>
</event>
<event>
 9    1  0.1445593E-005  0.9490340E+02  0.7546771E-02  0.1291970E+00
          3   -1    0    0  502    0 -0.00000000000E+00  0.00000000000E+00  0.14257572880E+03  0.14257572880E+03  0.00000000000E+00 0. -1.
         21   -1    0    0  501  502  0.00000000000E+00 -0.00000000000E+00 -0.46364750507E+03  0.46364750507E+03  0.00000000000E+00 0. -1.
         23    2    1    2    0    0 -0.17113057065E+02  0.10256795473E+02  0.10462682367E+03  0.14065720681E+03  0.91867399130E+02 0.  0.
         23    2    1    2    0    0  0.38075870727E+02  0.58466470618E+02 -0.27865120480E+03  0.30190398724E+03  0.92905454393E+02 0.  0.
        -11    1    4    4    0    0  0.35178334184E+02  0.81763705122E+02 -0.24661510146E+03  0.26218662617E+03  0.00000000000E+00 0. -1.
         11    1    4    4    0    0  0.28975365433E+01 -0.23297234504E+02 -0.32036103341E+02  0.39717361076E+02  0.00000000000E+00 0.  1.
        -11    1    3    3    0    0  0.28299334232E+02 -0.22221137340E+02  0.56300110816E+02  0.66815669872E+02  0.00000000000E+00 0.  1.
         11    1    3    3    0    0 -0.45412391296E+02  0.32477932813E+02  0.48326712851E+02  0.73841536942E+02  0.00000000000E+00 0. -1.
          3    1    1    2  501    0 -0.20962813662E+02 -0.68723266091E+02 -0.14704739514E+03  0.16366203981E+03  0.00000000000E+00 0. -1.
<scales pt_clust_5="13000.00000" pt_clust_6="13000.00000" pt_clust_7="13000.00000" pt_clust_8="13000.00000" pt_clust_9="71.84933"></scales>
<clustering>
<clus scale="   71.849">  2  9  1 -1</clus>
<clus scale="   91.867">  7  8 -1 -1</clus>
<clus scale="   92.905">  5  6 -1 -1</clus>
<clus scale="   93.887">  1  7  2 -1</clus>
<clus scale="   71.849">  2  5  1 -1</clus>
</clustering>
</event>
<event>
 9    1  0.1445593E-005  0.1083840E+03  0.7546771E-02  0.1270665E+00
          2   -1    0    0  502    0 -0.00000000000E+00  0.00000000000E+00  0.79558621099E+02  0.79558621099E+02  0.00000000000E+00 0. -1.
         21   -1    0    0  501  502  0.00000000000E+00 -0.00000000000E+00 -0.19255481264E+03  0.19255481264E+03  0.00000000000E+00 0. -1.
         23    2    1    2    0    0 -0.66277308080E+02 -0.20482691354E+02 -0.21616668329E+02  0.10361344558E+03  0.73866389819E+02 0.  0.
         23    2    1    2    0    0  0.47995190914E+02 -0.47675023194E+01 -0.44465088694E+02  0.11217262132E+03  0.90990578808E+02 0.  0.
        -13    1    3    3    0    0 -0.47400352435E+02  0.13614211473E+02 -0.37062334675E+02  0.61690816306E+02  0.00000000000E+00 0.  1.
         13    1    3    3    0    0 -0.18876955644E+02 -0.34096902826E+02  0.15445666345E+02  0.41922629278E+02  0.00000000000E+00 0. -1.
        -13    1    4    4    0    0  0.33711572080E+02 -0.45849650541E+02 -0.12687678751E+02  0.58306412503E+02  0.00000000000E+00 0. -1.
         13    1    4    4    0    0  0.14283618833E+02  0.41082148222E+02 -0.31777409943E+02  0.53866208816E+02  0.00000000000E+00 0.  1.
          2    1    1    2  501    0  0.18282117166E+02  0.25250193673E+02 -0.46914434520E+02  0.56327366838E+02  0.00000000000E+00 0. -1.
<scales pt_clust_5="13000.00000" pt_clust_6="13000.00000" pt_clust_7="13000.00000" pt_clust_8="13000.00000" pt_clust_9="31.17384"></scales>
<clustering>
<clus scale="   31.174">  2  9  1 -1</clus>
<clus scale="   73.866">  5  6 -1 -1</clus>
<clus scale="   90.991">  7  8 -1 -1</clus>
<clus scale="   94.467">  1  5  2 -1</clus>
<clus scale="   31.174">  2  5  1 -1</clus>
</clustering>
</event>
<event>
 9    1  0.1445593E-005  0.9329119E+02  0.7546771E-02  0.1297261E+00
         21   -1    0    0  501  502  0.00000000000E+00  0.00000000000E+00  0.15261042441E+03  0.15261042441E+03  0.00000000000E+00 0.  1.
          1   -1    0    0  502    0 -0.00000000000E+00 -0.00000000000E+00 -0.10188023116E+03  0.10188023116E+03  0.00000000000E+00 0. -1.
         23    2    1    2    0    0 -0.13357312257E+02 -0.27744511212E+02  0.21878493168E+02  0.99726657390E+02  0.92296056458E+02 0.  0.
         23    2    1    2    0    0  0.11818077532E+02 -0.22509840785E+02  0.44227532975E+02  0.10218752649E+03  0.88542961368E+02 0.  0.
        -11    1    3    3    0    0 -0.38706444850E+02  0.11086118189E+02 -0.12322588300E+02  0.42106259296E+02  0.00000000000E+00 0. -1.
         11    1    3    3    0    0  0.25349132594E+02 -0.38830629401E+02  0.34201081468E+02  0.57620398094E+02  0.00000000000E+00 0.  1.
        -13    1    4    4    0    0 -0.37153072632E+02 -0.69519335016E+00  0.96448015494E+01  0.38390836103E+02  0.00000000000E+00 0.  1.
         13    1    4    4    0    0  0.48971150164E+02 -0.21814647435E+02  0.34582731425E+02  0.63796690384E+02  0.00000000000E+00 0. -1.
          1    1    1    2  501    0  0.15392347244E+01  0.50254351997E+02 -0.15375832892E+02  0.52576471689E+02  0.00000000000E+00 0. -1.
<scales pt_clust_5="13000.00000" pt_clust_6="13000.00000" pt_clust_7="13000.00000" pt_clust_8="13000.00000" pt_clust_9="50.27794"></scales>
<clustering>
<clus scale="   50.278">  1  9  2 -1</clus>
<clus scale="   88.543">  7  8 -1 -1</clus>
<clus scale="   89.580">  1  7  2 -1</clus>
<clus scale="   92.296">  5  6 -1 -1</clus>
<clus scale="   50.278">  1  5  2 -1</clus>
</clustering>
</event>
<event>
 9    1  0.1445593E-005  0.1531051E+03  0.7546771E-02  0.1197024E+00
         21   -1    0    0  501  502  0.00000000000E+00  0.00000000000E+00  0.15387227622E+03  0.15387227622E+03  0.00000000000E+00 0.  1.
          1   -1    0    0  502    0 -0.00000000000E+00 -0.00000000000E+00 -0.50452177792E+03  0.50452177792E+03  0.00000000000E+00 0. -1.
         23    2    1    2    0    0 -0.14433117971E+02 -0.11708760392E+03 -0.38896855966E+03  0.41721288010E+03  0.94086263783E+02 0.  0.
         23    2    1    2    0    0  0.17005034921E+02  0.14665199675E+03  0.78669395203E+02  0.19109307370E+03  0.92367254548E+02 0.  0.
        -11    1    3    3    0    0  0.32850556991E+02 -0.63482320921E+02 -0.12770752321E+03  0.14635018158E+03  0.00000000000E+00 0. -1.
         11    1    3    3    0    0 -0.47283674963E+02 -0.53605283000E+02 -0.26126103645E+03  0.27086269852E+03  0.00000000000E+00 0.  1.
        -13    1    4    4    0    0 -0.13295417870E+02  0.13476121176E+03  0.82104978754E+02  0.15836217941E+03  0.00000000000E+00 0.  1.
         13    1    4    4    0    0  0.30300452791E+02  0.11890784992E+02 -0.34355835516E+01  0.32730894296E+02  0.00000000000E+00 0. -1.
          1    1    1    2  501    0 -0.25719169492E+01 -0.29564392827E+02 -0.40350337242E+02  0.50088100339E+02  0.00000000000E+00 0. -1.
<scales pt_clust_5="13000.00000" pt_clust_6="13000.00000" pt_clust_7="13000.00000" pt_clust_8="13000.00000" pt_clust_9="29.67607"></scales>
<clustering>
<clus scale="   29.676">  1  9  2 -1</clus>
<clus scale="   92.367">  7  8 -1 -1</clus>
<clus scale="   94.086">  5  6 -1 -1</clus>
<clus scale="  152.055">  1  7  2 -1</clus>
<clus scale="   29.676">  1  5  2 -1</clus>
</clustering>
</event>
<event>
 9    1  0.1445593E-005  0.1004186E+03  0.7546771E-02  0.1282683E+00
         -1   -1    0    0    0  501 -0.00000000000E+00  0.00000000000E+00  0.43862470544E+02  0.43862470544E+02  0.00000000000E+00 0.  1.
         21   -1    0    0  501  502  0.00000000000E+00 -0.00000000000E+00 -0.31809330948E+03  0.31809330948E+03  0.00000000000E+00 0. -1.
         23    2    1    2    0    0  0.29421022968E+01 -0.31292100667E+02 -0.88365560090E+02  0.13612740017E+03  0.98662785978E+02 0.  0.
         23    2    1    2    0    0 -0.13863022771E+02 -0.15515386267E+01 -0.13161074192E+03  0.16147369142E+03  0.92508242662E+02 0.  0.
        -11    1    4    4    0    0 -0.25492706446E+02 -0.41285235388E+02 -0.48407312468E+02  0.68539161385E+02  0.00000000000E+00 0. -1.
         11    1    4    4    0    0  0.11629683676E+02  0.39733696761E+02 -0.83203429449E+02  0.92934530035E+02  0.00000000000E+00 0.  1.
        -11    1    3    3    0    0  0.19337918550E+02  0.20288729640E+02  0.47466353756E+01  0.28427419715E+02  0.00000000000E+00 0.  1.
         11    1    3    3    0    0 -0.16395816253E+02 -0.51580830307E+02 -0.93112195466E+02  0.10769998046E+03  0.00000000000E+00 0. -1.
         -1    1    1    2    0  502  0.10920920474E+02  0.32843639294E+02 -0.54254536927E+02  0.64354688432E+02  0.00000000000E+00 0.  1.
<scales pt_clust_5="13000.00000" pt_clust_6="13000.00000" pt_clust_7="13000.00000" pt_clust_8="13000.00000" pt_clust_9="34.61172"></scales>
<clustering>
<clus scale="   34.612">  2  9  1 -1</clus>
<clus scale="   92.508">  5  6 -1 -1</clus>
<clus scale="   94.379">  2  5  1 -1</clus>
<clus scale="   98.663">  7  8 -1 -1</clus>
<clus scale="   34.612">  2  5  1 -1</clus>
</clustering>
</event>
<event>
 9    1  0.1445593E-005  0.1183428E+03  0.7546771E-02  0.1246115E+00
         21   -1    0    0  501  502  0.00000000000E+00  0.00000000000E+00  0.66489219118E+02  0.66489219118E+02  0.00000000000E+00 0.  1.
          1   -1    0    0  502    0 -0.00000000000E+00 -0.00000000000E+00 -0.36929369353E+03  0.36929369353E+03  0.00000000000E+00 0. -1.
         23    2    1    2    0    0 -0.85356940802E+02  0.33783144427E+02 -0.13698936178E+03  0.18811182797E+03  0.90514454036E+02 0.  0.
         23    2    1    2    0    0  0.45356722933E+02 -0.29072845247E+02 -0.34292620567E+02  0.11011974784E+03  0.89710157693E+02 0.  0.
        -11    1    4    4    0    0 -0.90000579556E+01 -0.18642688725E+02  0.22667123165E+02  0.30697709340E+02  0.00000000000E+00 0.  1.
         11    1    4    4    0    0  0.54356780889E+02 -0.10430156522E+02 -0.56959743733E+02  0.79422038502E+02  0.00000000000E+00 0. -1.
        -11    1    3    3    0    0 -0.55704286007E+02  0.65125815328E+02 -0.88110918353E+02  0.12291408884E+03  0.00000000000E+00 0.  1.
         11    1    3    3    0    0 -0.29652654795E+02 -0.31342670902E+02 -0.48878443427E+02  0.65197739128E+02  0.00000000000E+00 0. -1.
          1    1    1    2  501    0  0.40000217868E+02 -0.47102991791E+01 -0.13152249206E+03  0.13755133684E+03  0.00000000000E+00 0. -1.
<scales pt_clust_5="13000.00000" pt_clust_6="13000.00000" pt_clust_7="13000.00000" pt_clust_8="13000.00000" pt_clust_9="40.27662"></scales>
<clustering>
<clus scale="   40.277">  1  9  2 -1</clus>
<clus scale="   89.710">  5  6 -1 -1</clus>
<clus scale="   90.514">  7  8 -1 -1</clus>
<clus scale="  117.729">  1  5  2 -1</clus>
<clus scale="   40.277">  1  5  2 -1</clus>
</clustering>
</event>
<event>
 9    1  0.1445593E-005  0.2118611E+03  0.7546771E-02  0.1141033E+00
         21   -1    0    0  501  502  0.00000000000E+00  0.00000000000E+00  0.45747852647E+02  0.45747852647E+02  0.00000000000E+00 0. -1.
          2   -1    0    0  502    0 -0.00000000000E+00 -0.00000000000E+00 -0.12032791255E+04  0.12032791255E+04  0.00000000000E+00 0. -1.
         23    2    1    2    0    0 -0.10872100023E+03  0.16293677439E+03 -0.79046308704E+03  0.81944450672E+03  0.91042623434E+02 0.  0.
         23    2    1    2    0    0  0.87959205102E+02 -0.16088179733E+03 -0.34810010210E+03  0.40138560516E+03  0.79479232979E+02 0.  0.
        -11    1    4    4    0    0  0.50483878610E+01 -0.87441130408E+02 -0.12967992844E+03  0.15648744789E+03  0.00000000000E+00 0. -1.
         11    1    4    4    0    0  0.82910817241E+02 -0.73440666925E+02 -0.21842017366E+03  0.24489815727E+03  0.00000000000E+00 0.  1.
        -13    1    3    3    0    0 -0.11012179297E+03  0.11024418616E+03 -0.48351353791E+03  0.50800190079E+03  0.00000000000E+00 0. -1.
         13    1    3    3    0    0  0.14007927400E+01  0.52692588226E+02 -0.30694954913E+03  0.31144260592E+03  0.00000000000E+00 0.  1.
          2    1    1    2  501    0  0.20761795125E+02 -0.20549770522E+01 -0.18968083718E+02  0.28196866270E+02  0.00000000000E+00 0. -1.
<scales pt_clust_5="13000.00000" pt_clust_6="13000.00000" pt_clust_7="13000.00000" pt_clust_8="13000.00000" pt_clust_9="20.86325"></scales>
<clustering>
<clus scale="   20.863">  1  9  2 -1</clus>
<clus scale="   79.479">  5  6 -1 -1</clus>
<clus scale="   91.043">  7  8 -1 -1</clus>
<clus scale="  207.155">  1  5  2 -1</clus>
<clus scale="   20.863">  1  5  2 -1</clus>
</clustering>
</event>
<event>
 9    1  0.1445593E-005  0.1139366E+03  0.7546771E-02  0.1254808E+00
          2   -1    0    0  502    0 -0.00000000000E+00  0.00000000000E+00  0.62353713782E+03  0.62353713782E+03  0.00000000000E+00 0. -1.
         21   -1    0    0  501  502  0.00000000000E+00 -0.00000000000E+00 -0.35438494812E+02  0.35438494812E+02  0.00000000000E+00 0.  1.
         23    2    1    2    0    0 -0.52910971444E+02 -0.25608374839E+02  0.28339899118E+03  0.30462109330E+03  0.94992960381E+02 0.  0.
         23    2    1    2    0    0  0.56089548280E+02  0.48095809888E+02  0.11881312540E+03  0.16708577847E+03  0.91333751949E+02 0.  0.
        -13    1    3    3    0    0 -0.36887035034E+02 -0.48491310756E+02  0.26316965536E+03  0.27013020578E+03  0.00000000000E+00 0. -1.
         13    1    3    3    0    0 -0.16023936410E+02  0.22882935918E+02  0.20229335817E+02  0.34490887520E+02  0.00000000000E+00 0.  1.
        -13    1    4    4    0    0 -0.18814644849E+02  0.15358075674E+02  0.18094649834E+01  0.24354373585E+02  0.00000000000E+00 0. -1.
         13    1    4    4    0    0  0.74904193129E+02  0.32737734214E+02  0.11700366042E+03  0.14273140489E+03  0.00000000000E+00 0.  1.
          2    1    1    2  501    0 -0.31785768360E+01 -0.22487435049E+02  0.18588652643E+03  0.18726876086E+03  0.00000000000E+00 0. -1.
<scales pt_clust_5="13000.00000" pt_clust_6="13000.00000" pt_clust_7="13000.00000" pt_clust_8="13000.00000" pt_clust_9="22.71098"></scales>
<clustering>
<clus scale="   22.711">  2  9  1 -1</clus>
<clus scale="   91.334">  7  8 -1 -1</clus>
<clus scale="   94.993">  5  6 -1 -1</clus>
<clus scale="  110.904">  2  7  1 -1</clus>
<clus scale="   22.711">  2  5  1 -1</clus>
</clustering>
</event>
<event>
 9    1  0.1445593E-005  0.1003123E+03  0.7546771E-02  0.1279672E+00
         -2   -1    0    0    0  501 -0.00000000000E+00  0.00000000000E+00  0.21067592234E+03  0.21067592234E+03  0.00000000000E+00 0.  1.
         21   -1    0    0  501  502  0.00000000000E+00 -0.00000000000E+00 -0.22149488471E+03  0.22149488471E+03  0.00000000000E+00 0.  1.
         23    2    1    2    0    0 -0.21922211289E+02 -0.39862934390E+02  0.91606745255E+02  0.13707179816E+03  0.91253740690E+02 0.  0.
         23    2    1    2    0    0 -0.33673161965E+01  0.40687713808E+02  0.69190132613E+02  0.12162786697E+03  0.91319410306E+02 0.  0.
        -11    1    4    4    0    0  0.28141761075E+01  0.62253437571E+02  0.75906398564E+02  0.98209935442E+02  0.00000000000E+00 0. -1.
         11    1    4    4    0    0 -0.61814923040E+01 -0.21565723763E+02 -0.67162659517E+01  0.23417931524E+02  0.00000000000E+00 0.  1.
        -13    1    3    3    0    0 -0.40554159780E+02  0.40819814590E+01  0.77055603564E+02  0.87171488967E+02  0.00000000000E+00 0.  1.
         13    1    3    3    0    0  0.18631948491E+02 -0.43944915849E+02  0.14551141691E+02  0.49900309198E+02  0.00000000000E+00 0. -1.
         -2    1    1    2    0  502  0.25289527485E+02 -0.82477941802E+00 -0.17161584024E+03  0.17347114193E+03  0.00000000000E+00 0.  1.
<scales pt_clust_5="13000.00000" pt_clust_6="13000.00000" pt_clust_7="13000.00000" pt_clust_8="13000.00000" pt_clust_9="25.30297"></scales>
<clustering>
<clus scale="   25.303">  2  9  1 -1</clus>
<clus scale="   91.254">  7  8 -1 -1</clus>
<clus scale="   91.319">  5  6 -1 -1</clus>
<clus scale="  100.253">  1  7  2 -1</clus>
<clus scale="   25.303">  2  5  1 -1</clus>
</clustering>
</event>
<event>
 9    1  0.1445593E-005  0.1046243E+03  0.7546771E-02  0.1272649E+00
         -1   -1    0    0    0  501 -0.00000000000E+00  0.00000000000E+00  0.53907073228E+03  0.53907073228E+03  0.00000000000E+00 0.  1.
         21   -1    0    0  501  502  0.00000000000E+00 -0.00000000000E+00 -0.47947648212E+02  0.47947648212E+02  0.00000000000E+00 0. -1.
         23    2    1    2    0    0  0.42858856152E+02 -0.42303023368E+02  0.32172830520E+03  0.33924902603E+03  0.89187285876E+02 0.  0.
         23    2    1    2    0    0 -0.17080008857E+02  0.25427109716E+02  0.18780361635E+03  0.21187742324E+03  0.93185726127E+02 0.  0.
        -11    1    3    3    0    0 -0.20840485356E+02 -0.31683859268E+02  0.72862551521E+02  0.82141001833E+02  0.00000000000E+00 0.  1.
         11    1    3    3    0    0  0.63699341508E+02 -0.10619164100E+02  0.24886575367E+03  0.25710802420E+03  0.00000000000E+00 0. -1.
        -13    1    4    4    0    0 -0.11091970212E+02  0.49721797794E+02  0.17775869676E+03  0.18491469183E+03  0.00000000000E+00 0.  1.
         13    1    4    4    0    0 -0.59880386453E+01 -0.24294688079E+02  0.10044919586E+02  0.26962731411E+02  0.00000000000E+00 0. -1.
         -1    1    1    2    0  502 -0.25778847295E+02  0.16875913652E+02 -0.18408837478E+02  0.35891931220E+02  0.00000000000E+00 0.  1.
<scales pt_clust_5="13000.00000" pt_clust_6="13000.00000" pt_clust_7="13000.00000" pt_clust_8="13000.00000" pt_clust_9="30.81145"></scales>
<clustering>
<clus scale="   30.811">  2  9  1 -1</clus>
<clus scale="   89.187">  5  6 -1 -1</clus>
<clus scale="   93.186">  7  8 -1 -1</clus>
<clus scale="  101.079">  1  5  2 -1</clus>
<clus scale="   30.811">  2  5  1 -1</clus>
</clustering>
</event>
<event>
 9    1  0.1445593E-005  0.1220150E+03  0.7546771E-02  0.1240229E+00
          4   -1    0    0  502    0 -0.00000000000E+00  0.00000000000E+00  0.44753562345E+03  0.44753562345E+03  0.00000000000E+00 0. -1.
         21   -1    0    0  501  502  0.00000000000E+00 -0.00000000000E+00 -0.10772015552E+03  0.10772015552E+03  0.00000000000E+00 0. -1.
         23    2    1    2    0    0  0.14858610274E+02  0.90691760893E+02  0.33796335210E+03  0.36129378273E+03  0.88702853878E+02 0.  0.
         23    2    1    2    0    0  0.51271950251E+02 -0.43606872128E+02  0.63995759180E+01  0.11265444937E+03  0.90109368052E+02 0.  0.
        -11    1    4    4    0    0 -0.24228502681E+02 -0.55814742557E+01 -0.95378227415E+01  0.26629743890E+02  0.00000000000E+00 0.  1.
         11    1    4    4    0    0  0.75500452932E+02 -0.38025397872E+02  0.15937398659E+02  0.86024705476E+02  0.00000000000E+00 0. -1.
        -13    1    3    3    0    0 -0.26525439244E+01  0.10048453946E+03  0.22320968414E+03  0.24479939084E+03  0.00000000000E+00 0. -1.
         13    1    3    3    0    0  0.17511154199E+02 -0.97927785666E+01  0.11475366796E+03  0.11649439189E+03  0.00000000000E+00 0.  1.
          4    1    1    2  501    0 -0.66130560526E+02 -0.47084888765E+02 -0.45474600864E+01  0.81307546874E+02  0.00000000000E+00 0. -1.
<scales pt_clust_5="13000.00000" pt_clust_6="13000.00000" pt_clust_7="13000.00000" pt_clust_8="13000.00000" pt_clust_9="81.18028"></scales>
<clustering>
<clus scale="   81.180">  2  9  1 -1</clus>
<clus scale="   88.703">  7  8 -1 -1</clus>
<clus scale="   90.109">  5  6 -1 -1</clus>
<clus scale="  120.980">  1  7  2 -1</clus>
<clus scale="   81.180">  2  5  1 -1</clus>
</clustering>
</event>
<event>
 9    1  0.1445593E-005  0.2557656E+03  0.7546771E-02  0.1109750E+00
          1   -1    0    0  502    0 -0.00000000000E+00  0.00000000000E+00  0.87379775107E+03  0.87379775107E+03  0.00000000000E+00 0. -1.
         21   -1    0    0  501  502  0.00000000000E+00 -0.00000000000E+00 -0.20716125925E+03  0.20716125925E+03  0.00000000000E+00 0. -1.
         23    2    1    2    0    0  0.21879272197E+03 -0.62766404406E+02  0.44889524925E+03  0.51140185395E+03  0.90636828666E+02 0.  0.
         23    2    1    2    0    0 -0.24506264918E+03  0.76197317977E+02  0.34478634676E+03  0.43913109680E+03  0.89982009172E+02 0.  0.
        -11    1    4    4    0    0 -0.13420930206E+02 -0.15220073397E+02  0.45284962219E+02  0.49623581138E+02  0.00000000000E+00 0.  1.
         11    1    4    4    0    0 -0.23164171898E+03  0.91417391374E+02  0.29950138454E+03  0.38950751566E+03  0.00000000000E+00 0. -1.
        -13    1    3    3    0    0  0.19416314673E+03 -0.25835539173E+02  0.32122293580E+03  0.37623261038E+03  0.00000000000E+00 0.  1.
         13    1    3    3    0    0  0.24629575241E+02 -0.36930865233E+02  0.12767231345E+03  0.13516924356E+03  0.00000000000E+00 0. -1.
          1    1    1    2  501    0  0.26269927212E+02 -0.13430913571E+02 -0.12704510419E+03  0.13042605956E+03  0.00000000000E+00 0. -1.
<scales pt_clust_5="13000.00000" pt_clust_6="13000.00000" pt_clust_7="13000.00000" pt_clust_8="13000.00000" pt_clust_9="29.50421"></scales>
<clustering>
<clus scale="   29.504">  2  9  1 -1</clus>
<clus scale="   89.982">  5  6 -1 -1</clus>
<clus scale="   90.637">  7  8 -1 -1</clus>
<clus scale="  255.534">  2  5  1 -1</clus>
<clus scale="   29.504">  2  5  1 -1</clus>
</clustering>
</event>
<event>
 9    1  0.1445593E-005  0.9319235E+02  0.7546771E-02  0.1297322E+00
         21   -1    0    0  501  502  0.00000000000E+00  0.00000000000E+00  0.18468886128E+02  0.18468886128E+02  0.00000000000E+00 0.  1.
          2   -1    0    0  502    0 -0.00000000000E+00 -0.00000000000E+00 -0.76119584969E+03  0.76119584969E+03  0.00000000000E+00 0. -1.
         23    2    1    2    0    0  0.20488525958E+02  0.14979980426E+02 -0.47233651236E+03  0.48190380158E+03  0.92115761698E+02 0.  0.
         23    2    1    2    0    0  0.14475000789E+01  0.87428520022E+01 -0.22543410380E+03  0.24239817430E+03  0.88644272407E+02 0.  0.
        -13    1    3    3    0    0 -0.86476801601E+01  0.49526580333E+02 -0.25854923572E+03  0.26339204966E+03  0.00000000000E+00 0. -1.
         13    1    3    3    0    0  0.29136206118E+02 -0.34546599907E+02 -0.21378727664E+03  0.21851175192E+03  0.00000000000E+00 0.  1.
        -13    1    4    4    0    0  0.42514422502E+02  0.50004656861E+01 -0.15477909570E+03  0.16058969221E+03  0.00000000000E+00 0.  1.
         13    1    4    4    0    0 -0.41066922423E+02  0.37423863161E+01 -0.70655008100E+02  0.81808482093E+02  0.00000000000E+00 0. -1.
          2    1    1    2  501    0 -0.21936026036E+02 -0.23722832428E+02 -0.44956347394E+02  0.55362759936E+02  0.00000000000E+00 0. -1.
<scales pt_clust_5="13000.00000" pt_clust_6="13000.00000" pt_clust_7="13000.00000" pt_clust_8="13000.00000" pt_clust_9="32.31040"></scales>
<clustering>
<clus scale="   32.310">  1  9  2 -1</clus>
<clus scale="   88.644">  7  8 -1 -1</clus>
<clus scale="   89.763">  1  7  2 -1</clus>
<clus scale="   92.116">  5  6 -1 -1</clus>
<clus scale="   32.310">  1  5  2 -1</clus>
</clustering>
</event>
<event>
 9    1  0.1445593E-005  0.2559522E+03  0.7546771E-02  0.1110299E+00
         21   -1    0    0  501  502  0.00000000000E+00  0.00000000000E+00  0.20707687303E+03  0.20707687303E+03  0.00000000000E+00 0.  1.
         -2   -1    0    0    0  501 -0.00000000000E+00 -0.00000000000E+00 -0.80768787704E+03  0.80768787704E+03  0.00000000000E+00 0.  1.
         23    2    1    2    0    0 -0.23360394509E+03  0.58104856317E+02 -0.49893665184E+03  0.56111840542E+03  0.89269842990E+02 0.  0.
         23    2    1    2    0    0  0.21747677343E+03 -0.10543519682E+03 -0.21348981435E+03  0.33115983772E+03  0.75340623679E+02 0.  0.
        -11    1    4    4    0    0  0.16479198770E+03 -0.96071520016E+02 -0.19914001473E+03  0.27575873809E+03  0.00000000000E+00 0. -1.
         11    1    4    4    0    0  0.52684785729E+02 -0.93636768005E+01 -0.14349799625E+02  0.55401099627E+02  0.00000000000E+00 0.  1.
        -11    1    3    3    0    0 -0.82656746597E+02 -0.22389879606E+02 -0.16196609496E+03  0.18321151815E+03  0.00000000000E+00 0. -1.
         11    1    3    3    0    0 -0.15094719849E+03  0.80494735924E+02 -0.33697055687E+03  0.37790688727E+03  0.00000000000E+00 0.  1.
         -2    1    1    2    0  502  0.16127171658E+02  0.47330340499E+02  0.11181546218E+03  0.12248650693E+03  0.00000000000E+00 0.  1.
<scales pt_clust_5="13000.00000" pt_clust_6="13000.00000" pt_clust_7="13000.00000" pt_clust_8="13000.00000" pt_clust_9="50.00247"></scales>
<clustering>
<clus scale="   50.002">  1  9  2 -1</clus>
<clus scale="   75.341">  5  6 -1 -1</clus>
<clus scale="   89.270">  7  8 -1 -1</clus>
<clus scale="  251.433">  1  5  2 -1</clus>
<clus scale="   50.002">  1  5  2 -1</clus>
</clustering>
</event>
<event>
 9    1  0.1445593E-005  0.1243731E+03  0.7546771E-02  0.1236075E+00
         21   -1    0    0  501  502  0.00000000000E+00  0.00000000000E+00  0.19603685169E+03  0.19603685169E+03  0.00000000000E+00 0.  1.
          1   -1    0    0  502    0 -0.00000000000E+00 -0.00000000000E+00 -0.13820344474E+03  0.13820344474E+03  0.00000000000E+00 0. -1.
         23    2    1    2    0    0  0.74774611310E+02  0.28282148975E+02 -0.36705562363E+02  0.12742978542E+03  0.92195061994E+02 0.  0.
         23    2    1    2    0    0 -0.97508384074E+02  0.11933110444E+02  0.53462365396E+02  0.14499320839E+03  0.92274166901E+02 0.  0.
        -11    1    3    3    0    0  0.56816772800E+02 -0.25671231530E+02 -0.55576962310E+01  0.62594295164E+02  0.00000000000E+00 0.  1.
         11    1    3    3    0    0  0.17957838510E+02  0.53953380506E+02 -0.31147866132E+02  0.64835490255E+02  0.00000000000E+00 0. -1.
        -11    1    4    4    0    0 -0.29440571622E+02  0.45250838036E+01 -0.26397086500E+02  0.39799872067E+02  0.00000000000E+00 0. -1.
         11    1    4    4    0    0 -0.68067812452E+02  0.74080266401E+01  0.79859451895E+02  0.10519333633E+03  0.00000000000E+00 0.  1.
          1    1    1    2  501    0  0.22733772764E+02 -0.40215259419E+02  0.41076603908E+02  0.61817302617E+02  0.00000000000E+00 0. -1.
<scales pt_clust_5="13000.00000" pt_clust_6="13000.00000" pt_clust_7="13000.00000" pt_clust_8="13000.00000" pt_clust_9="46.19623"></scales>
<clustering>
<clus scale="   46.196">  1  9  2 -1</clus>
<clus scale="   92.195">  5  6 -1 -1</clus>
<clus scale="   92.274">  7  8 -1 -1</clus>
<clus scale="  124.314">  2  5  1 -1</clus>
<clus scale="   46.196">  1  5  2 -1</clus>
</clustering>
</event>
<event>
 9    1  0.1445593E-005  0.9806317E+02  0.7546771E-02  0.1287875E+00
          3   -1    0    0  502    0 -0.00000000000E+00  0.00000000000E+00  0.78769394886E+02  0.78769394886E+02  0.00000000000E+00 0. -1.
         21   -1    0    0  501  502  0.00000000000E+00 -0.00000000000E+00 -0.15648269208E+03  0.15648269208E+03  0.00000000000E+00 0. -1.
         23    2    1    2    0    0 -0.75618073476E+01 -0.38163257885E+01 -0.11315712591E+02  0.92949370768E+02  0.91868356368E+02 0.  0.
         23    2    1    2    0    0 -0.14914223226E+02 -0.85097240928E+01 -0.46563579137E+02  0.10989143377E+03  0.98046472932E+02 0.  0.
        -13    1    4    4    0    0  0.16644490150E+02  0.36285013556E+02 -0.32647785788E+01  0.40053714439E+02  0.00000000000E+00 0.  1.
         13    1    4    4    0    0 -0.31558713376E+02 -0.44794737649E+02 -0.43298800559E+02  0.69837719327E+02  0.00000000000E+00 0. -1.
        -13    1    3    3    0    0 -0.73718124952E+01 -0.47575007383E+02 -0.10000777328E+02  0.49170524647E+02  0.00000000000E+00 0.  1.
         13    1    3    3    0    0 -0.18999485236E+00  0.43758681594E+02 -0.13149352636E+01  0.43778846121E+02  0.00000000000E+00 0. -1.
          3    1    1    2  501    0  0.22476030574E+02  0.12326049881E+02 -0.19834005461E+02  0.32411282428E+02  0.00000000000E+00 0. -1.
<scales pt_clust_5="13000.00000" pt_clust_6="13000.00000" pt_clust_7="13000.00000" pt_clust_8="13000.00000" pt_clust_9="25.63403"></scales>
<clustering>
<clus scale="   25.634">  2  9  1 -1</clus>
<clus scale="   91.868">  7  8 -1 -1</clus>
<clus scale="   91.886">  1  7  2 -1</clus>
<clus scale="   98.046">  5  6 -1 -1</clus>
<clus scale="   25.634">  2  5  1 -1</clus>
</clustering>
</event>
<event>
 9    1  0.1445593E-005  0.3108615E+03  0.7546771E-02  0.1079957E+00
         21   -1    0    0  501  502  0.00000000000E+00  0.00000000000E+00  0.15680412730E+03  0.15680412730E+03  0.00000000000E+00 0.  1.
          1   -1    0    0  502    0 -0.00000000000E+00 -0.00000000000E+00 -0.15359229068E+04  0.15359229068E+04  0.00000000000E+00 0. -1.
         23    2    1    2    0    0  0.19453083851E+03  0.23565950361E+03 -0.82144715283E+03  0.88130103234E+03  0.92403657641E+02 0.  0.
         23    2    1    2    0    0 -0.18931821763E+03 -0.21589153942E+03 -0.65019332985E+03  0.71667258827E+03  0.91747960587E+02 0.  0.
        -13    1    3    3    0    0  0.51744966384E+02  0.82866571722E+02 -0.38700963831E+03  0.39915018527E+03  0.00000000000E+00 0. -1.
         13    1    3    3    0    0  0.14278587212E+03  0.15279293189E+03 -0.43443751452E+03  0.48215084708E+03  0.00000000000E+00 0.  1.
        -13    1    4    4    0    0 -0.78794388516E+02 -0.29526708777E+02 -0.16174838610E+03  0.18232641772E+03  0.00000000000E+00 0.  1.
         13    1    4    4    0    0 -0.11052382911E+03 -0.18636483064E+03 -0.48844494375E+03  0.53434617055E+03  0.00000000000E+00 0. -1.
          1    1    1    2  501    0 -0.52126208777E+01 -0.19767964192E+02  0.92521703138E+02  0.94753413534E+02  0.00000000000E+00 0. -1.
<scales pt_clust_5="13000.00000" pt_clust_6="13000.00000" pt_clust_7="13000.00000" pt_clust_8="13000.00000" pt_clust_9="20.44367"></scales>
<clustering>
<clus scale="   20.444">  1  9  2 -1</clus>
<clus scale="   91.748">  7  8 -1 -1</clus>
<clus scale="   92.404">  5  6 -1 -1</clus>
<clus scale="  310.667">  1  7  2 -1</clus>
<clus scale="   20.444">  1  5  2 -1</clus>
</clustering>
</event>
<event>
 9    1  0.1445593E-005  0.1091991E+03  0.7546771E-02  0.1265904E+00
         21   -1    0    0  501  502  0.00000000000E+00  0.00000000000E+00  0.44350361293E+02  0.44350361293E+02  0.00000000000E+00 0. -1.
         -1   -1    0    0    0  501 -0.00000000000E+00 -0.00000000000E+00 -0.31590786181E+03  0.31590786181E+03  0.00000000000E+00 0.  1.
         23    2    1    2    0    0 -0.70903373777E+01 -0.54228658500E+02 -0.14055772293E+03  0.17604608668E+03  0.90800500398E+02 0.  0.
         23    2    1    2    0    0  0.43720664080E+01  0.33987253196E+02 -0.12392295710E+03  0.16259767659E+03  0.99533194422E+02 0.  0.
        -13    1    4    4    0    0  0.44396902363E+02 -0.36470380065E+01 -0.29738631794E+02  0.53560919024E+02  0.00000000000E+00 0. -1.
         13    1    4    4    0    0 -0.40024835955E+02  0.37634291202E+02 -0.94184325303E+02  0.10903675756E+03  0.00000000000E+00 0.  1.
        -13    1    3    3    0    0 -0.44750382899E+02 -0.18485117932E+02 -0.39718885049E+02  0.62624964544E+02  0.00000000000E+00 0.  1.
         13    1    3    3    0    0  0.37660045521E+02 -0.35743540568E+02 -0.10083883789E+03  0.11342112214E+03  0.00000000000E+00 0. -1.
         -1    1    1    2    0  502  0.27182709698E+01  0.20241405304E+02 -0.70768204892E+01  0.21614459836E+02  0.00000000000E+00 0.  1.
<scales pt_clust_5="13000.00000" pt_clust_6="13000.00000" pt_clust_7="13000.00000" pt_clust_8="13000.00000" pt_clust_9="20.42311"></scales>
<clustering>
<clus scale="   20.423">  1  9  2 -1</clus>
<clus scale="   90.801">  7  8 -1 -1</clus>
<clus scale="   99.533">  5  6 -1 -1</clus>
<clus scale="  101.303">  2  7  1 -1</clus>
<clus scale="   20.423">  1  5  2 -1</clus>
</clustering>
</event>
<event>
 9    1  0.1445593E-005  0.1010239E+03  0.7546771E-02  0.1279712E+00
         21   -1    0    0  501  502  0.00000000000E+00  0.00000000000E+00  0.13549273081E+03  0.13549273081E+03  0.00000000000E+00 0. -1.
         -2   -1    0    0    0  501 -0.00000000000E+00 -0.00000000000E+00 -0.16851695779E+03  0.16851695779E+03  0.00000000000E+00 0.  1.
         23    2    1    2    0    0 -0.42183882288E+02 -0.47015255053E+01 -0.91701050087E+02  0.13776544433E+03  0.93641074306E+02 0.  0.
         23    2    1    2    0    0  0.11400889871E+02  0.40508519085E+02  0.64303604458E+02  0.11869012689E+03  0.90451491230E+02 0.  0.
        -11    1    3    3    0    0 -0.32036484058E+02 -0.31082366792E+02 -0.98978856164E+02  0.10857837632E+03  0.00000000000E+00 0.  1.
         11    1    3    3    0    0 -0.10147398230E+02  0.26380841287E+02  0.72778060769E+01  0.29187068012E+02  0.00000000000E+00 0. -1.
        -13    1    4    4    0    0 -0.23805777589E+02 -0.90759317931E+01 -0.55497971796E+01  0.26074658833E+02  0.00000000000E+00 0.  1.
         13    1    4    4    0    0  0.35206667460E+02  0.49584450878E+02  0.69853401637E+02  0.92615468053E+02  0.00000000000E+00 0. -1.
         -2    1    1    2    0  502  0.30782992417E+02 -0.35806993579E+02 -0.56267813466E+01  0.47554117379E+02  0.00000000000E+00 0.  1.
<scales pt_clust_5="13000.00000" pt_clust_6="13000.00000" pt_clust_7="13000.00000" pt_clust_8="13000.00000" pt_clust_9="47.22008"></scales>
<clustering>
<clus scale="   47.220">  1  9  2 -1</clus>
<clus scale="   90.451">  7  8 -1 -1</clus>
<clus scale="   93.641">  5  6 -1 -1</clus>
<clus scale="   98.075">  1  7  2 -1</clus>
<clus scale="   47.220">  1  5  2 -1</clus>
</clustering>
</event>
<event>
 9    1  0.1445593E-005  0.1475480E+03  0.7546771E-02  0.1217872E+00
          3   -1    0    0  502    0 -0.00000000000E+00  0.00000000000E+00  0.55098166758E+03  0.55098166758E+03  0.00000000000E+00 0. -1.
         21   -1    0    0  501  502  0.00000000000E+00 -0.00000000000E+00 -0.79335637343E+02  0.79335637343E+02  0.00000000000E+00 0. -1.
         23    2    1    2    0    0 -0.52574298180E+02 -0.29351295111E+02  0.27467162622E+03  0.29537551649E+03  0.90424765063E+02 0.  0.
         23    2    1    2    0    0  0.21552703228E+02 -0.96889777333E+02  0.13398004652E+03  0.19048613156E+03  0.92098672546E+02 0.  0.
        -11    1    3    3    0    0 -0.56554151374E+02 -0.57056372123E+02  0.21313371480E+03  0.22777133714E+03  0.00000000000E+00 0. -1.
         11    1    3    3    0    0  0.39798531942E+01  0.27705077011E+02  0.61537911418E+02  0.67604179348E+02  0.00000000000E+00 0.  1.
        -11    1    4    4    0    0  0.26115133487E+02  0.93991726219E+01  0.17887352952E+02  0.33019721965E+02  0.00000000000E+00 0.  1.
         11    1    4    4    0    0 -0.45624302581E+01 -0.10628894995E+03  0.11609269356E+03  0.15746640960E+03  0.00000000000E+00 0. -1.
          3    1    1    2  501    0  0.31021594952E+02  0.12624107244E+03  0.62994357500E+02  0.14445565687E+03  0.00000000000E+00 0. -1.
<scales pt_clust_5="13000.00000" pt_clust_6="13000.00000" pt_clust_7="13000.00000" pt_clust_8="13000.00000" pt_clust_9="115.27471"></scales>
<clustering>
<clus scale="   90.425">  5  6 -1 -1</clus>
<clus scale="   92.099">  7  8 -1 -1</clus>
<clus scale="  108.638">  1  5  2 -1</clus>
<clus scale="  115.275">  2  9  1 -1</clus>
<clus scale="  115.275">  2  5  1 -1</clus>
</clustering>
</event>
<event>
 9    1  0.1445593E-005  0.1005539E+03  0.7546771E-02  0.1291548E+00
         -4   -1    0    0    0  501 -0.00000000000E+00  0.00000000000E+00  0.75959844071E+02  0.75959844071E+02  0.00000000000E+00 0.  1.
         21   -1    0    0  501  502  0.00000000000E+00 -0.00000000000E+00 -0.29764875082E+03  0.29764875082E+03  0.00000000000E+00 0. -1.
         23    2    1    2    0    0 -0.39105268264E+02 -0.10322456828E+02  0.16670065925E+02  0.10180725379E+03  0.91929596459E+02 0.  0.
         23    2    1    2    0    0  0.44538689589E+02 -0.15168017833E+02 -0.95148630523E+02  0.12623867946E+03  0.68331388582E+02 0.  0.
        -13    1    3    3    0    0 -0.27890543897E+02  0.17039329406E+02  0.48420671178E+02  0.58419025864E+02  0.00000000000E+00 0.  1.
         13    1    3    3    0    0 -0.11214724366E+02 -0.27361786234E+02 -0.31750605253E+02  0.43388227925E+02  0.00000000000E+00 0. -1.
        -13    1    4    4    0    0  0.19303531692E+02  0.61001892591E+01  0.49492655954E+01  0.20840678365E+02  0.00000000000E+00 0.  1.
         13    1    4    4    0    0  0.25235157897E+02 -0.21268207092E+02 -0.10009789612E+03  0.10539800109E+03  0.00000000000E+00 0. -1.
         -4    1    1    2    0  502 -0.54334213248E+01  0.25490474661E+02 -0.14321034215E+03  0.14556266165E+03  0.00000000000E+00 0.  1.
<scales pt_clust_5="13000.00000" pt_clust_6="13000.00000" pt_clust_7="13000.00000" pt_clust_8="13000.00000" pt_clust_9="26.06312"></scales>
<clustering>
<clus scale="   26.063">  2  9  1 -1</clus>
<clus scale="   68.331">  7  8 -1 -1</clus>
<clus scale="   79.556">  2  7  1 -1</clus>
<clus scale="   91.930">  5  6 -1 -1</clus>
<clus scale="   26.063">  2  5  1 -1</clus>
</clustering>
</event>
<event>
 9    1  0.1445593E-005  0.1205050E+03  0.7546771E-02  0.1243230E+00
          2   -1    0    0  502    0 -0.00000000000E+00  0.00000000000E+00  0.57113635720E+03  0.57113635720E+03  0.00000000000E+00 0. -1.
         21   -1    0    0  501  502  0.00000000000E+00 -0.00000000000E+00 -0.64907363779E+02  0.64907363779E+02  0.00000000000E+00 0.  1.
         23    2    1    2    0    0  0.52226442343E+02  0.22147429204E+02  0.28116791855E+03  0.30161334610E+03  0.93258255530E+02 0.  0.
         23    2    1    2    0    0 -0.93981605555E+02 -0.36773932996E+02  0.24806980275E+03  0.28456225052E+03  0.96188268785E+02 0.  0.
        -11    1    3    3    0    0  0.73896502286E+02  0.33596656649E+02  0.17898960202E+03  0.19653678032E+03  0.00000000000E+00 0. -1.
         11    1    3    3    0    0 -0.21670059943E+02 -0.11449227445E+02  0.10217831653E+03  0.10507656578E+03  0.00000000000E+00 0.  1.
        -11    1    4    4    0    0 -0.84733480836E+02 -0.26916268917E+01  0.94367557702E+02  0.12685520713E+03  0.00000000000E+00 0. -1.
         11    1    4    4    0    0 -0.92481247196E+01 -0.34082306104E+02  0.15370224505E+03  0.15770704339E+03  0.00000000000E+00 0.  1.
          2    1    1    2  501    0  0.41755163212E+02  0.14626503792E+02 -0.23008727884E+02  0.49868124357E+02  0.00000000000E+00 0. -1.
<scales pt_clust_5="13000.00000" pt_clust_6="13000.00000" pt_clust_7="13000.00000" pt_clust_8="13000.00000" pt_clust_9="44.24283"></scales>
<clustering>
<clus scale="   44.243">  2  9  1 -1</clus>
<clus scale="   93.258">  5  6 -1 -1</clus>
<clus scale="   96.188">  7  8 -1 -1</clus>
<clus scale="  118.179">  1  5  2 -1</clus>
<clus scale="   44.243">  2  5  1 -1</clus>
</clustering>
</event>
<event>
 9    1  0.1445593E-005  0.5020431E+03  0.7546771E-02  0.1013258E+00
         -4   -1    0    0    0  501 -0.00000000000E+00  0.00000000000E+00  0.15893368836E+03  0.15893368836E+03  0.00000000000E+00 0.  1.
         21   -1    0    0  501  502  0.00000000000E+00 -0.00000000000E+00 -0.23289870992E+04  0.23289870992E+04  0.00000000000E+00 0.  1.
         23    2    1    2    0    0  0.38796205854E+03 -0.27858432648E+03 -0.72439753029E+03  0.87330876969E+03  0.98957766257E+02 0.  0.
         23    2    1    2    0    0 -0.32527353719E+03  0.40365125099E+03 -0.83179873981E+03  0.98501518214E+03  0.98125221350E+02 0.  0.
        -11    1    4    4    0    0 -0.59157989013E+02  0.23744618034E+02 -0.10328550719E+03  0.12137285753E+03  0.00000000000E+00 0. -1.
         11    1    4    4    0    0 -0.26611554818E+03  0.37990663296E+03 -0.72851323262E+03  0.86364232461E+03  0.00000000000E+00 0.  1.
        -13    1    3    3    0    0  0.51866495881E+02 -0.78553749033E+02 -0.10765634814E+03  0.14300599350E+03  0.00000000000E+00 0. -1.
         13    1    3    3    0    0  0.33609556266E+03 -0.20003057745E+03 -0.61674118215E+03  0.73030277619E+03  0.00000000000E+00 0.  1.
         -4    1    1    2    0  502 -0.62688521350E+02 -0.12506692451E+03 -0.61385714070E+03  0.62959683568E+03  0.00000000000E+00 0.  1.
<scales pt_clust_5="13000.00000" pt_clust_6="13000.00000" pt_clust_7="13000.00000" pt_clust_8="13000.00000" pt_clust_9="139.89849"></scales>
<clustering>
<clus scale="   98.125">  5  6 -1 -1</clus>
<clus scale="   98.958">  7  8 -1 -1</clus>
<clus scale="  139.898">  2  9  1 -1</clus>
<clus scale="  501.880">  2  5  1 -1</clus>
<clus scale="  139.898">  2  5  1 -1</clus>
</clustering>
</event>
<event>
 9    1  0.1445593E-005  0.9803532E+02  0.7546771E-02  0.1286210E+00
          1   -1    0    0  502    0 -0.00000000000E+00  0.00000000000E+00  0.83726490737E+02  0.83726490737E+02  0.00000000000E+00 0. -1.
         21   -1    0    0  501  502  0.00000000000E+00 -0.00000000000E+00 -0.47225839881E+03  0.47225839881E+03  0.00000000000E+00 0. -1.
         23    2    1    2    0    0 -0.14475686068E+02  0.30343315447E+02  0.28933966597E+02  0.98495961059E+02  0.87943263770E+02 0.  0.
         23    2    1    2    0    0 -0.32771055642E+02 -0.60225290074E+02 -0.17724955514E+03  0.21085343392E+03  0.91327641755E+02 0.  0.
        -13    1    4    4    0    0 -0.29970424580E+02 -0.24275003205E+01 -0.13725864227E+03  0.14051353666E+03  0.00000000000E+00 0.  1.
         13    1    4    4    0    0 -0.28006310622E+01 -0.57797789753E+02 -0.39990912865E+02  0.70339897259E+02  0.00000000000E+00 0. -1.
        -13    1    3    3    0    0  0.19734601659E+02  0.76140470517E+01 -0.23678061982E+02  0.31750257233E+02  0.00000000000E+00 0.  1.
         13    1    3    3    0    0 -0.34210287726E+02  0.22729268395E+02  0.52612028579E+02  0.66745703826E+02  0.00000000000E+00 0. -1.
          1    1    1    2  501    0  0.47246741709E+02  0.29881974627E+02 -0.24021631954E+03  0.24663549457E+03  0.00000000000E+00 0. -1.
<scales pt_clust_5="13000.00000" pt_clust_6="13000.00000" pt_clust_7="13000.00000" pt_clust_8="13000.00000" pt_clust_9="55.90337"></scales>
<clustering>
<clus scale="   55.903">  2  9  1 -1</clus>
<clus scale="   87.943">  7  8 -1 -1</clus>
<clus scale="   91.328">  5  6 -1 -1</clus>
<clus scale="   94.890">  1  7  2 -1</clus>
<clus scale="   55.903">  2  5  1 -1</clus>
</clustering>
</event>
<event>
 9    1  0.1445593E-005  0.1373064E+03  0.7546771E-02  0.1217447E+00
          1   -1    0    0  502    0 -0.00000000000E+00  0.00000000000E+00  0.51578015321E+03  0.51578015321E+03  0.00000000000E+00 0. -1.
         21   -1    0    0  501  502  0.00000000000E+00 -0.00000000000E+00 -0.56222089125E+02  0.56222089125E+02  0.00000000000E+00 0.  1.
         23    2    1    2    0    0  0.66629203405E+02 -0.64855838700E+02  0.28854161252E+03  0.31647301205E+03  0.90846984777E+02 0.  0.
         23    2    1    2    0    0 -0.72411325832E+02  0.94762282836E+02  0.16633169168E+03  0.22471080534E+03  0.92765424707E+02 0.  0.
        -11    1    3    3    0    0  0.11216910795E+02 -0.49481910897E+02  0.50507267004E+02  0.71590939469E+02  0.00000000000E+00 0.  1.
         11    1    3    3    0    0  0.55412292610E+02 -0.15373927803E+02  0.23803434552E+03  0.24488207259E+03  0.00000000000E+00 0. -1.
        -11    1    4    4    0    0 -0.92165315099E+02  0.72945864449E+02  0.10916812027E+03  0.16041578142E+03  0.00000000000E+00 0.  1.
         11    1    4    4    0    0  0.19753989267E+02  0.21816418387E+02  0.57163571414E+02  0.64295023913E+02  0.00000000000E+00 0. -1.
          1    1    1    2  501    0  0.57821224273E+01 -0.29906444136E+02  0.46847598812E+01  0.30818424940E+02  0.00000000000E+00 0. -1.
<scales pt_clust_5="13000.00000" pt_clust_6="13000.00000" pt_clust_7="13000.00000" pt_clust_8="13000.00000" pt_clust_9="30.46027"></scales>
<clustering>
<clus scale="   30.460">  2  9  1 -1</clus>
<clus scale="   90.847">  5  6 -1 -1</clus>
<clus scale="   92.765">  7  8 -1 -1</clus>
<clus scale="  136.018">  1  5  2 -1</clus>
<clus scale="   30.460">  2  5  1 -1</clus>
</clustering>
</event>
<event>
 9    1  0.1445593E-005  0.9285900E+02  0.7546771E-02  0.1296459E+00
         21   -1    0    0  501  502  0.00000000000E+00  0.00000000000E+00  0.43488564283E+02  0.43488564283E+02  0.00000000000E+00 0.  1.
          1   -1    0    0  502    0 -0.00000000000E+00 -0.00000000000E+00 -0.36792495455E+03  0.36792495455E+03  0.00000000000E+00 0. -1.
         23    2    1    2    0    0 -0.20361764141E+02  0.28754965457E+01 -0.22561699332E+03  0.24461192942E+03  0.92244774502E+02 0.  0.
         23    2    1    2    0    0 -0.12734883117E+02 -0.97390810487E+01 -0.94770839293E+02  0.13275915015E+03  0.91577579250E+02 0.  0.
        -11    1    4    4    0    0 -0.33967388133E+02 -0.11834039170E+02 -0.36422197411E+00  0.35971663811E+02  0.00000000000E+00 0.  1.
         11    1    4    4    0    0  0.21232505016E+02  0.20949581217E+01 -0.94406617318E+02  0.96787486341E+02  0.00000000000E+00 0. -1.
        -11    1    3    3    0    0  0.52444459038E+01  0.44852257074E+02 -0.11558478172E+03  0.12409299312E+03  0.00000000000E+00 0. -1.
         11    1    3    3    0    0 -0.25606210045E+02 -0.41976760528E+02 -0.11003221160E+03  0.12051893630E+03  0.00000000000E+00 0.  1.
          1    1    1    2  501    0  0.33096647258E+02  0.68635845030E+01 -0.40485576641E+01  0.34042439265E+02  0.00000000000E+00 0. -1.
<scales pt_clust_5="13000.00000" pt_clust_6="13000.00000" pt_clust_7="13000.00000" pt_clust_8="13000.00000" pt_clust_9="33.80084"></scales>
<clustering>
<clus scale="   33.801">  1  9  2 -1</clus>
<clus scale="   91.578">  5  6 -1 -1</clus>
<clus scale="   92.196">  1  5  2 -1</clus>
<clus scale="   92.245">  7  8 -1 -1</clus>
<clus scale="   33.801">  1  5  2 -1</clus>
</clustering>
</event>
<event>
 9    1  0.1445593E-005  0.1910836E+03  0.7546771E-02  0.1181232E+00
         21   -1    0    0  501  502  0.00000000000E+00  0.00000000000E+00  0.29660482146E+03  0.29660482146E+03  0.00000000000E+00 0. -1.
          1   -1    0    0  502    0 -0.00000000000E+00 -0.00000000000E+00 -0.30018576341E+03  0.30018576341E+03  0.00000000000E+00 0. -1.
         23    2    1    2    0    0  0.34756569164E+02  0.52665081948E+02 -0.44625471915E+01  0.11102353828E+03  0.91239694042E+02 0.  0.
         23    2    1    2    0    0  0.44314160085E+02 -0.19289890974E+03 -0.14916064779E+03  0.26569800202E+03  0.95774710986E+02 0.  0.
        -11    1    4    4    0    0  0.21624853689E+02 -0.19530805778E+03 -0.13915279168E+03  0.24078282987E+03  0.00000000000E+00 0. -1.
         11    1    4    4    0    0  0.22689306397E+02  0.24091480391E+01 -0.10007856114E+02  0.24915172146E+02  0.00000000000E+00 0.  1.
        -13    1    3    3    0    0 -0.86642968623E+01  0.63250308883E+02 -0.13920990984E+02  0.65341147862E+02  0.00000000000E+00 0.  1.
         13    1    3    3    0    0  0.43420866026E+02 -0.10585226935E+02  0.94584437921E+01  0.45682390422E+02  0.00000000000E+00 0. -1.
          1    1    1    2  501    0 -0.79070729249E+02  0.14023382779E+03  0.15004225304E+03  0.22006904457E+03  0.00000000000E+00 0. -1.
<scales pt_clust_5="13000.00000" pt_clust_6="13000.00000" pt_clust_7="13000.00000" pt_clust_8="13000.00000" pt_clust_9="165.34858"></scales>
<clustering>
<clus scale="   91.240">  7  8 -1 -1</clus>
<clus scale="   95.775">  5  6 -1 -1</clus>
<clus scale="  110.934">  2  7  1 -1</clus>
<clus scale="  165.349">  1  9  2 -1</clus>
<clus scale="  165.349">  1  5  2 -1</clus>
</clustering>
</event>
<event>
 9    1  0.1445593E-005  0.1016819E+03  0.7546771E-02  0.1278914E+00
          2   -1    0    0  502    0 -0.00000000000E+00  0.00000000000E+00  0.53134590899E+03  0.53134590899E+03  0.00000000000E+00 0. -1.
         21   -1    0    0  501  502  0.00000000000E+00 -0.00000000000E+00 -0.50953800299E+02  0.50953800299E+02  0.00000000000E+00 0. -1.
         23    2    1    2    0    0  0.14410098607E+02 -0.29064195979E+00  0.23791247562E+03  0.25491432628E+03  0.90394868624E+02 0.  0.
         23    2    1    2    0    0 -0.75772390842E+02 -0.21407971606E+02  0.23029483060E+03  0.26116884316E+03  0.94729610850E+02 0.  0.
        -11    1    4    4    0    0 -0.78883376484E+02  0.26499295681E+01  0.94045646606E+02  0.12277700460E+03  0.00000000000E+00 0.  1.
         11    1    4    4    0    0  0.31109856418E+01 -0.24057901174E+02  0.13624918400E+03  0.13839183856E+03  0.00000000000E+00 0. -1.
        -13    1    3    3    0    0  0.52633407136E+02  0.53204123943E+01  0.13664236812E+03  0.14652548959E+03  0.00000000000E+00 0. -1.
         13    1    3    3    0    0 -0.38223308529E+02 -0.56110543540E+01  0.10127010750E+03  0.10838883669E+03  0.00000000000E+00 0.  1.
          2    1    1    2  501    0  0.61362292235E+02  0.21698613566E+02  0.12184802472E+02  0.66216539854E+02  0.00000000000E+00 0. -1.
<scales pt_clust_5="13000.00000" pt_clust_6="13000.00000" pt_clust_7="13000.00000" pt_clust_8="13000.00000" pt_clust_9="65.08580"></scales>
<clustering>
<clus scale="   65.086">  2  9  1 -1</clus>
<clus scale="   90.395">  7  8 -1 -1</clus>
<clus scale="   94.730">  5  6 -1 -1</clus>
<clus scale="   97.656">  1  7  2 -1</clus>
<clus scale="   65.086">  2  5  1 -1</clus>
</clustering>
</event>
<event>
 9    1  0.1445593E-005  0.1025028E+03  0.7546771E-02  0.1275584E+00
          2   -1    0    0  502    0 -0.00000000000E+00  0.00000000000E+00  0.86173371636E+03  0.86173371636E+03  0.00000000000E+00 0. -1.
         21   -1    0    0  501  502  0.00000000000E+00 -0.00000000000E+00 -0.30916234180E+02  0.30916234180E+02  0.00000000000E+00 0. -1.
         23    2    1    2    0    0  0.36104839492E+02 -0.56350414626E+00  0.38505608655E+03  0.39716478898E+03  0.90375897490E+02 0.  0.
         23    2    1    2    0    0 -0.83803101050E+02  0.19814827042E+02  0.15157187636E+03  0.19683283721E+03  0.91397729651E+02 0.  0.
        -11    1    4    4    0    0  0.17237594049E+01 -0.23864670479E+02  0.10392482031E+02  0.26086347508E+02  0.00000000000E+00 0.  1.
         11    1    4    4    0    0 -0.85526860455E+02  0.43679497521E+02  0.14117939433E+03  0.17074648970E+03  0.00000000000E+00 0. -1.
        -13    1    3    3    0    0 -0.10784254669E+02 -0.36513048244E+02  0.13971530962E+03  0.14480977378E+03  0.00000000000E+00 0.  1.
         13    1    3    3    0    0  0.46889094161E+02  0.35949544098E+02  0.24534077693E+03  0.25235501520E+03  0.00000000000E+00 0. -1.
          2    1    1    2  501    0  0.47698261558E+02 -0.19251322896E+02  0.29418951927E+03  0.29865232435E+03  0.00000000000E+00 0. -1.
<scales pt_clust_5="13000.00000" pt_clust_6="13000.00000" pt_clust_7="13000.00000" pt_clust_8="13000.00000" pt_clust_9="51.43676"></scales>
<clustering>
<clus scale="   51.437">  2  9  1 -1</clus>
<clus scale="   90.376">  7  8 -1 -1</clus>
<clus scale="   91.398">  5  6 -1 -1</clus>
<clus scale="  101.593">  1  7  2 -1</clus>
<clus scale="   51.437">  2  5  1 -1</clus>
</clustering>
</event>
<event>
 9    1  0.1445593E-005  0.1814819E+03  0.7546771E-02  0.1167071E+00
          1   -1    0    0  502    0 -0.00000000000E+00  0.00000000000E+00  0.58796073670E+03  0.58796073670E+03  0.00000000000E+00 0. -1.
         21   -1    0    0  501  502  0.00000000000E+00 -0.00000000000E+00 -0.16669300904E+03  0.16669300904E+03  0.00000000000E+00 0. -1.
         23    2    1    2    0    0 -0.89458035407E+02 -0.60848269321E+02  0.13993861428E+03  0.19683524571E+03  0.86348400149E+02 0.  0.
         23    2    1    2    0    0  0.13894056658E+03  0.18823827786E+03  0.32809794277E+03  0.41337453661E+03  0.92152684020E+02 0.  0.
        -11    1    3    3    0    0 -0.65321171940E+02  0.16212144372E+01  0.40260739438E+02  0.76749012893E+02  0.00000000000E+00 0. -1.
         11    1    3    3    0    0 -0.24136863467E+02 -0.62469483758E+02  0.99677874839E+02  0.12008623281E+03  0.00000000000E+00 0.  1.
        -13    1    4    4    0    0  0.93891826408E+02  0.18105937487E+03  0.28618718249E+03  0.35142748287E+03  0.00000000000E+00 0. -1.
         13    1    4    4    0    0  0.45048740176E+02  0.71789029883E+01  0.41910760279E+02  0.61947053737E+02  0.00000000000E+00 0.  1.
          1    1    1    2  501    0 -0.49482531177E+02 -0.12739000854E+03 -0.46768829397E+02  0.14444396342E+03  0.00000000000E+00 0. -1.
<scales pt_clust_5="13000.00000" pt_clust_6="13000.00000" pt_clust_7="13000.00000" pt_clust_8="13000.00000" pt_clust_9="136.66285"></scales>
<clustering>
<clus scale="   86.348">  5  6 -1 -1</clus>
<clus scale="   92.153">  7  8 -1 -1</clus>
<clus scale="  136.663">  2  9  1 -1</clus>
<clus scale="  178.605">  1  5  2 -1</clus>
<clus scale="  136.663">  2  5  1 -1</clus>
</clustering>
</event>
<event>
 9    1  0.1445593E-005  0.1369916E+03  0.7546771E-02  0.1217515E+00
         21   -1    0    0  501  502  0.00000000000E+00  0.00000000000E+00  0.68969734314E+02  0.68969734314E+02  0.00000000000E+00 0. -1.
          1   -1    0    0  502    0 -0.00000000000E+00 -0.00000000000E+00 -0.61355358179E+03  0.61355358179E+03  0.00000000000E+00 0. -1.
         23    2    1    2    0    0  0.17186492810E+02  0.76642606751E+02 -0.25312958423E+03  0.28050477047E+03  0.91863350367E+02 0.  0.
         23    2    1    2    0    0 -0.74050422071E+02 -0.12606439721E+03 -0.27514454726E+03  0.32493400335E+03  0.92205679809E+02 0.  0.
        -11    1    3    3    0    0  0.45846118867E+02  0.90839752071E+01 -0.11395844657E+03  0.12317025926E+03  0.00000000000E+00 0.  1.
         11    1    3    3    0    0 -0.28659626057E+02  0.67558631544E+02 -0.13917113765E+03  0.15733451121E+03  0.00000000000E+00 0. -1.
        -13    1    4    4    0    0  0.18081400328E+02 -0.44532623245E+02 -0.57674789718E+02  0.75076447305E+02  0.00000000000E+00 0.  1.
         13    1    4    4    0    0 -0.92131822399E+02 -0.81531773970E+02 -0.21746975754E+03  0.24985755604E+03  0.00000000000E+00 0. -1.
          1    1    1    2  501    0  0.56863929261E+02  0.49421790464E+02 -0.16309715984E+02  0.77084542284E+02  0.00000000000E+00 0. -1.
<scales pt_clust_5="13000.00000" pt_clust_6="13000.00000" pt_clust_7="13000.00000" pt_clust_8="13000.00000" pt_clust_9="75.33936"></scales>
<clustering>
<clus scale="   75.339">  1  9  2 -1</clus>
<clus scale="   91.863">  5  6 -1 -1</clus>
<clus scale="   92.206">  7  8 -1 -1</clus>
<clus scale="  136.761">  2  5  1 -1</clus>
<clus scale="   75.339">  1  5  2 -1</clus>
</clustering>
</event>
<event>
 9    1  0.1445593E-005  0.1393055E+03  0.7546771E-02  0.1214494E+00
         21   -1    0    0  501  502  0.00000000000E+00  0.00000000000E+00  0.26940311884E+02  0.26940311884E+02  0.00000000000E+00 0.  1.
          2   -1    0    0  502    0 -0.00000000000E+00 -0.00000000000E+00 -0.90117466761E+03  0.90117466761E+03  0.00000000000E+00 0. -1.
         23    2    1    2    0    0  0.20336721309E+02 -0.98675536601E+02 -0.42389586508E+03  0.44482695633E+03  0.89626295774E+02 0.  0.
         23    2    1    2    0    0 -0.31649695535E+01  0.11224483255E+03 -0.42938060960E+03  0.45298575215E+03  0.90661261180E+02 0.  0.
        -11    1    4    4    0    0 -0.26285098895E+02  0.11752789616E+03 -0.35016203334E+03  0.37029334641E+03  0.00000000000E+00 0.  1.
         11    1    4    4    0    0  0.23120129342E+02 -0.52830636146E+01 -0.79218576261E+02  0.82692405738E+02  0.00000000000E+00 0. -1.
        -13    1    3    3    0    0  0.42249643037E+02 -0.84038302897E+02 -0.39355788976E+03  0.40464216449E+03  0.00000000000E+00 0. -1.
         13    1    3    3    0    0 -0.21912921729E+02 -0.14637233704E+02 -0.30337975319E+02  0.40184791845E+02  0.00000000000E+00 0.  1.
          2    1    1    2  501    0 -0.17171751755E+02 -0.13569295944E+02 -0.20957881049E+02  0.30302271018E+02  0.00000000000E+00 0. -1.
<scales pt_clust_5="13000.00000" pt_clust_6="13000.00000" pt_clust_7="13000.00000" pt_clust_8="13000.00000" pt_clust_9="21.88595"></scales>
<clustering>
<clus scale="   21.886">  1  9  2 -1</clus>
<clus scale="   89.626">  7  8 -1 -1</clus>
<clus scale="   90.661">  5  6 -1 -1</clus>
<clus scale="  138.634">  2  7  1 -1</clus>
<clus scale="   21.886">  1  5  2 -1</clus>
</clustering>
</event>
<event>
 9    1  0.1445593E-005  0.1035285E+03  0.7546771E-02  0.1274314E+00
          1   -1    0    0  502    0 -0.00000000000E+00  0.00000000000E+00  0.48555935012E+03  0.48555935012E+03  0.00000000000E+00 0. -1.
         21   -1    0    0  501  502  0.00000000000E+00 -0.00000000000E+00 -0.30923066075E+02  0.30923066075E+02  0.00000000000E+00 0.  1.
         23    2    1    2    0    0 -0.16637241251E+02 -0.34312366059E+02  0.24135243881E+03  0.26136830863E+03  0.92780691813E+02 0.  0.
         23    2    1    2    0    0  0.44956665302E+02  0.38883364216E+02  0.18865484743E+03  0.21730575749E+03  0.89989571690E+02 0.  0.
        -11    1    4    4    0    0  0.28705575746E+02  0.63935943219E+02  0.89052465126E+02  0.11332323883E+03  0.00000000000E+00 0.  1.
         11    1    4    4    0    0  0.16251089557E+02 -0.25052579004E+02  0.99602382304E+02  0.10398251866E+03  0.00000000000E+00 0. -1.
        -13    1    3    3    0    0 -0.45398246833E+02 -0.30583762841E+02  0.76985283351E+02  0.94462168182E+02  0.00000000000E+00 0. -1.
         13    1    3    3    0    0  0.28761005582E+02 -0.37286032183E+01  0.16436715546E+03  0.16690614044E+03  0.00000000000E+00 0.  1.
          1    1    1    2  501    0 -0.28319424052E+02 -0.45709981564E+01  0.24628997808E+02  0.37808350080E+02  0.00000000000E+00 0. -1.
<scales pt_clust_5="13000.00000" pt_clust_6="13000.00000" pt_clust_7="13000.00000" pt_clust_8="13000.00000" pt_clust_9="28.68595"></scales>
<clustering>
<clus scale="   28.686">  2  9  1 -1</clus>
<clus scale="   89.990">  5  6 -1 -1</clus>
<clus scale="   92.781">  7  8 -1 -1</clus>
<clus scale="  101.035">  2  5  1 -1</clus>
<clus scale="   28.686">  2  5  1 -1</clus>
</clustering>
</event>
<event>
 9    1  0.1445593E-005  0.1052750E+03  0.7546771E-02  0.1272221E+00
         21   -1    0    0  501  502  0.00000000000E+00  0.00000000000E+00  0.64217021647E+02  0.64217021647E+02  0.00000000000E+00 0.  1.
          1   -1    0    0  502    0 -0.00000000000E+00 -0.00000000000E+00 -0.22900097396E+03  0.22900097396E+03  0.00000000000E+00 0. -1.
         23    2    1    2    0    0 -0.58841307314E+01  0.63842176075E+02 -0.12424677790E+03  0.16631793342E+03  0.90077448440E+02 0.  0.
         23    2    1    2    0    0 -0.36249908977E+01 -0.38602369404E+02 -0.24883244593E+02  0.95714861311E+02  0.83898005529E+02 0.  0.
        -13    1    3    3    0    0 -0.28405124055E+02  0.39235132816E+02 -0.12382080177E+03  0.13295802973E+03  0.00000000000E+00 0. -1.
         13    1    3    3    0    0  0.22520993324E+02  0.24607043259E+02 -0.42597613171E+00  0.33359903685E+02  0.00000000000E+00 0.  1.
        -13    1    4    4    0    0  0.13440619212E+00  0.22035824448E+02  0.11543644177E+02  0.24876722956E+02  0.00000000000E+00 0.  1.
         13    1    4    4    0    0 -0.37593970898E+01 -0.60638193852E+02 -0.36426888770E+02  0.70838138355E+02  0.00000000000E+00 0. -1.
          1    1    1    2  501    0  0.95091216291E+01 -0.25239806671E+02 -0.15653929816E+02  0.31185200875E+02  0.00000000000E+00 0. -1.
<scales pt_clust_5="13000.00000" pt_clust_6="13000.00000" pt_clust_7="13000.00000" pt_clust_8="13000.00000" pt_clust_9="26.97167"></scales>
<clustering>
<clus scale="   26.972">  1  9  2 -1</clus>
<clus scale="   83.898">  7  8 -1 -1</clus>
<clus scale="   90.077">  5  6 -1 -1</clus>
<clus scale="  100.039">  1  7  2 -1</clus>
<clus scale="   26.972">  1  5  2 -1</clus>
</clustering>
</event>
<event>
 9    1  0.1445593E-005  0.1581707E+03  0.7546771E-02  0.1204649E+00
         21   -1    0    0  501  502  0.00000000000E+00  0.00000000000E+00  0.36987346190E+03  0.36987346190E+03  0.00000000000E+00 0.  1.
         -3   -1    0    0    0  501 -0.00000000000E+00 -0.00000000000E+00 -0.14285312850E+03  0.14285312850E+03  0.00000000000E+00 0.  1.
         23    2    1    2    0    0  0.63759898967E+02  0.36311968761E+02  0.13113544528E+03  0.17566800331E+03  0.90988233236E+02 0.  0.
         23    2    1    2    0    0  0.81679354113E+02 -0.18511830011E+02 -0.47114009965E+02  0.13231946984E+03  0.90964319519E+02 0.  0.
        -11    1    4    4    0    0  0.16055396177E+02 -0.48610596705E+02 -0.23764263942E+02  0.56440287908E+02  0.00000000000E+00 0. -1.
         11    1    4    4    0    0  0.65623957936E+02  0.30098766694E+02 -0.23349746023E+02  0.75879181934E+02  0.00000000000E+00 0.  1.
        -13    1    3    3    0    0  0.56314170169E+02  0.58795504401E+01  0.13272513507E+03  0.14429766579E+03  0.00000000000E+00 0.  1.
         13    1    3    3    0    0  0.74457287978E+01  0.30432418321E+02 -0.15896897908E+01  0.31370337515E+02  0.00000000000E+00 0. -1.
         -3    1    1    2    0  502 -0.14543925308E+03 -0.17800138750E+02  0.14299889809E+03  0.20473911725E+03  0.00000000000E+00 0.  1.
<scales pt_clust_5="13000.00000" pt_clust_6="13000.00000" pt_clust_7="13000.00000" pt_clust_8="13000.00000" pt_clust_9="129.39655"></scales>
<clustering>
<clus scale="   90.964">  5  6 -1 -1</clus>
<clus scale="   90.988">  7  8 -1 -1</clus>
<clus scale="  116.888">  2  7  1 -1</clus>
<clus scale="  129.397">  1  9  2 -1</clus>
<clus scale="  129.397">  1  5  2 -1</clus>
</clustering>
</event>
<event>
 9    1  0.1445593E-005  0.1380659E+03  0.7546771E-02  0.1218623E+00
         21   -1    0    0  501  502  0.00000000000E+00  0.00000000000E+00  0.15380170557E+03  0.15380170557E+03  0.00000000000E+00 0.  1.
         -4   -1    0    0    0  501 -0.00000000000E+00 -0.00000000000E+00 -0.75571021965E+03  0.75571021965E+03  0.00000000000E+00 0.  1.
         23    2    1    2    0    0  0.36520590247E+02  0.10122125224E+03 -0.46360062680E+03  0.48245060914E+03  0.79079413705E+02 0.  0.
         23    2    1    2    0    0 -0.73936609090E+02 -0.72720486595E+02 -0.26124019820E+03  0.29543835009E+03  0.91008165636E+02 0.  0.
        -13    1    4    4    0    0 -0.76361934159E+02 -0.18903649555E+02 -0.19356126071E+03  0.20893648461E+03  0.00000000000E+00 0.  1.
         13    1    4    4    0    0  0.24253250688E+01 -0.53816837041E+02 -0.67678937494E+02  0.86501865478E+02  0.00000000000E+00 0. -1.
        -13    1    3    3    0    0  0.46329592171E+02  0.26088264102E+02 -0.13205838057E+03  0.14236026311E+03  0.00000000000E+00 0. -1.
         13    1    3    3    0    0 -0.98090019234E+01  0.75132988143E+02 -0.33154224623E+03  0.34009034603E+03  0.00000000000E+00 0.  1.
         -4    1    1    2    0  502  0.37416018843E+02 -0.28500765649E+02  0.12293231092E+03  0.13162296599E+03  0.00000000000E+00 0.  1.
<scales pt_clust_5="13000.00000" pt_clust_6="13000.00000" pt_clust_7="13000.00000" pt_clust_8="13000.00000" pt_clust_9="47.03458"></scales>
<clustering>
<clus scale="   47.035">  1  9  2 -1</clus>
<clus scale="   79.079">  7  8 -1 -1</clus>
<clus scale="   91.008">  5  6 -1 -1</clus>
<clus scale="  130.512">  2  7  1 -1</clus>
<clus scale="   47.035">  1  5  2 -1</clus>
</clustering>
</event>
<event>
 9    1  0.1445593E-005  0.1002493E+03  0.7546771E-02  0.1280359E+00
         -2   -1    0    0    0  501 -0.00000000000E+00  0.00000000000E+00  0.72989000509E+02  0.72989000509E+02  0.00000000000E+00 0.  1.
         21   -1    0    0  501  502  0.00000000000E+00 -0.00000000000E+00 -0.20569158581E+03  0.20569158581E+03  0.00000000000E+00 0. -1.
         23    2    1    2    0    0  0.33045079892E+02 -0.12876904032E+01 -0.21475564154E+02  0.98040850477E+02  0.89761757196E+02 0.  0.
         23    2    1    2    0    0 -0.56805170142E+02  0.23325685780E+02 -0.89349131423E+02  0.14153913242E+03  0.90989800249E+02 0.  0.
        -11    1    4    4    0    0 -0.26979955855E+02  0.46778029928E+02 -0.88396226312E+02  0.10358568882E+03  0.00000000000E+00 0. -1.
         11    1    4    4    0    0 -0.29825214287E+02 -0.23452344148E+02 -0.95290511079E+00  0.37953443605E+02  0.00000000000E+00 0.  1.
        -13    1    3    3    0    0  0.58714313338E+02 -0.18565740275E+02 -0.25860060148E+02  0.66789220789E+02  0.00000000000E+00 0. -1.
         13    1    3    3    0    0 -0.25669233445E+02  0.17278049872E+02  0.43844959941E+01  0.31251629688E+02  0.00000000000E+00 0.  1.
         -2    1    1    2    0  502  0.23760090250E+02 -0.22037995377E+02 -0.21877889725E+02  0.39100603419E+02  0.00000000000E+00 0.  1.
<scales pt_clust_5="13000.00000" pt_clust_6="13000.00000" pt_clust_7="13000.00000" pt_clust_8="13000.00000" pt_clust_9="32.40702"></scales>
<clustering>
<clus scale="   32.407">  2  9  1 -1</clus>
<clus scale="   89.762">  7  8 -1 -1</clus>
<clus scale="   90.990">  5  6 -1 -1</clus>
<clus scale="   99.136">  1  7  2 -1</clus>
<clus scale="   32.407">  2  5  1 -1</clus>
</clustering>
</event>
<event>
 9    1  0.1445593E-005  0.1003803E+03  0.7546771E-02  0.1284661E+00
          4   -1    0    0  502    0 -0.00000000000E+00  0.00000000000E+00  0.48054171653E+02  0.48054171653E+02  0.00000000000E+00 0. -1.
         21   -1    0    0  501  502  0.00000000000E+00 -0.00000000000E+00 -0.41873640886E+03  0.41873640886E+03  0.00000000000E+00 0.  1.
         23    2    1    2    0    0  0.79464019097E+01  0.44886287387E+01 -0.53785774482E+02  0.10396285133E+03  0.88498993379E+02 0.  0.
         23    2    1    2    0    0 -0.40208612669E+02 -0.11300204113E+02 -0.10953518836E+03  0.15286119397E+03  0.98102803155E+02 0.  0.
        -13    1    3    3    0    0 -0.28272160635E+02 -0.20132758236E+02 -0.48801582331E+02  0.59885202339E+02  0.00000000000E+00 0.  1.
         13    1    3    3    0    0  0.36218562544E+02  0.24621386974E+02 -0.49841921512E+01  0.44077648993E+02  0.00000000000E+00 0. -1.
        -13    1    4    4    0    0 -0.25111669690E+02  0.42231497625E+02 -0.37267792377E+02  0.61668336243E+02  0.00000000000E+00 0.  1.
         13    1    4    4    0    0 -0.15096942979E+02 -0.53531701738E+02 -0.72267395978E+02  0.91192857723E+02  0.00000000000E+00 0. -1.
          4    1    1    2  501    0  0.32262210759E+02  0.68115753743E+01 -0.20736127437E+03  0.20996653522E+03  0.00000000000E+00 0. -1.
<scales pt_clust_5="13000.00000" pt_clust_6="13000.00000" pt_clust_7="13000.00000" pt_clust_8="13000.00000" pt_clust_9="32.97344"></scales>
<clustering>
<clus scale="   32.973">  2  9  1 -1</clus>
<clus scale="   88.499">  5  6 -1 -1</clus>
<clus scale="   91.017">  1  5  2 -1</clus>
<clus scale="   98.103">  7  8 -1 -1</clus>
<clus scale="   32.973">  2  5  1 -1</clus>
</clustering>
</event>
<event>
 9    1  0.1445593E-005  0.1841165E+03  0.7546771E-02  0.1164529E+00
         21   -1    0    0  501  502  0.00000000000E+00  0.00000000000E+00  0.49102915519E+03  0.49102915519E+03  0.00000000000E+00 0.  1.
          2   -1    0    0  502    0 -0.00000000000E+00 -0.00000000000E+00 -0.23922405917E+03  0.23922405917E+03  0.00000000000E+00 0. -1.
         23    2    1    2    0    0  0.10777408451E+03  0.11284518614E+03 -0.15876949135E+03  0.23818132332E+03  0.84695348555E+02 0.  0.
         23    2    1    2    0    0 -0.11573640712E+03 -0.16125527384E+03  0.29824207006E+03  0.36949322399E+03  0.90436336413E+02 0.  0.
        -13    1    4    4    0    0 -0.22484690008E+02  0.88248495951E+01  0.33008694376E+02  0.40902483538E+02  0.00000000000E+00 0. -1.
         13    1    4    4    0    0 -0.93251717113E+02 -0.17008012343E+03  0.26523337569E+03  0.32859074045E+03  0.00000000000E+00 0.  1.
        -13    1    3    3    0    0  0.79386589403E+02  0.28805903723E+02 -0.51217268018E+02  0.98768513249E+02  0.00000000000E+00 0.  1.
         13    1    3    3    0    0  0.28387495111E+02  0.84039282418E+02 -0.10755222333E+03  0.13941281007E+03  0.00000000000E+00 0. -1.
          2    1    1    2  501    0  0.79623226071E+01  0.48410087697E+02  0.11233251731E+03  0.12257866705E+03  0.00000000000E+00 0. -1.
<scales pt_clust_5="13000.00000" pt_clust_6="13000.00000" pt_clust_7="13000.00000" pt_clust_8="13000.00000" pt_clust_9="49.06053"></scales>
<clustering>
<clus scale="   49.061">  1  9  2 -1</clus>
<clus scale="   84.695">  7  8 -1 -1</clus>
<clus scale="   90.436">  5  6 -1 -1</clus>
<clus scale="  181.366">  2  7  1 -1</clus>
<clus scale="   49.061">  1  5  2 -1</clus>
</clustering>
</event>
<event>
 9    1  0.1445593E-005  0.1493845E+03  0.7546771E-02  0.1219180E+00
         21   -1    0    0  501  502  0.00000000000E+00  0.00000000000E+00  0.60587996376E+03  0.60587996376E+03  0.00000000000E+00 0.  1.
         -3   -1    0    0    0  501 -0.00000000000E+00 -0.00000000000E+00 -0.24684599931E+03  0.24684599931E+03  0.00000000000E+00 0.  1.
         23    2    1    2    0    0 -0.22241307125E+02 -0.39763529084E+02 -0.17227857563E+03  0.20012645177E+03  0.91076204841E+02 0.  0.
         23    2    1    2    0    0  0.13402392547E+03 -0.60863149632E+01  0.67673724653E+02  0.17347686193E+03  0.86689288776E+02 0.  0.
        -11    1    3    3    0    0 -0.43960441374E+02 -0.89730860245E+01 -0.14952060275E+03  0.15610716615E+03  0.00000000000E+00 0. -1.
         11    1    3    3    0    0  0.21719134248E+02 -0.30790443060E+02 -0.22757972883E+02  0.44019285615E+02  0.00000000000E+00 0.  1.
        -13    1    4    4    0    0  0.97208511634E+02 -0.28553049533E+02  0.10496792898E+02  0.10185751829E+03  0.00000000000E+00 0.  1.
         13    1    4    4    0    0  0.36815413839E+02  0.22466734570E+02  0.57176931755E+02  0.71619343639E+02  0.00000000000E+00 0. -1.
         -3    1    1    2    0  502 -0.11178261835E+03  0.45849844047E+02  0.46363881543E+03  0.47912264937E+03  0.00000000000E+00 0.  1.
<scales pt_clust_5="13000.00000" pt_clust_6="13000.00000" pt_clust_7="13000.00000" pt_clust_8="13000.00000" pt_clust_9="121.65806"></scales>
<clustering>
<clus scale="   86.689">  7  8 -1 -1</clus>
<clus scale="   91.076">  5  6 -1 -1</clus>
<clus scale="  101.837">  2  5  1 -1</clus>
<clus scale="  121.658">  1  9  2 -1</clus>
<clus scale="  121.658">  1  5  2 -1</clus>
</clustering>
</event>
<event>
 9    1  0.1445593E-005  0.1066024E+03  0.7546771E-02  0.1267786E+00
         21   -1    0    0  501  502  0.00000000000E+00  0.00000000000E+00  0.17816748360E+02  0.17816748360E+02  0.00000000000E+00 0. -1.
         -3   -1    0    0    0  501 -0.00000000000E+00 -0.00000000000E+00 -0.81445644810E+03  0.81445644810E+03  0.00000000000E+00 0.  1.
         23    2    1    2    0    0 -0.68155449960E+00 -0.46615796078E+02 -0.41113990409E+03  0.42397508434E+03  0.92441086361E+02 0.  0.
         23    2    1    2    0    0 -0.16420002801E+02  0.60850722636E+02 -0.34325704138E+03  0.36055351363E+03  0.90559443449E+02 0.  0.
        -13    1    3    3    0    0  0.35372403828E+02 -0.37776060015E+01 -0.72721610637E+02  0.80956222202E+02  0.00000000000E+00 0. -1.
         13    1    3    3    0    0 -0.36053958328E+02 -0.42838190076E+02 -0.33841829345E+03  0.34301886214E+03  0.00000000000E+00 0.  1.
        -13    1    4    4    0    0 -0.52132073732E+02  0.36816940407E+02 -0.15890731572E+03  0.17124478153E+03  0.00000000000E+00 0.  1.
         13    1    4    4    0    0  0.35712070931E+02  0.24033782228E+02 -0.18434972565E+03  0.18930873209E+03  0.00000000000E+00 0. -1.
         -3    1    1    2    0  502  0.17101557300E+02 -0.14234926558E+02 -0.42242754272E+02  0.47744598487E+02  0.00000000000E+00 0.  1.
<scales pt_clust_5="13000.00000" pt_clust_6="13000.00000" pt_clust_7="13000.00000" pt_clust_8="13000.00000" pt_clust_9="22.25076"></scales>
<clustering>
<clus scale="   22.251">  1  9  2 -1</clus>
<clus scale="   90.559">  7  8 -1 -1</clus>
<clus scale="   92.441">  5  6 -1 -1</clus>
<clus scale="  104.975">  1  7  2 -1</clus>
<clus scale="   22.251">  1  5  2 -1</clus>
</clustering>
</event>
<event>
 9    1  0.1445593E-005  0.1283457E+03  0.7546771E-02  0.1230819E+00
         -3   -1    0    0    0  501 -0.00000000000E+00  0.00000000000E+00  0.14423258325E+03  0.14423258325E+03  0.00000000000E+00 0.  1.
         21   -1    0    0  501  502  0.00000000000E+00 -0.00000000000E+00 -0.35397447471E+03  0.35397447471E+03  0.00000000000E+00 0.  1.
         23    2    1    2    0    0  0.71191001784E+01 -0.10181230792E+03  0.52962744596E+02  0.14758301276E+03  0.92516299699E+02 0.  0.
         23    2    1    2    0    0 -0.34271257750E+02  0.16706999492E+02 -0.23936469202E+03  0.25829362675E+03  0.89255245758E+02 0.  0.
        -11    1    3    3    0    0 -0.21576411879E+02 -0.88187870150E+02  0.67019485452E+02  0.11284614934E+03  0.00000000000E+00 0.  1.
         11    1    3    3    0    0  0.28695512058E+02 -0.13624437766E+02 -0.14056740856E+02  0.34736863419E+02  0.00000000000E+00 0. -1.
        -11    1    4    4    0    0 -0.57466495731E+02 -0.13401558330E+02 -0.14926733839E+03  0.16050775124E+03  0.00000000000E+00 0.  1.
         11    1    4    4    0    0  0.23195237981E+02  0.30108557822E+02 -0.90097353629E+02  0.97785875514E+02  0.00000000000E+00 0. -1.
         -3    1    1    2    0  502  0.27152157572E+02  0.85105308424E+02 -0.23339944044E+02  0.92330418447E+02  0.00000000000E+00 0.  1.
<scales pt_clust_5="13000.00000" pt_clust_6="13000.00000" pt_clust_7="13000.00000" pt_clust_8="13000.00000" pt_clust_9="89.33175"></scales>
<clustering>
<clus scale="   89.255">  7  8 -1 -1</clus>
<clus scale="   89.332">  2  9  1 -1</clus>
<clus scale="   92.516">  5  6 -1 -1</clus>
<clus scale="  126.015">  2  7  1 -1</clus>
<clus scale="   89.332">  2  5  1 -1</clus>
</clustering>
</event>
<event>
 9    1  0.1445593E-005  0.2415576E+03  0.7546771E-02  0.1118975E+00
          2   -1    0    0  502    0 -0.00000000000E+00  0.00000000000E+00  0.84566312750E+03  0.84566312750E+03  0.00000000000E+00 0. -1.
         21   -1    0    0  501  502  0.00000000000E+00 -0.00000000000E+00 -0.34603469071E+03  0.34603469071E+03  0.00000000000E+00 0. -1.
         23    2    1    2    0    0  0.12947222164E+03 -0.19761214768E+03  0.42408620129E+03  0.49336140027E+03  0.87992886436E+02 0.  0.
         23    2    1    2    0    0  0.55214423418E+02  0.24492773529E+03  0.30137880889E+03  0.40278594920E+03  0.91482820004E+02 0.  0.
        -11    1    4    4    0    0  0.24117826884E+02  0.17995261749E+02  0.74687783517E+02  0.80521823289E+02  0.00000000000E+00 0.  1.
         11    1    4    4    0    0  0.31096596533E+02  0.22693247354E+03  0.22669102537E+03  0.32226412591E+03  0.00000000000E+00 0. -1.
        -11    1    3    3    0    0  0.13871501892E+03 -0.17064843907E+03  0.34333806099E+03  0.40773002141E+03  0.00000000000E+00 0. -1.
         11    1    3    3    0    0 -0.92427972862E+01 -0.26963708606E+02  0.80748140299E+02  0.85631378859E+02  0.00000000000E+00 0.  1.
          2    1    1    2  501    0 -0.18468664506E+03 -0.47315587614E+02 -0.22583657339E+03  0.29555046874E+03  0.00000000000E+00 0. -1.
<scales pt_clust_5="13000.00000" pt_clust_6="13000.00000" pt_clust_7="13000.00000" pt_clust_8="13000.00000" pt_clust_9="190.65131"></scales>
<clustering>
<clus scale="   87.993">  7  8 -1 -1</clus>
<clus scale="   91.483">  5  6 -1 -1</clus>
<clus scale="  190.651">  2  9  1 -1</clus>
<clus scale="  240.258">  1  7  2 -1</clus>
<clus scale="  190.651">  2  5  1 -1</clus>
</clustering>
</event>
<event>
 9    1  0.1445593E-005  0.9364394E+02  0.7546771E-02  0.1294630E+00
         -1   -1    0    0    0  501 -0.00000000000E+00  0.00000000000E+00  0.38652504601E+03  0.38652504601E+03  0.00000000000E+00 0.  1.
         21   -1    0    0  501  502  0.00000000000E+00 -0.00000000000E+00 -0.56335746302E+02  0.56335746302E+02  0.00000000000E+00 0.  1.
         23    2    1    2    0    0 -0.45481833799E+01  0.91740920324E+01  0.25786698545E+03  0.27389854234E+03  0.91761535369E+02 0.  0.
         23    2    1    2    0    0 -0.22964608781E+02 -0.31651510671E+02  0.84726953833E+02  0.13133163526E+03  0.92412933774E+02 0.  0.
        -11    1    3    3    0    0 -0.26985431133E+02  0.41652490018E+02  0.10695203548E+03  0.11790623949E+03  0.00000000000E+00 0. -1.
         11    1    3    3    0    0  0.22437247754E+02 -0.32478397985E+02  0.15091494997E+03  0.15599230285E+03  0.00000000000E+00 0.  1.
        -13    1    4    4    0    0  0.23181090979E+02 -0.20925162627E+02  0.77309482389E+02  0.83378543266E+02  0.00000000000E+00 0.  1.
         13    1    4    4    0    0 -0.46145699760E+02 -0.10726348045E+02  0.74174714439E+01  0.47953091989E+02  0.00000000000E+00 0. -1.
         -1    1    1    2    0  502  0.27512792161E+02  0.22477418639E+02 -0.12404639575E+02  0.37630614719E+02  0.00000000000E+00 0.  1.
<scales pt_clust_5="13000.00000" pt_clust_6="13000.00000" pt_clust_7="13000.00000" pt_clust_8="13000.00000" pt_clust_9="35.52729"></scales>
<clustering>
<clus scale="   35.527">  2  9  1 -1</clus>
<clus scale="   91.762">  5  6 -1 -1</clus>
<clus scale="   92.413">  7  8 -1 -1</clus>
<clus scale="   93.001">  1  5  2 -1</clus>
<clus scale="   35.527">  2  5  1 -1</clus>
</clustering>
</event>
<event>
 9    1  0.1445593E-005  0.9235338E+02  0.7546771E-02  0.1298326E+00
         -4   -1    0    0    0  501 -0.00000000000E+00  0.00000000000E+00  0.65085279110E+02  0.65085279110E+02  0.00000000000E+00 0.  1.
         21   -1    0    0  501  502  0.00000000000E+00 -0.00000000000E+00 -0.69201823351E+03  0.69201823351E+03  0.00000000000E+00 0. -1.
         23    2    1    2    0    0  0.81425222045E+01 -0.14666981000E+02  0.16631445563E+02  0.91773448765E+02  0.88681113644E+02 0.  0.
         23    2    1    2    0    0  0.36543466652E+02  0.51924422631E+02 -0.42688044737E+03  0.44097122211E+03  0.90538012811E+02 0.  0.
        -13    1    3    3    0    0  0.33032527275E+01 -0.52075415407E+02  0.13648520519E+02  0.53935540053E+02  0.00000000000E+00 0.  1.
         13    1    3    3    0    0  0.48392694770E+01  0.37408434407E+02  0.29829250437E+01  0.37837908712E+02  0.00000000000E+00 0. -1.
        -13    1    4    4    0    0  0.11930705668E+02 -0.20896175434E+02 -0.41256421076E+02  0.47760696871E+02  0.00000000000E+00 0.  1.
         13    1    4    4    0    0  0.24612760984E+02  0.72820598066E+02 -0.38562402629E+03  0.39321052524E+03  0.00000000000E+00 0. -1.
         -4    1    1    2    0  502 -0.44685988857E+02 -0.37257441631E+02 -0.21668395259E+03  0.22435884174E+03  0.00000000000E+00 0.  1.
<scales pt_clust_5="13000.00000" pt_clust_6="13000.00000" pt_clust_7="13000.00000" pt_clust_8="13000.00000" pt_clust_9="58.18036"></scales>
<clustering>
<clus scale="   58.180">  2  9  1 -1</clus>
<clus scale="   88.681">  5  6 -1 -1</clus>
<clus scale="   90.534">  1  5  2 -1</clus>
<clus scale="   90.538">  7  8 -1 -1</clus>
<clus scale="   58.180">  2  5  1 -1</clus>
</clustering>
</event>
<event>
 9    1  0.1445593E-005  0.1377770E+03  0.7546771E-02  0.1216411E+00
          1   -1    0    0  502    0 -0.00000000000E+00  0.00000000000E+00  0.47602460164E+03  0.47602460164E+03  0.00000000000E+00 0. -1.
         21   -1    0    0  501  502  0.00000000000E+00 -0.00000000000E+00 -0.15127981259E+03  0.15127981259E+03  0.00000000000E+00 0. -1.
         23    2    1    2    0    0  0.92507575325E+02  0.34575799772E+02  0.22105851883E+03  0.25915452159E+03  0.92417854838E+02 0.  0.
         23    2    1    2    0    0 -0.90832468224E+02 -0.56741286210E+02  0.21354879109E+03  0.25606114092E+03  0.92163500733E+02 0.  0.
        -11    1    4    4    0    0 -0.93192321858E+02 -0.91963126351E+01  0.14465526586E+03  0.17232099977E+03  0.00000000000E+00 0. -1.
         11    1    4    4    0    0  0.23598536337E+01 -0.47544973575E+02  0.68893525223E+02  0.83740141145E+02  0.00000000000E+00 0.  1.
        -11    1    3    3    0    0  0.60851945405E+02 -0.11508189980E+02  0.17835883820E+03  0.18880485391E+03  0.00000000000E+00 0. -1.
         11    1    3    3    0    0  0.31655629920E+02  0.46083989752E+02  0.42699680625E+02  0.70349667679E+02  0.00000000000E+00 0.  1.
          1    1    1    2  501    0 -0.16751071011E+01  0.22165486438E+02 -0.10986252086E+03  0.11208875172E+03  0.00000000000E+00 0. -1.
<scales pt_clust_5="13000.00000" pt_clust_6="13000.00000" pt_clust_7="13000.00000" pt_clust_8="13000.00000" pt_clust_9="22.22869"></scales>
<clustering>
<clus scale="   22.229">  2  9  1 -1</clus>
<clus scale="   92.164">  5  6 -1 -1</clus>
<clus scale="   92.418">  7  8 -1 -1</clus>
<clus scale="  137.606">  2  5  1 -1</clus>
<clus scale="   22.229">  2  5  1 -1</clus>
</clustering>
</event>
<event>
 9    1  0.1445593E-005  0.1021801E+03  0.7546771E-02  0.1279269E+00
         21   -1    0    0  501  502  0.00000000000E+00  0.00000000000E+00  0.11255686562E+03  0.11255686562E+03  0.00000000000E+00 0. -1.
          1   -1    0    0  502    0 -0.00000000000E+00 -0.00000000000E+00 -0.15792336819E+03  0.15792336819E+03  0.00000000000E+00 0. -1.
         23    2    1    2    0    0 -0.29932226222E+01 -0.33205683293E+02 -0.89933871751E+02  0.13723783444E+03  0.98155718775E+02 0.  0.
         23    2    1    2    0    0  0.10983196456E+00  0.11212946465E+02  0.56627510000E+02  0.10799479729E+03  0.91271348848E+02 0.  0.
        -11    1    3    3    0    0  0.38415988770E+02 -0.23807577058E+02 -0.82587083287E+02  0.94144650641E+02  0.00000000000E+00 0. -1.
         11    1    3    3    0    0 -0.41409211392E+02 -0.93981062346E+01 -0.73467884643E+01  0.43093183796E+02  0.00000000000E+00 0.  1.
        -11    1    4    4    0    0  0.34819864822E+02 -0.23198894886E+02  0.34989133988E+02  0.54542196577E+02  0.00000000000E+00 0. -1.
         11    1    4    4    0    0 -0.34710032857E+02  0.34411841351E+02  0.21638376012E+02  0.53452600709E+02  0.00000000000E+00 0.  1.
          1    1    1    2  501    0  0.28833906576E+01  0.21992736827E+02 -0.12060140819E+02  0.25247602092E+02  0.00000000000E+00 0. -1.
<scales pt_clust_5="13000.00000" pt_clust_6="13000.00000" pt_clust_7="13000.00000" pt_clust_8="13000.00000" pt_clust_9="22.18096"></scales>
<clustering>
<clus scale="   22.181">  1  9  2 -1</clus>
<clus scale="   91.271">  7  8 -1 -1</clus>
<clus scale="   95.586">  1  7  2 -1</clus>
<clus scale="   98.156">  5  6 -1 -1</clus>
<clus scale="   22.181">  1  5  2 -1</clus>
</clustering>
</event>
<event>
 9    1  0.1445593E-005  0.1241177E+03  0.7546771E-02  0.1236641E+00
          3   -1    0    0  502    0 -0.00000000000E+00  0.00000000000E+00  0.61376041163E+02  0.61376041163E+02  0.00000000000E+00 0. -1.
         21   -1    0    0  501  502  0.00000000000E+00 -0.00000000000E+00 -0.40041765472E+03  0.40041765472E+03  0.00000000000E+00 0. -1.
         23    2    1    2    0    0  0.15905240649E+02  0.99319320777E+02 -0.95646342966E+02  0.16565285201E+03  0.90417588430E+02 0.  0.
         23    2    1    2    0    0 -0.23604138026E+02 -0.65720556286E+02 -0.10948805662E+03  0.15786831605E+03  0.89768724060E+02 0.  0.
        -13    1    3    3    0    0 -0.23813545890E+02  0.43569445380E+02 -0.81989281029E+02  0.95852093051E+02  0.00000000000E+00 0.  1.
         13    1    3    3    0    0  0.39718786539E+02  0.55749875397E+02 -0.13657061937E+02  0.69800758962E+02  0.00000000000E+00 0. -1.
        -13    1    4    4    0    0  0.35384744226E+01 -0.80520942458E+02 -0.92143625715E+02  0.12241973181E+03  0.00000000000E+00 0.  1.
         13    1    4    4    0    0 -0.27142612448E+02  0.14800386172E+02 -0.17344430900E+02  0.35448584240E+02  0.00000000000E+00 0. -1.
          3    1    1    2  501    0  0.76988973765E+01 -0.33598764491E+02 -0.13390721398E+03  0.13827252783E+03  0.00000000000E+00 0. -1.
<scales pt_clust_5="13000.00000" pt_clust_6="13000.00000" pt_clust_7="13000.00000" pt_clust_8="13000.00000" pt_clust_9="34.46955"></scales>
<clustering>
<clus scale="   34.470">  2  9  1 -1</clus>
<clus scale="   89.769">  7  8 -1 -1</clus>
<clus scale="   90.418">  5  6 -1 -1</clus>
<clus scale="  123.646">  2  7  1 -1</clus>
<clus scale="   34.470">  2  5  1 -1</clus>
</clustering>
</event>
<event>
 9    1  0.1445593E-005  0.1224134E+03  0.7546771E-02  0.1239770E+00
          3   -1    0    0  502    0 -0.00000000000E+00  0.00000000000E+00  0.19369574357E+03  0.19369574357E+03  0.00000000000E+00 0. -1.
         21   -1    0    0  501  502  0.00000000000E+00 -0.00000000000E+00 -0.20953853376E+03  0.20953853376E+03  0.00000000000E+00 0. -1.
         23    2    1    2    0    0 -0.66599070768E+02 -0.58657870953E+02  0.90901127192E+02  0.15572522761E+03  0.90061920569E+02 0.  0.
         23    2    1    2    0    0  0.59351018208E+02  0.36112381618E+02  0.21315199002E+02  0.11727859766E+03  0.92050444280E+02 0.  0.
        -11    1    4    4    0    0  0.46835148940E+02  0.59916929875E+02 -0.91989047706E+01  0.76604108969E+02  0.00000000000E+00 0.  1.
         11    1    4    4    0    0  0.12515869268E+02 -0.23804548257E+02  0.30514103773E+02  0.40674488691E+02  0.00000000000E+00 0. -1.
        -13    1    3    3    0    0 -0.47285353321E+02  0.14127714097E+02  0.49015364740E+02  0.69555754075E+02  0.00000000000E+00 0.  1.
         13    1    3    3    0    0 -0.19313717447E+02 -0.72785585050E+02  0.41885762453E+02  0.86169473533E+02  0.00000000000E+00 0. -1.
          3    1    1    2  501    0  0.72480525602E+01  0.22545489334E+02 -0.12805911639E+03  0.13023045207E+03  0.00000000000E+00 0. -1.
<scales pt_clust_5="13000.00000" pt_clust_6="13000.00000" pt_clust_7="13000.00000" pt_clust_8="13000.00000" pt_clust_9="23.68192"></scales>
<clustering>
<clus scale="   23.682">  2  9  1 -1</clus>
<clus scale="   90.062">  7  8 -1 -1</clus>
<clus scale="   92.050">  5  6 -1 -1</clus>
<clus scale="  120.925">  1  7  2 -1</clus>
<clus scale="   23.682">  2  5  1 -1</clus>
</clustering>
</event>
<event>
 9    1  0.1445593E-005  0.1000516E+03  0.7546771E-02  0.1280540E+00
         -1   -1    0    0    0  501 -0.00000000000E+00  0.00000000000E+00  0.10713127658E+03  0.10713127658E+03  0.00000000000E+00 0.  1.
         21   -1    0    0  501  502  0.00000000000E+00 -0.00000000000E+00 -0.16956886478E+03  0.16956886478E+03  0.00000000000E+00 0. -1.
         23    2    1    2    0    0  0.16780115724E+02  0.25051138070E+02 -0.13204080918E+02  0.95775785648E+02  0.89941767612E+02 0.  0.
         23    2    1    2    0    0 -0.50192553800E+02 -0.43869943331E+02 -0.74528620248E+02  0.13498547034E+03  0.90679091214E+02 0.  0.
        -11    1    4    4    0    0 -0.22652396375E+02 -0.80378973628E+01  0.19309540194E+02  0.30831756324E+02  0.00000000000E+00 0.  1.
         11    1    4    4    0    0 -0.27540157425E+02 -0.35832045968E+02 -0.93838160441E+02  0.10415371402E+03  0.00000000000E+00 0. -1.
        -11    1    3    3    0    0  0.40414643180E+02 -0.16906173428E+02 -0.18040545885E+02  0.47377456445E+02  0.00000000000E+00 0.  1.
         11    1    3    3    0    0 -0.23634527457E+02  0.41957311498E+02  0.48364649679E+01  0.48398329203E+02  0.00000000000E+00 0. -1.
         -1    1    1    2    0  502  0.33412438076E+02  0.18818805261E+02  0.25295112966E+02  0.45938885376E+02  0.00000000000E+00 0.  1.
<scales pt_clust_5="13000.00000" pt_clust_6="13000.00000" pt_clust_7="13000.00000" pt_clust_8="13000.00000" pt_clust_9="38.34762"></scales>
<clustering>
<clus scale="   38.348">  2  9  1 -1</clus>
<clus scale="   89.942">  7  8 -1 -1</clus>
<clus scale="   90.679">  5  6 -1 -1</clus>
<clus scale="   99.384">  1  7  2 -1</clus>
<clus scale="   38.348">  2  5  1 -1</clus>
</clustering>
</event>
<event>
 9    1  0.1445593E-005  0.1415270E+03  0.7546771E-02  0.1212014E+00
         21   -1    0    0  501  502  0.00000000000E+00  0.00000000000E+00  0.35050451939E+03  0.35050451939E+03  0.00000000000E+00 0. -1.
          2   -1    0    0  502    0 -0.00000000000E+00 -0.00000000000E+00 -0.10709633826E+03  0.10709633826E+03  0.00000000000E+00 0. -1.
         23    2    1    2    0    0  0.65061320348E+02 -0.75095247831E+02 -0.20321503710E+02  0.13980332063E+03  0.96227507992E+02 0.  0.
         23    2    1    2    0    0 -0.84717005416E+02  0.88083330757E+02  0.22356866922E+03  0.27123635760E+03  0.93008427919E+02 0.  0.
        -11    1    4    4    0    0 -0.10152081003E+03  0.65415468842E+02  0.15087727824E+03  0.19326047585E+03  0.00000000000E+00 0. -1.
         11    1    4    4    0    0  0.16803804618E+02  0.22667861914E+02  0.72691390979E+02  0.77975881758E+02  0.00000000000E+00 0.  1.
        -11    1    3    3    0    0  0.39987508354E+02 -0.82125748271E+02 -0.46826155471E+02  0.10264661801E+03  0.00000000000E+00 0. -1.
         11    1    3    3    0    0  0.25073811994E+02  0.70305004407E+01  0.26504651762E+02  0.37156702617E+02  0.00000000000E+00 0.  1.
          2    1    1    2  501    0  0.19655685068E+02 -0.12988082926E+02  0.40161015617E+02  0.46561179420E+02  0.00000000000E+00 0. -1.
<scales pt_clust_5="13000.00000" pt_clust_6="13000.00000" pt_clust_7="13000.00000" pt_clust_8="13000.00000" pt_clust_9="23.55921"></scales>
<clustering>
<clus scale="   23.559">  1  9  2 -1</clus>
<clus scale="   93.008">  5  6 -1 -1</clus>
<clus scale="   96.228">  7  8 -1 -1</clus>
<clus scale="  139.358">  1  5  2 -1</clus>
<clus scale="   23.559">  1  5  2 -1</clus>
</clustering>
</event>
<event>
 9    1  0.1445593E-005  0.1010316E+03  0.7546771E-02  0.1279054E+00
         -3   -1    0    0    0  501 -0.00000000000E+00  0.00000000000E+00  0.19842062446E+03  0.19842062446E+03  0.00000000000E+00 0.  1.
         21   -1    0    0  501  502  0.00000000000E+00 -0.00000000000E+00 -0.72536962228E+02  0.72536962228E+02  0.00000000000E+00 0. -1.
         23    2    1    2    0    0 -0.16261969780E+02  0.49937625015E+02  0.67681275610E+02  0.12447484605E+03  0.90305117124E+02 0.  0.
         23    2    1    2    0    0 -0.29823183981E+01 -0.27419332738E+02  0.20287990708E+02  0.98369150744E+02  0.92218074260E+02 0.  0.
        -13    1    4    4    0    0  0.27431124286E+02  0.69941890462E+00  0.43091538900E+02  0.51086558811E+02  0.00000000000E+00 0.  1.
         13    1    4    4    0    0 -0.30413442684E+02 -0.28118751642E+02 -0.22803548192E+02  0.47282591933E+02  0.00000000000E+00 0. -1.
        -13    1    3    3    0    0 -0.49112956375E+02  0.58203146375E+01  0.32652548513E+02  0.59263373772E+02  0.00000000000E+00 0.  1.
         13    1    3    3    0    0  0.32850986595E+02  0.44117310377E+02  0.35028727097E+02  0.65211472282E+02  0.00000000000E+00 0. -1.
         -3    1    1    2    0  502  0.19244288178E+02 -0.22518292277E+02  0.37914395914E+02  0.48113589890E+02  0.00000000000E+00 0.  1.
<scales pt_clust_5="13000.00000" pt_clust_6="13000.00000" pt_clust_7="13000.00000" pt_clust_8="13000.00000" pt_clust_9="29.62123"></scales>
<clustering>
<clus scale="   29.621">  2  9  1 -1</clus>
<clus scale="   90.305">  7  8 -1 -1</clus>
<clus scale="   92.218">  5  6 -1 -1</clus>
<clus scale="   99.289">  1  7  2 -1</clus>
<clus scale="   29.621">  2  5  1 -1</clus>
</clustering>
</event>
<event>
 9    1  0.1445593E-005  0.1121367E+03  0.7546771E-02  0.1256743E+00
         -4   -1    0    0    0  501 -0.00000000000E+00  0.00000000000E+00  0.15216906081E+03  0.15216906081E+03  0.00000000000E+00 0.  1.
         21   -1    0    0  501  502  0.00000000000E+00 -0.00000000000E+00 -0.23490365976E+03  0.23490365976E+03  0.00000000000E+00 0.  1.
         23    2    1    2    0    0 -0.66760209445E+02  0.39145543287E+02  0.85384524108E+02  0.14742897556E+03  0.91953720706E+02 0.  0.
         23    2    1    2    0    0  0.23137407569E+02 -0.23717361946E+02 -0.43665600079E+02  0.10686702640E+03  0.91738889329E+02 0.  0.
        -11    1    3    3    0    0 -0.49440953680E+01 -0.21397107689E+02  0.48749024228E+02  0.53467257828E+02  0.00000000000E+00 0. -1.
         11    1    3    3    0    0 -0.61816114077E+02  0.60542650977E+02  0.36635499880E+02  0.93961717727E+02  0.00000000000E+00 0.  1.
        -13    1    4    4    0    0 -0.41432585017E+01  0.33573693920E+02 -0.11532657756E+02  0.35740197388E+02  0.00000000000E+00 0.  1.
         13    1    4    4    0    0  0.27280666071E+02 -0.57291055866E+02 -0.32132942322E+02  0.71126829015E+02  0.00000000000E+00 0. -1.
         -4    1    1    2    0  502  0.43622801876E+02 -0.15428181341E+02 -0.12445352298E+03  0.13277671861E+03  0.00000000000E+00 0.  1.
<scales pt_clust_5="13000.00000" pt_clust_6="13000.00000" pt_clust_7="13000.00000" pt_clust_8="13000.00000" pt_clust_9="46.27070"></scales>
<clustering>
<clus scale="   46.271">  2  9  1 -1</clus>
<clus scale="   91.739">  7  8 -1 -1</clus>
<clus scale="   91.954">  5  6 -1 -1</clus>
<clus scale="  111.961">  2  7  1 -1</clus>
<clus scale="   46.271">  2  5  1 -1</clus>
</clustering>
</event>
<event>
 9    1  0.1445593E-005  0.9299229E+02  0.7546771E-02  0.1296078E+00
         21   -1    0    0  501  502  0.00000000000E+00  0.00000000000E+00  0.13121307682E+03  0.13121307682E+03  0.00000000000E+00 0.  1.
          1   -1    0    0  502    0 -0.00000000000E+00 -0.00000000000E+00 -0.16815789709E+03  0.16815789709E+03  0.00000000000E+00 0. -1.
         23    2    1    2    0    0  0.34019076639E+01 -0.29394411504E+01 -0.11354578912E+03  0.14663456085E+03  0.92675967311E+02 0.  0.
         23    2    1    2    0    0 -0.26604772466E+01  0.31206668422E+02  0.77568135529E+02  0.12444292851E+03  0.92131929933E+02 0.  0.
        -11    1    3    3    0    0  0.33013798015E+02  0.20957393121E+02 -0.98029532281E+02  0.10554104597E+03  0.00000000000E+00 0. -1.
         11    1    3    3    0    0 -0.29611890351E+02 -0.23896834271E+02 -0.15516256843E+02  0.41093514875E+02  0.00000000000E+00 0.  1.
        -13    1    4    4    0    0 -0.35372806465E+02  0.12589408196E+02  0.78256565412E+02  0.86797572927E+02  0.00000000000E+00 0.  1.
         13    1    4    4    0    0  0.32712329218E+02  0.18617260226E+02 -0.68842988253E+00  0.37645355582E+02  0.00000000000E+00 0. -1.
          1    1    1    2  501    0 -0.74143041728E+00 -0.28267227272E+02 -0.96716667414E+00  0.28293484551E+02  0.00000000000E+00 0. -1.
<scales pt_clust_5="13000.00000" pt_clust_6="13000.00000" pt_clust_7="13000.00000" pt_clust_8="13000.00000" pt_clust_9="28.27695"></scales>
<clustering>
<clus scale="   28.277">  1  9  2 -1</clus>
<clus scale="   92.132">  7  8 -1 -1</clus>
<clus scale="   92.450">  1  7  2 -1</clus>
<clus scale="   92.676">  5  6 -1 -1</clus>
<clus scale="   28.277">  1  5  2 -1</clus>
</clustering>
</event>
<event>
 9    1  0.1445593E-005  0.1859412E+03  0.7546771E-02  0.1162528E+00
          2   -1    0    0  502    0 -0.00000000000E+00  0.00000000000E+00  0.43317040985E+03  0.43317040985E+03  0.00000000000E+00 0. -1.
         21   -1    0    0  501  502  0.00000000000E+00 -0.00000000000E+00 -0.10764551283E+03  0.10764551283E+03  0.00000000000E+00 0. -1.
         23    2    1    2    0    0  0.32668628358E+02 -0.16344708985E+03  0.20733359701E+03  0.28088840285E+03  0.90160323583E+02 0.  0.
         23    2    1    2    0    0  0.15917011412E+02  0.15571071552E+03  0.96468406853E+02  0.20614741230E+03  0.93227806460E+02 0.  0.
        -13    1    3    3    0    0  0.45266767362E+02 -0.37783710943E+02  0.40026638485E+02  0.71265846157E+02  0.00000000000E+00 0.  1.
         13    1    3    3    0    0 -0.12598139004E+02 -0.12566337890E+03  0.16730695852E+03  0.20962255669E+03  0.00000000000E+00 0. -1.
        -13    1    4    4    0    0  0.39800602374E+02  0.20341250743E+02  0.25155631182E+02  0.51289962091E+02  0.00000000000E+00 0.  1.
         13    1    4    4    0    0 -0.23883590962E+02  0.13536946478E+03  0.71312775672E+02  0.15485745021E+03  0.00000000000E+00 0. -1.
          2    1    1    2  501    0 -0.48585639770E+02  0.77363743211E+01  0.21722893157E+02  0.53780107536E+02  0.00000000000E+00 0. -1.
<scales pt_clust_5="13000.00000" pt_clust_6="13000.00000" pt_clust_7="13000.00000" pt_clust_8="13000.00000" pt_clust_9="49.19772"></scales>
<clustering>
<clus scale="   49.198">  2  9  1 -1</clus>
<clus scale="   90.160">  5  6 -1 -1</clus>
<clus scale="   93.228">  7  8 -1 -1</clus>
<clus scale="  184.422">  1  5  2 -1</clus>
<clus scale="   49.198">  2  5  1 -1</clus>
</clustering>
</event>
<event>
 9    1  0.1445593E-005  0.1926750E+03  0.7546771E-02  0.1156465E+00
          1   -1    0    0  502    0 -0.00000000000E+00  0.00000000000E+00  0.83518496392E+03  0.83518496392E+03  0.00000000000E+00 0. -1.
         21   -1    0    0  501  502  0.00000000000E+00 -0.00000000000E+00 -0.14545512621E+03  0.14545512621E+03  0.00000000000E+00 0.  1.
         23    2    1    2    0    0 -0.38451041806E+02  0.16664509025E+03  0.72620066470E+03  0.75211036639E+03  0.95150034706E+02 0.  0.
         23    2    1    2    0    0  0.16570788381E+02 -0.14552489752E+03  0.10004753217E+02  0.17298885962E+03  0.91503899595E+02 0.  0.
        -13    1    3    3    0    0  0.10141243689E+02  0.98813289017E+02  0.25662151731E+03  0.27517542415E+03  0.00000000000E+00 0.  1.
         13    1    3    3    0    0 -0.48592285495E+02  0.67831801231E+02  0.46957914739E+03  0.47693494224E+03  0.00000000000E+00 0. -1.
        -13    1    4    4    0    0 -0.81230647782E+01 -0.11905761046E+03  0.40123487786E+02  0.12589913845E+03  0.00000000000E+00 0. -1.
         13    1    4    4    0    0  0.24693853159E+02 -0.26467287054E+02 -0.30118734569E+02  0.47089721170E+02  0.00000000000E+00 0.  1.
          1    1    1    2  501    0  0.21880253425E+02 -0.21120192732E+02 -0.46475580204E+02  0.55540864112E+02  0.00000000000E+00 0. -1.
<scales pt_clust_5="13000.00000" pt_clust_6="13000.00000" pt_clust_7="13000.00000" pt_clust_8="13000.00000" pt_clust_9="30.41066"></scales>
<clustering>
<clus scale="   30.411">  2  9  1 -1</clus>
<clus scale="   91.504">  7  8 -1 -1</clus>
<clus scale="   95.150">  5  6 -1 -1</clus>
<clus scale="  190.901">  2  7  1 -1</clus>
<clus scale="   30.411">  2  5  1 -1</clus>
</clustering>
</event>
<event>
 9    1  0.1445593E-005  0.1041419E+03  0.7546771E-02  0.1272881E+00
         21   -1    0    0  501  502  0.00000000000E+00  0.00000000000E+00  0.16225757947E+03  0.16225757947E+03  0.00000000000E+00 0.  1.
          3   -1    0    0  502    0 -0.00000000000E+00 -0.00000000000E+00 -0.15642313857E+03  0.15642313857E+03  0.00000000000E+00 0. -1.
         23    2    1    2    0    0  0.39875389540E+02 -0.31893941885E+02 -0.87779700853E+02  0.13516451679E+03  0.89201460170E+02 0.  0.
         23    2    1    2    0    0 -0.56259940083E+02 -0.46076223628E+01  0.36180223192E+02  0.11351996786E+03  0.91604385872E+02 0.  0.
        -11    1    4    4    0    0 -0.65290503110E+02 -0.35815963790E+02  0.30808213100E+02  0.80590192039E+02  0.00000000000E+00 0.  1.
         11    1    4    4    0    0  0.90305630270E+01  0.31208341427E+02  0.53720100920E+01  0.32929775822E+02  0.00000000000E+00 0. -1.
        -13    1    3    3    0    0  0.53287789882E+02 -0.53787600351E+02 -0.74651367421E+02  0.10632742431E+03  0.00000000000E+00 0.  1.
         13    1    3    3    0    0 -0.13412400342E+02  0.21893658465E+02 -0.13128333432E+02  0.28837092479E+02  0.00000000000E+00 0. -1.
          3    1    1    2  501    0  0.16384550543E+02  0.36501564248E+02  0.57433918559E+02  0.69996233399E+02  0.00000000000E+00 0. -1.
<scales pt_clust_5="13000.00000" pt_clust_6="13000.00000" pt_clust_7="13000.00000" pt_clust_8="13000.00000" pt_clust_9="40.01022"></scales>
<clustering>
<clus scale="   40.010">  1  9  2 -1</clus>
<clus scale="   89.201">  7  8 -1 -1</clus>
<clus scale="   91.604">  5  6 -1 -1</clus>
<clus scale="  102.035">  2  7  1 -1</clus>
<clus scale="   40.010">  1  5  2 -1</clus>
</clustering>
</event>
<event>
 9    1  0.1445593E-005  0.1293958E+03  0.7546771E-02  0.1228556E+00
          1   -1    0    0  502    0 -0.00000000000E+00  0.00000000000E+00  0.29427894026E+03  0.29427894026E+03  0.00000000000E+00 0. -1.
         21   -1    0    0  501  502  0.00000000000E+00 -0.00000000000E+00 -0.10793015669E+03  0.10793015669E+03  0.00000000000E+00 0.  1.
         23    2    1    2    0    0 -0.54977533641E+01  0.90117865174E+02  0.18229744336E+03  0.22305763459E+03  0.91492598489E+02 0.  0.
         23    2    1    2    0    0 -0.35523730841E+02 -0.95224041182E+02  0.12985821180E+02  0.13685890805E+03  0.90731337971E+02 0.  0.
        -13    1    4    4    0    0 -0.11198574465E+02 -0.87837699156E+02  0.42235550234E+02  0.98105612310E+02  0.00000000000E+00 0. -1.
         13    1    4    4    0    0 -0.24325156376E+02 -0.73863420261E+01 -0.29249729055E+02  0.38753295744E+02  0.00000000000E+00 0.  1.
        -13    1    3    3    0    0  0.25832113263E+02  0.63409053782E+02  0.16454855888E+03  0.17822523504E+03  0.00000000000E+00 0. -1.
         13    1    3    3    0    0 -0.31329866627E+02  0.26708811393E+02  0.17748884480E+02  0.44832399547E+02  0.00000000000E+00 0.  1.
          1    1    1    2  501    0  0.41021484205E+02  0.51061760074E+01 -0.89344809695E+01  0.42292554309E+02  0.00000000000E+00 0. -1.
<scales pt_clust_5="13000.00000" pt_clust_6="13000.00000" pt_clust_7="13000.00000" pt_clust_8="13000.00000" pt_clust_9="41.33806"></scales>
<clustering>
<clus scale="   41.338">  2  9  1 -1</clus>
<clus scale="   90.731">  5  6 -1 -1</clus>
<clus scale="   91.493">  7  8 -1 -1</clus>
<clus scale="  128.859">  2  5  1 -1</clus>
<clus scale="   41.338">  2  5  1 -1</clus>
</clustering>
</event>
<event>
 9    1  0.1445593E-005  0.2378211E+03  0.7546771E-02  0.1121380E+00
          1   -1    0    0  502    0 -0.00000000000E+00  0.00000000000E+00  0.12110049507E+04  0.12110049507E+04  0.00000000000E+00 0. -1.
         21   -1    0    0  501  502  0.00000000000E+00 -0.00000000000E+00 -0.66985318244E+02  0.66985318244E+02  0.00000000000E+00 0. -1.
         23    2    1    2    0    0  0.20345598771E+03  0.20851253564E+02  0.64945655519E+03  0.68683798341E+03  0.90130375897E+02 0.  0.
         23    2    1    2    0    0 -0.25142941408E+03  0.73819144799E+01  0.41884341019E+03  0.49717340814E+03  0.92088829783E+02 0.  0.
        -13    1    3    3    0    0  0.16619777146E+03  0.27435131194E+02  0.60713701378E+03  0.63007121753E+03  0.00000000000E+00 0.  1.
         13    1    3    3    0    0  0.37258216244E+02 -0.65838776306E+01  0.42319541412E+02  0.56766765872E+02  0.00000000000E+00 0. -1.
        -13    1    4    4    0    0 -0.42565548993E+02  0.38555757529E+01  0.15423398171E+03  0.16004628249E+03  0.00000000000E+00 0.  1.
         13    1    4    4    0    0 -0.20886386509E+03  0.35263387270E+01  0.26460942849E+03  0.33712712565E+03  0.00000000000E+00 0. -1.
          1    1    1    2  501    0  0.47973426378E+02 -0.28233168044E+02  0.75719667087E+02  0.93978877414E+02  0.00000000000E+00 0. -1.
<scales pt_clust_5="13000.00000" pt_clust_6="13000.00000" pt_clust_7="13000.00000" pt_clust_8="13000.00000" pt_clust_9="55.66472"></scales>
<clustering>
<clus scale="   55.665">  2  9  1 -1</clus>
<clus scale="   90.130">  5  6 -1 -1</clus>
<clus scale="   92.089">  7  8 -1 -1</clus>
<clus scale="  237.070">  1  5  2 -1</clus>
<clus scale="   55.665">  2  5  1 -1</clus>
</clustering>
</event>
<event>
 9    1  0.1445593E-005  0.1257486E+03  0.7546771E-02  0.1234750E+00
         21   -1    0    0  501  502  0.00000000000E+00  0.00000000000E+00  0.35363698573E+02  0.35363698573E+02  0.00000000000E+00 0. -1.
         -1   -1    0    0    0  501 -0.00000000000E+00 -0.00000000000E+00 -0.94517399589E+03  0.94517399589E+03  0.00000000000E+00 0.  1.
         23    2    1    2    0    0  0.63082514103E+02 -0.17058534831E+02 -0.31188151189E+03  0.33118305919E+03  0.90231613319E+02 0.  0.
         23    2    1    2    0    0 -0.12599191956E+03  0.29742146350E+02 -0.25723978932E+03  0.30267400505E+03  0.93170194068E+02 0.  0.
        -11    1    3    3    0    0  0.20961025575E+02  0.34354693200E+02 -0.74531984158E+02  0.84703165233E+02  0.00000000000E+00 0. -1.
         11    1    3    3    0    0  0.42121488528E+02 -0.51413228031E+02 -0.23734952773E+03  0.24647989396E+03  0.00000000000E+00 0.  1.
        -11    1    4    4    0    0 -0.92485271772E+02  0.60792462999E+02 -0.15271797467E+03  0.18860548465E+03  0.00000000000E+00 0. -1.
         11    1    4    4    0    0 -0.33506647790E+02 -0.31050316649E+02 -0.10452181465E+03  0.11406852041E+03  0.00000000000E+00 0.  1.
         -1    1    1    2    0  502  0.62909405460E+02 -0.12683611518E+02 -0.34068899611E+03  0.34668063022E+03  0.00000000000E+00 0.  1.
<scales pt_clust_5="13000.00000" pt_clust_6="13000.00000" pt_clust_7="13000.00000" pt_clust_8="13000.00000" pt_clust_9="64.17532"></scales>
<clustering>
<clus scale="   64.175">  1  9  2 -1</clus>
<clus scale="   90.232">  5  6 -1 -1</clus>
<clus scale="   93.170">  7  8 -1 -1</clus>
<clus scale="  123.587">  2  5  1 -1</clus>
<clus scale="   64.175">  1  5  2 -1</clus>
</clustering>
</event>
<event>
 9    1  0.1445593E-005  0.1005318E+03  0.7546771E-02  0.1281267E+00
          3   -1    0    0  502    0 -0.00000000000E+00  0.00000000000E+00  0.16059182519E+03  0.16059182519E+03  0.00000000000E+00 0. -1.
         21   -1    0    0  501  502  0.00000000000E+00 -0.00000000000E+00 -0.11420742444E+03  0.11420742444E+03  0.00000000000E+00 0.  1.
         23    2    1    2    0    0 -0.26990992815E+02 -0.11638099077E+02  0.74374672660E+02  0.12160105115E+03  0.91603846344E+02 0.  0.
         23    2    1    2    0    0  0.17519839327E+02  0.40424015825E+02 -0.49116983199E+02  0.11625676264E+03  0.95718916604E+02 0.  0.
        -13    1    3    3    0    0  0.27388848015E+02  0.49042897093E+01  0.54844761342E+02  0.61499178041E+02  0.00000000000E+00 0. -1.
         13    1    3    3    0    0 -0.54379840830E+02 -0.16542388786E+02  0.19529911318E+02  0.60101873112E+02  0.00000000000E+00 0.  1.
        -13    1    4    4    0    0 -0.39846264703E+02  0.15052541435E+02 -0.18100214882E+02  0.46280898795E+02  0.00000000000E+00 0.  1.
         13    1    4    4    0    0  0.57366104030E+02  0.25371474390E+02 -0.31016768317E+02  0.69975863847E+02  0.00000000000E+00 0. -1.
          3    1    1    2  501    0  0.94711534883E+01 -0.28785916748E+02  0.21126711293E+02  0.36941435834E+02  0.00000000000E+00 0. -1.
<scales pt_clust_5="13000.00000" pt_clust_6="13000.00000" pt_clust_7="13000.00000" pt_clust_8="13000.00000" pt_clust_9="30.30400"></scales>
<clustering>
<clus scale="   30.304">  2  9  1 -1</clus>
<clus scale="   91.604">  5  6 -1 -1</clus>
<clus scale="   95.719">  7  8 -1 -1</clus>
<clus scale="   96.622">  1  5  2 -1</clus>
<clus scale="   30.304">  2  5  1 -1</clus>
</clustering>
</event>
<event>
 9    1  0.1459469E-005  0.1511539E+03  0.7546771E-02  0.1220257E+00
         21   -1    0    0  501  502  0.00000000000E+00  0.00000000000E+00  0.15138182288E+03  0.15138182288E+03  0.00000000000E+00 0. -1.
          1   -1    0    0  502    0 -0.00000000000E+00 -0.00000000000E+00 -0.52458742381E+03  0.52458742381E+03  0.00000000000E+00 0. -1.
         23    2    1    2    0    0  0.35255501186E+02  0.15513422982E+01 -0.16747106002E+03  0.19308674841E+03  0.89390041053E+02 0.  0.
         23    2    1    2    0    0  0.76170270403E+02 -0.55920120525E+02 -0.29993470148E+03  0.32717335638E+03  0.90291804751E+02 0.  0.
        -11    1    3    3    0    0 -0.29473092567E+02  0.69063298834E+01 -0.41622999268E+02  0.51466830541E+02  0.00000000000E+00 0.  1.
         11    1    3    3    0    0  0.64728593753E+02 -0.53549875852E+01 -0.12584806076E+03  0.14161991787E+03  0.00000000000E+00 0. -1.
        -13    1    4    4    0    0  0.57039804027E+02 -0.25385087182E+02 -0.27814192897E+03  0.28506293085E+03  0.00000000000E+00 0. -1.
         13    1    4    4    0    0  0.19130466376E+02 -0.30535033344E+02 -0.21792772508E+02  0.42110425534E+02  0.00000000000E+00 0.  1.
          1    1    1    2  501    0 -0.11142577159E+03  0.54368778227E+02  0.94200160570E+02  0.15570914190E+03  0.00000000000E+00 0. -1.
<scales pt_clust_5="13000.00000" pt_clust_6="13000.00000" pt_clust_7="13000.00000" pt_clust_8="13000.00000" pt_clust_9="121.22247"></scales>
<clustering>
<clus scale="   89.390">  5  6 -1 -1</clus>
<clus scale="   90.292">  7  8 -1 -1</clus>
<clus scale="   96.104">  2  5  1 -1</clus>
<clus scale="  121.222">  1  9  2 -1</clus>
<clus scale="  121.222">  1  5  2 -1</clus>
</clustering>
</event>
<event>
 9    1  0.1445593E-005  0.1080144E+03  0.7546771E-02  0.1264592E+00
          2   -1    0    0  502    0 -0.00000000000E+00  0.00000000000E+00  0.23300743378E+03  0.23300743378E+03  0.00000000000E+00 0. -1.
         21   -1    0    0  501  502  0.00000000000E+00 -0.00000000000E+00 -0.10909662012E+03  0.10909662012E+03  0.00000000000E+00 0. -1.
         23    2    1    2    0    0 -0.48371687656E+02 -0.44617683731E+02  0.11667915783E+03  0.16159686224E+03  0.90382311023E+02 0.  0.
         23    2    1    2    0    0  0.23888668698E+02  0.43169338589E+02  0.61815281884E+02  0.12066666899E+03  0.91132078014E+02 0.  0.
        -11    1    3    3    0    0 -0.20137362784E+02 -0.59530659239E+02  0.11320337388E+03  0.12947747536E+03  0.00000000000E+00 0. -1.
         11    1    3    3    0    0 -0.28234324871E+02  0.14912975508E+02  0.34757839573E+01  0.32119386880E+02  0.00000000000E+00 0.  1.
        -13    1    4    4    0    0  0.56550487080E+02  0.40998921256E+02  0.49855841561E+02  0.85816513975E+02  0.00000000000E+00 0.  1.
         13    1    4    4    0    0 -0.32661818381E+02  0.21704173336E+01  0.11959440323E+02  0.34850155010E+02  0.00000000000E+00 0. -1.
          2    1    1    2  501    0  0.24483018958E+02  0.14483451416E+01 -0.54583626057E+02  0.59840522679E+02  0.00000000000E+00 0. -1.
<scales pt_clust_5="13000.00000" pt_clust_6="13000.00000" pt_clust_7="13000.00000" pt_clust_8="13000.00000" pt_clust_9="24.52582"></scales>
<clustering>
<clus scale="   24.526">  2  9  1 -1</clus>
<clus scale="   90.382">  5  6 -1 -1</clus>
<clus scale="   91.132">  7  8 -1 -1</clus>
<clus scale="  107.383">  1  5  2 -1</clus>
<clus scale="   24.526">  2  5  1 -1</clus>
</clustering>
</event>
<event>
 9    1  0.1445593E-005  0.9504181E+02  0.7546771E-02  0.1291855E+00
         21   -1    0    0  501  502  0.00000000000E+00  0.00000000000E+00  0.60090866497E+03  0.60090866497E+03  0.00000000000E+00 0. -1.
          1   -1    0    0  502    0 -0.00000000000E+00 -0.00000000000E+00 -0.18442364658E+03  0.18442364658E+03  0.00000000000E+00 0. -1.
         23    2    1    2    0    0 -0.26353582991E+02  0.44053703741E+01 -0.15966868305E+03  0.18596419358E+03  0.91513246699E+02 0.  0.
         23    2    1    2    0    0 -0.13711955070E+01 -0.38923656907E+02  0.22557848431E+03  0.24600830373E+03  0.90097179074E+02 0.  0.
        -13    1    4    4    0    0  0.36979299642E+02 -0.11298663919E+01  0.14077676533E+03  0.14555700896E+03  0.00000000000E+00 0.  1.
         13    1    4    4    0    0 -0.38350495149E+02 -0.37793790515E+02  0.84801718980E+02  0.10045129477E+03  0.00000000000E+00 0. -1.
        -13    1    3    3    0    0 -0.16046984098E+02 -0.43472576875E+02 -0.75740907872E+02  0.88792205536E+02  0.00000000000E+00 0.  1.
         13    1    3    3    0    0 -0.10306598893E+02  0.47877947249E+02 -0.83927775181E+02  0.97171988043E+02  0.00000000000E+00 0. -1.
          1    1    1    2  501    0  0.27724778498E+02  0.34518286533E+02  0.35057521713E+03  0.35335981423E+03  0.00000000000E+00 0. -1.
<scales pt_clust_5="13000.00000" pt_clust_6="13000.00000" pt_clust_7="13000.00000" pt_clust_8="13000.00000" pt_clust_9="44.27387"></scales>
<clustering>
<clus scale="   44.274">  1  9  2 -1</clus>
<clus scale="   90.097">  5  6 -1 -1</clus>
<clus scale="   91.513">  7  8 -1 -1</clus>
<clus scale="   93.679">  1  5  2 -1</clus>
<clus scale="   44.274">  1  5  2 -1</clus>
</clustering>
</event>
<event>
 9    1  0.1445593E-005  0.1101690E+03  0.7546771E-02  0.1261904E+00
         21   -1    0    0  501  502  0.00000000000E+00  0.00000000000E+00  0.10464207651E+03  0.10464207651E+03  0.00000000000E+00 0.  1.
          2   -1    0    0  502    0 -0.00000000000E+00 -0.00000000000E+00 -0.18395010172E+03  0.18395010172E+03  0.00000000000E+00 0. -1.
         23    2    1    2    0    0 -0.57051607109E+02  0.13973020881E+02 -0.10671042370E+03  0.15444189256E+03  0.94947630131E+02 0.  0.
         23    2    1    2    0    0  0.39985745055E+02 -0.31705103023E+02  0.32213788430E+02  0.10907400488E+03  0.90858885154E+02 0.  0.
        -11    1    3    3    0    0 -0.89746105661E+00 -0.34012090603E+02 -0.53520360364E+02  0.63419687140E+02  0.00000000000E+00 0. -1.
         11    1    3    3    0    0 -0.56154146052E+02  0.47985111485E+02 -0.53190063332E+02  0.91022205424E+02  0.00000000000E+00 0.  1.
        -13    1    4    4    0    0  0.68438837606E+02 -0.12804982879E+02  0.16947096319E+02  0.71659236341E+02  0.00000000000E+00 0. -1.
         13    1    4    4    0    0 -0.28453092551E+02 -0.18900120144E+02  0.15266692111E+02  0.37414768544E+02  0.00000000000E+00 0.  1.
          2    1    1    2  501    0  0.17065862054E+02  0.17732082141E+02 -0.48113899500E+01  0.25076280784E+02  0.00000000000E+00 0. -1.
<scales pt_clust_5="13000.00000" pt_clust_6="13000.00000" pt_clust_7="13000.00000" pt_clust_8="13000.00000" pt_clust_9="24.61037"></scales>
<clustering>
<clus scale="   24.610">  1  9  2 -1</clus>
<clus scale="   90.859">  7  8 -1 -1</clus>
<clus scale="   94.948">  5  6 -1 -1</clus>
<clus scale="  106.665">  1  7  2 -1</clus>
<clus scale="   24.610">  1  5  2 -1</clus>
</clustering>
</event>
<event>
 9    1  0.1445593E-005  0.1359018E+03  0.7546771E-02  0.1229953E+00
         21   -1    0    0  501  502  0.00000000000E+00  0.00000000000E+00  0.22326186883E+03  0.22326186883E+03  0.00000000000E+00 0.  1.
          1   -1    0    0  502    0 -0.00000000000E+00 -0.00000000000E+00 -0.20859085844E+03  0.20859085844E+03  0.00000000000E+00 0. -1.
         23    2    1    2    0    0  0.45971960592E+02 -0.33195461273E+01 -0.10316149304E+03  0.14596301071E+03  0.92403821906E+02 0.  0.
         23    2    1    2    0    0 -0.11663656310E+03 -0.43094174688E+02  0.71527444966E+02  0.18949532892E+03  0.12381885380E+03 0.  0.
        -11    1    3    3    0    0  0.58624774657E+02  0.20577810095E+02 -0.32106291104E+02  0.69936574125E+02  0.00000000000E+00 0. -1.
         11    1    3    3    0    0 -0.12652814064E+02 -0.23897356222E+02 -0.71055201934E+02  0.76026436587E+02  0.00000000000E+00 0.  1.
        -13    1    4    4    0    0 -0.10318815694E+03  0.23029653903E+02  0.58293347463E+02  0.12073224528E+03  0.00000000000E+00 0. -1.
         13    1    4    4    0    0 -0.13448406161E+02 -0.66123828592E+02  0.13234097503E+02  0.68763083647E+02  0.00000000000E+00 0.  1.
          1    1    1    2  501    0  0.70664602507E+02  0.46413720816E+02  0.46305058459E+02  0.96394387629E+02  0.00000000000E+00 0. -1.
<scales pt_clust_5="13000.00000" pt_clust_6="13000.00000" pt_clust_7="13000.00000" pt_clust_8="13000.00000" pt_clust_9="84.54419"></scales>
<clustering>
<clus scale="   84.544">  1  9  2 -1</clus>
<clus scale="   92.404">  5  6 -1 -1</clus>
<clus scale="  108.059">  2  5  1 -1</clus>
<clus scale="  123.819">  7  8 -1 -1</clus>
<clus scale="   84.544">  1  5  2 -1</clus>
</clustering>
</event>
<event>
 9    1  0.1445593E-005  0.1067667E+03  0.7546771E-02  0.1267263E+00
         21   -1    0    0  501  502  0.00000000000E+00  0.00000000000E+00  0.29239442845E+02  0.29239442845E+02  0.00000000000E+00 0.  1.
          1   -1    0    0  502    0 -0.00000000000E+00 -0.00000000000E+00 -0.69497492717E+03  0.69497492717E+03  0.00000000000E+00 0. -1.
         23    2    1    2    0    0  0.47622295595E+02  0.41096289778E+02 -0.42939924969E+03  0.44378046438E+03  0.92739402941E+02 0.  0.
         23    2    1    2    0    0 -0.23654848866E+02 -0.31573624002E+02 -0.23431342464E+03  0.25456478453E+03  0.91345514114E+02 0.  0.
        -11    1    3    3    0    0  0.69768713650E+02  0.69836484398E+01 -0.30263425902E+03  0.31065083209E+03  0.00000000000E+00 0.  1.
         11    1    3    3    0    0 -0.22146418055E+02  0.34112641339E+02 -0.12676499068E+03  0.13312963229E+03  0.00000000000E+00 0. -1.
        -11    1    4    4    0    0  0.10281576346E+02 -0.51948317361E+02 -0.85451278026E+02  0.10052989309E+03  0.00000000000E+00 0.  1.
         11    1    4    4    0    0 -0.33936425212E+02  0.20374693359E+02 -0.14886214662E+03  0.15403489144E+03  0.00000000000E+00 0. -1.
          1    1    1    2  501    0 -0.23967446730E+02 -0.95226657768E+01 -0.20228099880E+01  0.25869121100E+02  0.00000000000E+00 0. -1.
<scales pt_clust_5="13000.00000" pt_clust_6="13000.00000" pt_clust_7="13000.00000" pt_clust_8="13000.00000" pt_clust_9="25.78991"></scales>
<clustering>
<clus scale="   25.790">  1  9  2 -1</clus>
<clus scale="   91.346">  7  8 -1 -1</clus>
<clus scale="   92.739">  5  6 -1 -1</clus>
<clus scale="  105.558">  1  7  2 -1</clus>
<clus scale="   25.790">  1  5  2 -1</clus>
</clustering>
</event>
<event>
 9    1  0.1445593E-005  0.1635958E+03  0.7546771E-02  0.1184816E+00
         21   -1    0    0  501  502  0.00000000000E+00  0.00000000000E+00  0.23704819153E+03  0.23704819153E+03  0.00000000000E+00 0. -1.
          2   -1    0    0  502    0 -0.00000000000E+00 -0.00000000000E+00 -0.98935433924E+03  0.98935433924E+03  0.00000000000E+00 0. -1.
         23    2    1    2    0    0 -0.13300943704E+03 -0.25012008740E+02 -0.79659034158E+03  0.81295479050E+03  0.89566780493E+02 0.  0.
         23    2    1    2    0    0  0.15094223208E+03 -0.49549268514E+02 -0.12916454336E+03  0.22380219286E+03  0.90361799631E+02 0.  0.
        -11    1    4    4    0    0  0.11362497293E+03  0.11125274308E+01 -0.54094035186E+02  0.12584926234E+03  0.00000000000E+00 0.  1.
         11    1    4    4    0    0  0.37317259150E+02 -0.50661795945E+02 -0.75070508176E+02  0.97952930516E+02  0.00000000000E+00 0. -1.
        -11    1    3    3    0    0 -0.11381835073E+03 -0.55088502444E+02 -0.63612691996E+03  0.64857290906E+03  0.00000000000E+00 0. -1.
         11    1    3    3    0    0 -0.19191086307E+02  0.30076493704E+02 -0.16046342162E+03  0.16438188144E+03  0.00000000000E+00 0.  1.
          2    1    1    2  501    0 -0.17932795037E+02  0.74561277254E+02  0.17344873724E+03  0.18964554741E+03  0.00000000000E+00 0. -1.
<scales pt_clust_5="13000.00000" pt_clust_6="13000.00000" pt_clust_7="13000.00000" pt_clust_8="13000.00000" pt_clust_9="76.68748"></scales>
<clustering>
<clus scale="   76.687">  1  9  2 -1</clus>
<clus scale="   89.567">  7  8 -1 -1</clus>
<clus scale="   90.362">  5  6 -1 -1</clus>
<clus scale="  163.158">  2  7  1 -1</clus>
<clus scale="   76.687">  1  5  2 -1</clus>
</clustering>
</event>
<event>
 9    1  0.1445593E-005  0.1331734E+03  0.7546771E-02  0.1225771E+00
         21   -1    0    0  501  502  0.00000000000E+00  0.00000000000E+00  0.29582759608E+03  0.29582759608E+03  0.00000000000E+00 0.  1.
          1   -1    0    0  502    0 -0.00000000000E+00 -0.00000000000E+00 -0.10047525128E+03  0.10047525128E+03  0.00000000000E+00 0. -1.
         23    2    1    2    0    0 -0.34372689597E+02 -0.77281520506E+02 -0.19166116671E+02  0.12491295564E+03  0.89899895757E+02 0.  0.
         23    2    1    2    0    0  0.19496187424E+02  0.96856810331E+02  0.17392817074E+03  0.22393387008E+03  0.10066790232E+03 0.  0.
        -11    1    4    4    0    0 -0.24482441881E+02  0.46774154578E+02  0.13899330751E+03  0.14868204676E+03  0.00000000000E+00 0. -1.
         11    1    4    4    0    0  0.43978629305E+02  0.50082655753E+02  0.34934863235E+02  0.75251823314E+02  0.00000000000E+00 0.  1.
        -13    1    3    3    0    0  0.43909174414E+01 -0.54426066796E+02 -0.46962365861E+02  0.72020418703E+02  0.00000000000E+00 0. -1.
         13    1    3    3    0    0 -0.38763607038E+02 -0.22855453710E+02  0.27796249189E+02  0.52892536939E+02  0.00000000000E+00 0.  1.
          1    1    1    2  501    0  0.14876502173E+02 -0.19575289825E+02  0.40590290730E+02  0.47456021643E+02  0.00000000000E+00 0. -1.
<scales pt_clust_5="13000.00000" pt_clust_6="13000.00000" pt_clust_7="13000.00000" pt_clust_8="13000.00000" pt_clust_9="24.58663"></scales>
<clustering>
<clus scale="   24.587">  1  9  2 -1</clus>
<clus scale="   89.900">  7  8 -1 -1</clus>
<clus scale="  100.668">  5  6 -1 -1</clus>
<clus scale="  125.232">  2  7  1 -1</clus>
<clus scale="   24.587">  1  5  2 -1</clus>
</clustering>
</event>
<event>
 9    1  0.1445593E-005  0.1542577E+03  0.7546771E-02  0.1195416E+00
         21   -1    0    0  501  502  0.00000000000E+00  0.00000000000E+00  0.53163174060E+03  0.53163174060E+03  0.00000000000E+00 0. -1.
         -2   -1    0    0    0  501 -0.00000000000E+00 -0.00000000000E+00 -0.11955396778E+03  0.11955396778E+03  0.00000000000E+00 0.  1.
         23    2    1    2    0    0 -0.11128790921E+03  0.54976647330E+02 -0.40016530688E+02  0.15883224718E+03  0.90658311961E+02 0.  0.
         23    2    1    2    0    0  0.12872409984E+03 -0.24110021801E+02  0.37129508481E+03  0.40411921015E+03  0.91110421908E+02 0.  0.
        -11    1    4    4    0    0  0.52963969054E+02 -0.51451519414E+02  0.22900124185E+03  0.24061174044E+03  0.00000000000E+00 0. -1.
         11    1    4    4    0    0  0.75760130783E+02  0.27341497614E+02  0.14229384296E+03  0.16350746972E+03  0.00000000000E+00 0.  1.
        -13    1    3    3    0    0  0.65450953379E+00  0.35515238329E+02 -0.26691714698E+02  0.44432062408E+02  0.00000000000E+00 0. -1.
         13    1    3    3    0    0 -0.11194241874E+03  0.19461409001E+02 -0.13324815989E+02  0.11440018477E+03  0.00000000000E+00 0.  1.
         -2    1    1    2    0  502 -0.17436190629E+02 -0.30866625530E+02  0.80799218699E+02  0.88234251046E+02  0.00000000000E+00 0.  1.
<scales pt_clust_5="13000.00000" pt_clust_6="13000.00000" pt_clust_7="13000.00000" pt_clust_8="13000.00000" pt_clust_9="35.45094"></scales>
<clustering>
<clus scale="   35.451">  1  9  2 -1</clus>
<clus scale="   90.658">  7  8 -1 -1</clus>
<clus scale="   91.110">  5  6 -1 -1</clus>
<clus scale="  153.991">  2  7  1 -1</clus>
<clus scale="   35.451">  1  5  2 -1</clus>
</clustering>
</event>
<event>
 9    1  0.1445593E-005  0.1189954E+03  0.7546771E-02  0.1245852E+00
          1   -1    0    0  502    0 -0.00000000000E+00  0.00000000000E+00  0.16294553772E+03  0.16294553772E+03  0.00000000000E+00 0. -1.
         21   -1    0    0  501  502  0.00000000000E+00 -0.00000000000E+00 -0.17644453707E+03  0.17644453707E+03  0.00000000000E+00 0. -1.
         23    2    1    2    0    0  0.63349093571E+02 -0.57133411755E+02  0.52379665109E+02  0.13339908400E+03  0.88172285322E+02 0.  0.
         23    2    1    2    0    0 -0.54763407806E+02  0.84420331522E+01 -0.99561350939E+02  0.14616551362E+03  0.91551056857E+02 0.  0.
        -11    1    3    3    0    0  0.50236296813E+02 -0.14592622346E+02 -0.13372535957E+02  0.53994952193E+02  0.00000000000E+00 0.  1.
         11    1    3    3    0    0  0.13112796758E+02 -0.42540789410E+02  0.65752201066E+02  0.79404131803E+02  0.00000000000E+00 0. -1.
        -11    1    4    4    0    0  0.55794464073E+01  0.25670096377E+02  0.24648451562E+01  0.26384835263E+02  0.00000000000E+00 0.  1.
         11    1    4    4    0    0 -0.60342854213E+02 -0.17228063225E+02 -0.10202619610E+03  0.11978067835E+03  0.00000000000E+00 0. -1.
          1    1    1    2  501    0 -0.85856857647E+01  0.48691378603E+02  0.33682686481E+02  0.59825477172E+02  0.00000000000E+00 0. -1.
<scales pt_clust_5="13000.00000" pt_clust_6="13000.00000" pt_clust_7="13000.00000" pt_clust_8="13000.00000" pt_clust_9="49.44256"></scales>
<clustering>
<clus scale="   49.443">  2  9  1 -1</clus>
<clus scale="   88.172">  5  6 -1 -1</clus>
<clus scale="   91.551">  7  8 -1 -1</clus>
<clus scale="  116.416">  1  5  2 -1</clus>
<clus scale="   49.443">  2  5  1 -1</clus>
</clustering>
</event>
<event>
 9    1  0.1445593E-005  0.9244959E+02  0.7546771E-02  0.1307567E+00
         -1   -1    0    0    0  501 -0.00000000000E+00  0.00000000000E+00  0.17113422483E+03  0.17113422483E+03  0.00000000000E+00 0.  1.
         21   -1    0    0  501  502  0.00000000000E+00 -0.00000000000E+00 -0.97532538702E+02  0.97532538702E+02  0.00000000000E+00 0.  1.
         23    2    1    2    0    0 -0.81756639557E+01  0.17554091020E+01  0.11174197555E+03  0.14451422914E+03  0.91258809891E+02 0.  0.
         23    2    1    2    0    0  0.31535469810E+02  0.16104902510E+01 -0.21953618096E+01  0.81151980577E+02  0.74724459202E+02 0.  0.
        -13    1    4    4    0    0  0.99869995890E+01  0.34079905725E+02  0.15008333349E+02  0.38554250154E+02  0.00000000000E+00 0.  1.
         13    1    4    4    0    0  0.21548470221E+02 -0.32469415474E+02 -0.17203695159E+02  0.42597730423E+02  0.00000000000E+00 0. -1.
        -13    1    3    3    0    0 -0.45534764795E+02 -0.18233972987E+02  0.64929392598E+02  0.81373942998E+02  0.00000000000E+00 0.  1.
         13    1    3    3    0    0  0.37359100839E+02  0.19989382089E+02  0.46812582950E+02  0.63140286144E+02  0.00000000000E+00 0. -1.
         -1    1    1    2    0  502 -0.23359805855E+02 -0.33658993529E+01 -0.35944927606E+02  0.43000553818E+02  0.00000000000E+00 0.  1.
<scales pt_clust_5="13000.00000" pt_clust_6="13000.00000" pt_clust_7="13000.00000" pt_clust_8="13000.00000" pt_clust_9="23.60106"></scales>
<clustering>
<clus scale="   23.601">  2  9  1 -1</clus>
<clus scale="   74.724">  5  6 -1 -1</clus>
<clus scale="   76.174">  2  5  1 -1</clus>
<clus scale="   91.259">  7  8 -1 -1</clus>
<clus scale="   23.601">  2  5  1 -1</clus>
</clustering>
</event>
<event>
 9    1  0.1445593E-005  0.1233676E+03  0.7546771E-02  0.1244392E+00
         21   -1    0    0  501  502  0.00000000000E+00  0.00000000000E+00  0.43999961609E+03  0.43999961609E+03  0.00000000000E+00 0. -1.
          1   -1    0    0  502    0 -0.00000000000E+00 -0.00000000000E+00 -0.11173357828E+03  0.11173357828E+03  0.00000000000E+00 0. -1.
         23    2    1    2    0    0  0.21376110368E+02 -0.60794747865E+02 -0.35334809609E+02  0.11324414059E+03  0.86155366321E+02 0.  0.
         23    2    1    2    0    0  0.74699324472E+02  0.58872447318E+01  0.26573646109E+03  0.29076376417E+03  0.91175934727E+02 0.  0.
        -11    1    3    3    0    0 -0.15665595770E+02 -0.66278008867E+02 -0.33127333004E+02  0.75733780720E+02  0.00000000000E+00 0. -1.
         11    1    3    3    0    0  0.37041706137E+02  0.54832610020E+01 -0.22074766056E+01  0.37510359872E+02  0.00000000000E+00 0.  1.
        -13    1    4    4    0    0  0.42098811731E+02 -0.20854152565E+02  0.41775322260E+02  0.62867982140E+02  0.00000000000E+00 0.  1.
         13    1    4    4    0    0  0.32600512741E+02  0.26741397297E+02  0.22396113883E+03  0.22789578203E+03  0.00000000000E+00 0. -1.
          1    1    1    2  501    0 -0.96075434840E+02  0.54907503133E+02  0.97864386324E+02  0.14772528961E+03  0.00000000000E+00 0. -1.
<scales pt_clust_5="13000.00000" pt_clust_6="13000.00000" pt_clust_7="13000.00000" pt_clust_8="13000.00000" pt_clust_9="83.10554"></scales>
<clustering>
<clus scale="   86.155">  5  6 -1 -1</clus>
<clus scale="   91.176">  7  8 -1 -1</clus>
<clus scale="  107.590">  2  5  1 -1</clus>
<clus scale="   83.106">  1  9  2 -1</clus>
<clus scale="   83.106">  1  5  2 -1</clus>
</clustering>
</event>
<event>
 9    1  0.1445593E-005  0.9312586E+02  0.7546771E-02  0.1296455E+00
         -1   -1    0    0    0  501 -0.00000000000E+00  0.00000000000E+00  0.50392660944E+02  0.50392660944E+02  0.00000000000E+00 0.  1.
         21   -1    0    0  501  502  0.00000000000E+00 -0.00000000000E+00 -0.44340379464E+03  0.44340379464E+03  0.00000000000E+00 0.  1.
         23    2    1    2    0    0 -0.14499792133E+02  0.19806513400E+02 -0.30173467268E+02  0.99784522806E+02  0.91891081829E+02 0.  0.
         23    2    1    2    0    0 -0.15787045552E+02 -0.14442132758E+01 -0.13296759651E+03  0.16142922566E+03  0.90153738795E+02 0.  0.
        -13    1    4    4    0    0 -0.12969669114E+02  0.24421899233E+02 -0.18052292825E+01  0.27711014630E+02  0.00000000000E+00 0.  1.
         13    1    4    4    0    0 -0.28173764381E+01 -0.25866112509E+02 -0.13116236722E+03  0.13371821103E+03  0.00000000000E+00 0. -1.
        -13    1    3    3    0    0  0.16082040593E+02  0.41510118644E+02  0.91491921708E+01  0.45446998766E+02  0.00000000000E+00 0.  1.
         13    1    3    3    0    0 -0.30581832726E+02 -0.21703605244E+02 -0.39322659439E+02  0.54337524040E+02  0.00000000000E+00 0. -1.
         -1    1    1    2    0  502  0.30286837685E+02 -0.18362300125E+02 -0.22987006992E+03  0.23258270711E+03  0.00000000000E+00 0.  1.
<scales pt_clust_5="13000.00000" pt_clust_6="13000.00000" pt_clust_7="13000.00000" pt_clust_8="13000.00000" pt_clust_9="35.41845"></scales>
<clustering>
<clus scale="   35.418">  2  9  1 -1</clus>
<clus scale="   90.154">  5  6 -1 -1</clus>
<clus scale="   91.412">  2  5  1 -1</clus>
<clus scale="   91.891">  7  8 -1 -1</clus>
<clus scale="   35.418">  2  5  1 -1</clus>
</clustering>
</event>
<event>
 9    1  0.2383230E-005  0.1030073E+03  0.7546771E-02  0.1274644E+00
          1   -1    0    0  502    0 -0.00000000000E+00  0.00000000000E+00  0.13778253352E+03  0.13778253352E+03  0.00000000000E+00 0. -1.
         21   -1    0    0  501  502  0.00000000000E+00 -0.00000000000E+00 -0.44471741232E+03  0.44471741232E+03  0.00000000000E+00 0. -1.
         23    2    1    2    0    0 -0.43428600590E+02  0.24638617773E+02  0.10398768687E+03  0.14729398410E+03  0.91591341824E+02 0.  0.
         23    2    1    2    0    0  0.20815254365E+02  0.18340647299E+02 -0.28309995258E+03  0.29846825271E+03  0.90377323293E+02 0.  0.
        -13    1    3    3    0    0 -0.59173441190E+02  0.47866528493E+02  0.79367405715E+02  0.10996311101E+03  0.00000000000E+00 0. -1.
         13    1    3    3    0    0  0.15744840600E+02 -0.23227910720E+02  0.24620281158E+02  0.37330873098E+02  0.00000000000E+00 0.  1.
        -13    1    4    4    0    0 -0.28884235353E+02  0.21938301718E+02 -0.18405625221E+03  0.18759608767E+03  0.00000000000E+00 0. -1.
         13    1    4    4    0    0  0.49699489718E+02 -0.35976544186E+01 -0.99043700374E+02  0.11087216503E+03  0.00000000000E+00 0.  1.
          1    1    1    2  501    0  0.22613346226E+02 -0.42979265072E+02 -0.12782261309E+03  0.13673770903E+03  0.00000000000E+00 0. -1.
<scales pt_clust_5="13000.00000" pt_clust_6="13000.00000" pt_clust_7="13000.00000" pt_clust_8="13000.00000" pt_clust_9="48.56522"></scales>
<clustering>
<clus scale="   48.565">  2  9  1 -1</clus>
<clus scale="   90.377">  7  8 -1 -1</clus>
<clus scale="   91.591">  5  6 -1 -1</clus>
<clus scale="  101.929">  2  7  1 -1</clus>
<clus scale="   48.565">  2  5  1 -1</clus>
</clustering>
</event>
<event>
 9    1  0.1445593E-005  0.1307235E+03  0.7546771E-02  0.1227110E+00
         21   -1    0    0  501  502  0.00000000000E+00  0.00000000000E+00  0.13639789057E+03  0.13639789057E+03  0.00000000000E+00 0.  1.
          2   -1    0    0  502    0 -0.00000000000E+00 -0.00000000000E+00 -0.58455407666E+03  0.58455407666E+03  0.00000000000E+00 0. -1.
         23    2    1    2    0    0  0.90758476226E+02 -0.51763051227E+02 -0.43162936206E+03  0.45316681413E+03  0.90220511856E+02 0.  0.
         23    2    1    2    0    0 -0.71664955249E+02 -0.76121054227E+01 -0.10624554451E+03  0.15851749743E+03  0.92983177529E+02 0.  0.
        -11    1    3    3    0    0  0.85592404154E+02 -0.11831778932E+02 -0.19712393918E+03  0.21522987255E+03  0.00000000000E+00 0.  1.
         11    1    3    3    0    0  0.51660720715E+01 -0.39931272295E+02 -0.23450542288E+03  0.23793694158E+03  0.00000000000E+00 0. -1.
        -11    1    4    4    0    0  0.14524720091E+02  0.19190507502E+02 -0.39516099349E+02  0.46268403686E+02  0.00000000000E+00 0.  1.
         11    1    4    4    0    0 -0.86189675339E+02 -0.26802612925E+02 -0.66729445160E+02  0.11224909374E+03  0.00000000000E+00 0. -1.
          2    1    1    2  501    0 -0.19093520977E+02  0.59375156650E+02  0.89718720486E+02  0.10926765567E+03  0.00000000000E+00 0. -1.
<scales pt_clust_5="13000.00000" pt_clust_6="13000.00000" pt_clust_7="13000.00000" pt_clust_8="13000.00000" pt_clust_9="62.36964"></scales>
<clustering>
<clus scale="   62.370">  1  9  2 -1</clus>
<clus scale="   90.221">  5  6 -1 -1</clus>
<clus scale="   92.983">  7  8 -1 -1</clus>
<clus scale="  128.773">  2  5  1 -1</clus>
<clus scale="   62.370">  1  5  2 -1</clus>
</clustering>
</event>
<event>
 9    1  0.1445593E-005  0.1099529E+03  0.7546771E-02  0.1261662E+00
          4   -1    0    0  502    0 -0.00000000000E+00  0.00000000000E+00  0.78315943561E+02  0.78315943561E+02  0.00000000000E+00 0. -1.
         21   -1    0    0  501  502  0.00000000000E+00 -0.00000000000E+00 -0.20800584204E+03  0.20800584204E+03  0.00000000000E+00 0.  1.
         23    2    1    2    0    0 -0.60643286536E+02  0.22987622005E+02 -0.11701519455E+02  0.11465005591E+03  0.93817220141E+02 0.  0.
         23    2    1    2    0    0  0.41223034486E+02 -0.10999196442E+02 -0.10444768054E+03  0.14513460376E+03  0.91293013670E+02 0.  0.
        -11    1    3    3    0    0 -0.71031750830E+01  0.43521810987E+02 -0.31270995363E+02  0.54059950785E+02  0.00000000000E+00 0.  1.
         11    1    3    3    0    0 -0.53540111453E+02 -0.20534188983E+02  0.19569475909E+02  0.60590105123E+02  0.00000000000E+00 0. -1.
        -13    1    4    4    0    0  0.63759765196E+02 -0.19235390898E+00 -0.38196790970E+02  0.74325900588E+02  0.00000000000E+00 0.  1.
         13    1    4    4    0    0 -0.22536730710E+02 -0.10806842533E+02 -0.66250889571E+02  0.70808703176E+02  0.00000000000E+00 0. -1.
          4    1    1    2  501    0  0.19420252049E+02 -0.11988425563E+02 -0.13540698486E+02  0.26537125930E+02  0.00000000000E+00 0. -1.
<scales pt_clust_5="13000.00000" pt_clust_6="13000.00000" pt_clust_7="13000.00000" pt_clust_8="13000.00000" pt_clust_9="22.82254"></scales>
<clustering>
<clus scale="   22.823">  2  9  1 -1</clus>
<clus scale="   91.293">  7  8 -1 -1</clus>
<clus scale="   93.817">  5  6 -1 -1</clus>
<clus scale="  107.807">  2  7  1 -1</clus>
<clus scale="   22.823">  2  5  1 -1</clus>
</clustering>
</event>
<event>
 9    1  0.1445593E-005  0.1084069E+03  0.7546771E-02  0.1264368E+00
          1   -1    0    0  502    0 -0.00000000000E+00  0.00000000000E+00  0.30890327510E+03  0.30890327510E+03  0.00000000000E+00 0. -1.
         21   -1    0    0  501  502  0.00000000000E+00 -0.00000000000E+00 -0.78866219331E+02  0.78866219331E+02  0.00000000000E+00 0. -1.
         23    2    1    2    0    0 -0.73310593865E+02  0.49550716714E+01  0.19348101676E+03  0.22642115538E+03  0.91829406241E+02 0.  0.
         23    2    1    2    0    0  0.16136852475E+02  0.98197887568E+01  0.36122064286E+02  0.10229479099E+03  0.93822142778E+02 0.  0.
        -13    1    3    3    0    0 -0.14497670361E+02  0.21818369917E+02  0.30140808177E+01  0.26368701047E+02  0.00000000000E+00 0. -1.
         13    1    3    3    0    0 -0.58812923503E+02 -0.16863298245E+02  0.19046693594E+03  0.20005245434E+03  0.00000000000E+00 0.  1.
        -13    1    4    4    0    0 -0.10192639501E+02  0.39742396109E+02 -0.90890646524E+01  0.42023315490E+02  0.00000000000E+00 0. -1.
         13    1    4    4    0    0  0.26329491977E+02 -0.29922607352E+02  0.45211128939E+02  0.60271475496E+02  0.00000000000E+00 0.  1.
          1    1    1    2  501    0  0.57173741389E+02 -0.14774860428E+02  0.43397472606E+00  0.59053548066E+02  0.00000000000E+00 0. -1.
<scales pt_clust_5="13000.00000" pt_clust_6="13000.00000" pt_clust_7="13000.00000" pt_clust_8="13000.00000" pt_clust_9="59.05195"></scales>
<clustering>
<clus scale="   59.052">  2  9  1 -1</clus>
<clus scale="   91.829">  5  6 -1 -1</clus>
<clus scale="   93.822">  7  8 -1 -1</clus>
<clus scale="  106.687">  1  5  2 -1</clus>
<clus scale="   59.052">  2  5  1 -1</clus>
</clustering>
</event>
<event>
 9    1  0.1445593E-005  0.1149667E+03  0.7546771E-02  0.1252979E+00
         21   -1    0    0  501  502  0.00000000000E+00  0.00000000000E+00  0.33141495918E+03  0.33141495918E+03  0.00000000000E+00 0.  1.
          1   -1    0    0  502    0 -0.00000000000E+00 -0.00000000000E+00 -0.59062640020E+02  0.59062640020E+02  0.00000000000E+00 0. -1.
         23    2    1    2    0    0 -0.54813147587E+02  0.18537839327E+02  0.44495129373E+02  0.12019088756E+03  0.95487697010E+02 0.  0.
         23    2    1    2    0    0  0.71097286286E+02 -0.34592774800E+02  0.17675684362E+03  0.21430296841E+03  0.91822090593E+02 0.  0.
        -11    1    3    3    0    0 -0.77780354271E+02  0.15599757536E+02  0.53131582224E+02  0.95478274887E+02  0.00000000000E+00 0.  1.
         11    1    3    3    0    0  0.22967206685E+02  0.29380817913E+01 -0.86364528511E+01  0.24712612678E+02  0.00000000000E+00 0. -1.
        -13    1    4    4    0    0 -0.22303739114E+02 -0.32779737179E+01  0.29334957302E+02  0.36996508079E+02  0.00000000000E+00 0.  1.
         13    1    4    4    0    0  0.93401025400E+02 -0.31314801082E+02  0.14742188631E+03  0.17730646034E+03  0.00000000000E+00 0. -1.
          1    1    1    2  501    0 -0.16284138699E+02  0.16054935473E+02  0.51100346174E+02  0.55983743224E+02  0.00000000000E+00 0. -1.
<scales pt_clust_5="13000.00000" pt_clust_6="13000.00000" pt_clust_7="13000.00000" pt_clust_8="13000.00000" pt_clust_9="22.86775"></scales>
<clustering>
<clus scale="   22.868">  1  9  2 -1</clus>
<clus scale="   91.822">  7  8 -1 -1</clus>
<clus scale="   95.488">  5  6 -1 -1</clus>
<clus scale="  111.941">  1  7  2 -1</clus>
<clus scale="   22.868">  1  5  2 -1</clus>
</clustering>
</event>
<event>
 9    1  0.1445593E-005  0.3719412E+03  0.7546771E-02  0.1053967E+00
         21   -1    0    0  501  502  0.00000000000E+00  0.00000000000E+00  0.46499287774E+03  0.46499287774E+03  0.00000000000E+00 0. -1.
          2   -1    0    0  502    0 -0.00000000000E+00 -0.00000000000E+00 -0.40934080251E+03  0.40934080251E+03  0.00000000000E+00 0. -1.
         23    2    1    2    0    0  0.10672858499E+03 -0.38497159190E+03 -0.11137070649E+03  0.42458796876E+03  0.90980171100E+02 0.  0.
         23    2    1    2    0    0 -0.91658336588E+02  0.29260236719E+03  0.10111586684E+03  0.33527777934E+03  0.90384594071E+02 0.  0.
        -13    1    3    3    0    0  0.90970480693E+02 -0.18882898989E+03 -0.30347454899E+02  0.21178523036E+03  0.00000000000E+00 0.  1.
         13    1    3    3    0    0  0.15758104293E+02 -0.19614260201E+03 -0.81023251587E+02  0.21280273840E+03  0.00000000000E+00 0. -1.
        -13    1    4    4    0    0 -0.11375049262E+02  0.18531452272E+03  0.59447870735E+02  0.19494848912E+03  0.00000000000E+00 0. -1.
         13    1    4    4    0    0 -0.80283287326E+02  0.10728784447E+03  0.41667996107E+02  0.14032929022E+03  0.00000000000E+00 0.  1.
          2    1    1    2  501    0 -0.15070248398E+02  0.92369224712E+02  0.65906914871E+02  0.11446793214E+03  0.00000000000E+00 0. -1.
<scales pt_clust_5="13000.00000" pt_clust_6="13000.00000" pt_clust_7="13000.00000" pt_clust_8="13000.00000" pt_clust_9="93.59052"></scales>
<clustering>
<clus scale="   90.385">  7  8 -1 -1</clus>
<clus scale="   90.980">  5  6 -1 -1</clus>
<clus scale="   93.591">  1  9  2 -1</clus>
<clus scale="  371.796">  1  7  2 -1</clus>
<clus scale="   93.591">  1  5  2 -1</clus>
</clustering>
</event>
<event>
 9    1  0.1445593E-005  0.2384580E+03  0.7546771E-02  0.1121266E+00
         21   -1    0    0  501  502  0.00000000000E+00  0.00000000000E+00  0.52579275597E+02  0.52579275597E+02  0.00000000000E+00 0.  1.
          1   -1    0    0  502    0 -0.00000000000E+00 -0.00000000000E+00 -0.11896229261E+04  0.11896229261E+04  0.00000000000E+00 0. -1.
         23    2    1    2    0    0  0.16210201400E+03  0.15114318978E+03 -0.60148386801E+03  0.64626041274E+03  0.82148346547E+02 0.  0.
         23    2    1    2    0    0 -0.17640417371E+03 -0.13319548612E+03 -0.48719092431E+03  0.54240471507E+03  0.89377895306E+02 0.  0.
        -11    1    3    3    0    0  0.53662592607E+02  0.43288375557E+01 -0.13960278490E+03  0.14962402959E+03  0.00000000000E+00 0. -1.
         11    1    3    3    0    0  0.10843942139E+03  0.14681435223E+03 -0.46188108311E+03  0.49663638315E+03  0.00000000000E+00 0.  1.
        -11    1    4    4    0    0 -0.36765907760E+02 -0.27877343622E+02 -0.36071642923E+02  0.58566557727E+02  0.00000000000E+00 0.  1.
         11    1    4    4    0    0 -0.13963826595E+03 -0.10531814250E+03 -0.45111928139E+03  0.48383815734E+03  0.00000000000E+00 0. -1.
          1    1    1    2  501    0  0.14302159714E+02 -0.17947703661E+02 -0.48368858233E+02  0.53537073939E+02  0.00000000000E+00 0. -1.
<scales pt_clust_5="13000.00000" pt_clust_6="13000.00000" pt_clust_7="13000.00000" pt_clust_8="13000.00000" pt_clust_9="22.94933"></scales>
<clustering>
<clus scale="   22.949">  1  9  2 -1</clus>
<clus scale="   82.148">  5  6 -1 -1</clus>
<clus scale="   89.378">  7  8 -1 -1</clus>
<clus scale="  235.844">  2  5  1 -1</clus>
<clus scale="   22.949">  1  5  2 -1</clus>
</clustering>
</event>
<event>
 9    1  0.1445593E-005  0.2900889E+03  0.7546771E-02  0.1090320E+00
          2   -1    0    0  502    0 -0.00000000000E+00  0.00000000000E+00  0.64480136592E+03  0.64480136592E+03  0.00000000000E+00 0. -1.
         21   -1    0    0  501  502  0.00000000000E+00 -0.00000000000E+00 -0.29533710209E+03  0.29533710209E+03  0.00000000000E+00 0. -1.
         23    2    1    2    0    0 -0.24170073480E+03  0.14844518516E+03  0.38078881965E+03  0.48341937820E+03  0.90768672181E+02 0.  0.
         23    2    1    2    0    0  0.24263645245E+03 -0.10056714261E+03  0.11641000302E+03  0.30141718254E+03  0.91185694586E+02 0.  0.
        -11    1    3    3    0    0 -0.12875038391E+03  0.97886016319E+02  0.28194191148E+03  0.32503780549E+03  0.00000000000E+00 0. -1.
         11    1    3    3    0    0 -0.11295035089E+03  0.50559168840E+02  0.98846908169E+02  0.15838157271E+03  0.00000000000E+00 0.  1.
        -11    1    4    4    0    0  0.18982052060E+03 -0.34018441241E+02  0.75177465325E+02  0.20698003690E+03  0.00000000000E+00 0. -1.
         11    1    4    4    0    0  0.52815931855E+02 -0.66548701367E+02  0.41232537697E+02  0.94437145638E+02  0.00000000000E+00 0.  1.
          2    1    1    2  501    0 -0.93571764782E+00 -0.47878042550E+02 -0.14773455884E+03  0.15530190727E+03  0.00000000000E+00 0. -1.
<scales pt_clust_5="13000.00000" pt_clust_6="13000.00000" pt_clust_7="13000.00000" pt_clust_8="13000.00000" pt_clust_9="47.88719"></scales>
<clustering>
<clus scale="   47.887">  2  9  1 -1</clus>
<clus scale="   90.769">  5  6 -1 -1</clus>
<clus scale="   91.186">  7  8 -1 -1</clus>
<clus scale="  289.958">  1  5  2 -1</clus>
<clus scale="   47.887">  2  5  1 -1</clus>
</clustering>
</event>
<event>
 9    1  0.1445593E-005  0.9609787E+02  0.7546771E-02  0.1288854E+00
         21   -1    0    0  501  502  0.00000000000E+00  0.00000000000E+00  0.14259865842E+03  0.14259865842E+03  0.00000000000E+00 0. -1.
          2   -1    0    0  502    0 -0.00000000000E+00 -0.00000000000E+00 -0.97268877545E+02  0.97268877545E+02  0.00000000000E+00 0. -1.
         23    2    1    2    0    0  0.17639471048E+02  0.47372964841E+01  0.14870026811E+02  0.93294079704E+02  0.90272225483E+02 0.  0.
         23    2    1    2    0    0 -0.49194216120E+02 -0.16422566398E+02  0.39783636752E+02  0.11165666578E+03  0.90524591538E+02 0.  0.
        -11    1    4    4    0    0  0.63276884466E+01 -0.41658642821E+02  0.24657484443E+02  0.48820832662E+02  0.00000000000E+00 0.  1.
         11    1    4    4    0    0 -0.55521904566E+02  0.25236076423E+02  0.15126152309E+02  0.62835833118E+02  0.00000000000E+00 0. -1.
        -11    1    3    3    0    0 -0.20123953803E+02 -0.21232662863E+02 -0.20228692980E+02  0.35566831580E+02  0.00000000000E+00 0. -1.
         11    1    3    3    0    0  0.37763424852E+02  0.25969959348E+02  0.35098719791E+02  0.57727248124E+02  0.00000000000E+00 0.  1.
          2    1    1    2  501    0  0.31554745071E+02  0.11685269914E+02 -0.93238826832E+01  0.34916790485E+02  0.00000000000E+00 0. -1.
<scales pt_clust_5="13000.00000" pt_clust_6="13000.00000" pt_clust_7="13000.00000" pt_clust_8="13000.00000" pt_clust_9="33.64890"></scales>
<clustering>
<clus scale="   33.649">  1  9  2 -1</clus>
<clus scale="   90.272">  7  8 -1 -1</clus>
<clus scale="   90.525">  5  6 -1 -1</clus>
<clus scale="   95.860">  2  7  1 -1</clus>
<clus scale="   33.649">  1  5  2 -1</clus>
</clustering>
</event>
<event>
 9    1  0.1445593E-005  0.9406953E+02  0.7546771E-02  0.1295416E+00
         21   -1    0    0  501  502  0.00000000000E+00  0.00000000000E+00  0.18888720236E+03  0.18888720236E+03  0.00000000000E+00 0. -1.
         -2   -1    0    0    0  501 -0.00000000000E+00 -0.00000000000E+00 -0.11938480748E+03  0.11938480748E+03  0.00000000000E+00 0.  1.
         23    2    1    2    0    0 -0.31684805107E+01 -0.16114647530E+02 -0.72191226513E+02  0.11604489386E+03  0.89359515843E+02 0.  0.
         23    2    1    2    0    0  0.18868320900E+02 -0.44227586558E+01  0.76228999480E+02  0.12184326298E+03  0.93055607275E+02 0.  0.
        -11    1    3    3    0    0 -0.29133419025E+02 -0.25429609310E+02 -0.78712933637E+02  0.87699185034E+02  0.00000000000E+00 0.  1.
         11    1    3    3    0    0  0.25964938515E+02  0.93149617800E+01  0.65217071241E+01  0.28345708826E+02  0.00000000000E+00 0. -1.
        -11    1    4    4    0    0  0.25033868072E+02 -0.36167524345E+02  0.58282573883E+01  0.44370631639E+02  0.00000000000E+00 0.  1.
         11    1    4    4    0    0 -0.61655471719E+01  0.31744765689E+02  0.70400742091E+02  0.77472631345E+02  0.00000000000E+00 0. -1.
         -2    1    1    2    0  502 -0.15699840389E+02  0.20537406186E+02  0.65464621907E+02  0.70383852996E+02  0.00000000000E+00 0.  1.
<scales pt_clust_5="13000.00000" pt_clust_6="13000.00000" pt_clust_7="13000.00000" pt_clust_8="13000.00000" pt_clust_9="25.85092"></scales>
<clustering>
<clus scale="   25.851">  1  9  2 -1</clus>
<clus scale="   89.360">  5  6 -1 -1</clus>
<clus scale="   90.415">  2  5  1 -1</clus>
<clus scale="   93.056">  7  8 -1 -1</clus>
<clus scale="   25.851">  1  5  2 -1</clus>
</clustering>
</event>
<event>
 9    1  0.1445593E-005  0.1093109E+03  0.7546771E-02  0.1263833E+00
          2   -1    0    0  502    0 -0.00000000000E+00  0.00000000000E+00  0.29747431079E+03  0.29747431079E+03  0.00000000000E+00 0. -1.
         21   -1    0    0  501  502  0.00000000000E+00 -0.00000000000E+00 -0.36653910442E+03  0.36653910442E+03  0.00000000000E+00 0. -1.
         23    2    1    2    0    0  0.45074012343E+02  0.43851317418E+02  0.26489242903E+03  0.28577375886E+03  0.86856419821E+02 0.  0.
         23    2    1    2    0    0 -0.14488671409E+02 -0.16013785831E+02 -0.88624839951E+02  0.12944582754E+03  0.91844962173E+02 0.  0.
        -13    1    4    4    0    0  0.13309189182E+02 -0.32502253824E+02 -0.10746314375E-01  0.35121661917E+02  0.00000000000E+00 0.  1.
         13    1    4    4    0    0 -0.27797860591E+02  0.16488467994E+02 -0.88614093637E+02  0.94324165627E+02  0.00000000000E+00 0. -1.
        -13    1    3    3    0    0 -0.19554208197E+02  0.37500029422E+02  0.10428567683E+03  0.11253497971E+03  0.00000000000E+00 0.  1.
         13    1    3    3    0    0  0.64628220540E+02  0.63512879956E+01  0.16060675220E+03  0.17323877915E+03  0.00000000000E+00 0. -1.
          2    1    1    2  501    0 -0.30585340933E+02 -0.27837531587E+02 -0.24533238272E+03  0.24879382881E+03  0.00000000000E+00 0. -1.
<scales pt_clust_5="13000.00000" pt_clust_6="13000.00000" pt_clust_7="13000.00000" pt_clust_8="13000.00000" pt_clust_9="41.35688"></scales>
<clustering>
<clus scale="   41.357">  2  9  1 -1</clus>
<clus scale="   86.856">  7  8 -1 -1</clus>
<clus scale="   91.845">  5  6 -1 -1</clus>
<clus scale="  105.154">  1  7  2 -1</clus>
<clus scale="   41.357">  2  5  1 -1</clus>
</clustering>
</event>
<event>
 9    1  0.1445593E-005  0.1837308E+03  0.7546771E-02  0.1164434E+00
         21   -1    0    0  501  502  0.00000000000E+00  0.00000000000E+00  0.48787404177E+02  0.48787404177E+02  0.00000000000E+00 0.  1.
          2   -1    0    0  502    0 -0.00000000000E+00 -0.00000000000E+00 -0.85563734689E+03  0.85563734689E+03  0.00000000000E+00 0. -1.
         23    2    1    2    0    0 -0.15171031700E+03  0.34675653564E+01 -0.40885044885E+03  0.44584597976E+03  0.92692523157E+02 0.  0.
         23    2    1    2    0    0  0.16673843441E+03  0.15828054677E+02 -0.38771007899E+03  0.43204506965E+03  0.91058245296E+02 0.  0.
        -11    1    4    4    0    0  0.18048266983E+02 -0.29990752349E+02 -0.75033316552E+02  0.82796037105E+02  0.00000000000E+00 0. -1.
         11    1    4    4    0    0  0.14869016742E+03  0.45818807025E+02 -0.31267676244E+03  0.34924903255E+03  0.00000000000E+00 0.  1.
        -11    1    3    3    0    0 -0.52069280616E+02 -0.29603290324E+02 -0.23710931334E+03  0.24455754180E+03  0.00000000000E+00 0. -1.
         11    1    3    3    0    0 -0.99641036388E+02  0.33070855680E+02 -0.17174113551E+03  0.20128843796E+03  0.00000000000E+00 0.  1.
          2    1    1    2  501    0 -0.15028117402E+02 -0.19295620033E+02 -0.10289414872E+02  0.26533701655E+02  0.00000000000E+00 0. -1.
<scales pt_clust_5="13000.00000" pt_clust_6="13000.00000" pt_clust_7="13000.00000" pt_clust_8="13000.00000" pt_clust_9="24.45742"></scales>
<clustering>
<clus scale="   24.457">  1  9  2 -1</clus>
<clus scale="   91.058">  5  6 -1 -1</clus>
<clus scale="   92.693">  7  8 -1 -1</clus>
<clus scale="  182.912">  1  5  2 -1</clus>
<clus scale="   24.457">  1  5  2 -1</clus>
</clustering>
</event>
<event>
 9    1  0.1445593E-005  0.9719441E+02  0.7546771E-02  0.1289473E+00
          2   -1    0    0  502    0 -0.00000000000E+00  0.00000000000E+00  0.45065565695E+03  0.45065565695E+03  0.00000000000E+00 0. -1.
         21   -1    0    0  501  502  0.00000000000E+00 -0.00000000000E+00 -0.66499816232E+02  0.66499816232E+02  0.00000000000E+00 0. -1.
         23    2    1    2    0    0  0.75352381884E+01  0.10185990115E+02  0.32267107963E+03  0.33560507536E+03  0.91398067624E+02 0.  0.
         23    2    1    2    0    0  0.36258317979E+02  0.28051992770E+02  0.17669128700E+02  0.10875047655E+03  0.97020039782E+02 0.  0.
        -11    1    4    4    0    0 -0.27849495223E+02  0.18875883213E+02 -0.14266104110E+02  0.36543331508E+02  0.00000000000E+00 0.  1.
         11    1    4    4    0    0  0.64107813202E+02  0.91761095566E+01  0.31935232810E+02  0.72207145039E+02  0.00000000000E+00 0. -1.
        -13    1    3    3    0    0  0.14562209541E+02  0.49861271088E+02  0.18629131202E+03  0.19339766606E+03  0.00000000000E+00 0.  1.
         13    1    3    3    0    0 -0.70269713530E+01 -0.39675280973E+02  0.13637976761E+03  0.14220740930E+03  0.00000000000E+00 0. -1.
          2    1    1    2  501    0 -0.43793556168E+02 -0.38237982885E+02  0.43815632390E+02  0.72799921282E+02  0.00000000000E+00 0. -1.
<scales pt_clust_5="13000.00000" pt_clust_6="13000.00000" pt_clust_7="13000.00000" pt_clust_8="13000.00000" pt_clust_9="58.13793"></scales>
<clustering>
<clus scale="   58.138">  2  9  1 -1</clus>
<clus scale="   91.398">  7  8 -1 -1</clus>
<clus scale="   91.583">  1  7  2 -1</clus>
<clus scale="   97.020">  5  6 -1 -1</clus>
<clus scale="   58.138">  2  5  1 -1</clus>
</clustering>
</event>
<event>
 9    1  0.1445593E-005  0.1051743E+03  0.7546771E-02  0.1270559E+00
         21   -1    0    0  501  502  0.00000000000E+00  0.00000000000E+00  0.22422335794E+02  0.22422335794E+02  0.00000000000E+00 0. -1.
         -1   -1    0    0    0  501 -0.00000000000E+00 -0.00000000000E+00 -0.85439260001E+03  0.85439260001E+03  0.00000000000E+00 0.  1.
         23    2    1    2    0    0  0.11276201004E+02  0.39501277427E+02 -0.48122890694E+03  0.49152402633E+03  0.91252966867E+02 0.  0.
         23    2    1    2    0    0 -0.22776936973E+02 -0.77011325367E+02 -0.26799311772E+03  0.29371284565E+03  0.89428135720E+02 0.  0.
        -11    1    3    3    0    0 -0.38275493798E+01  0.67404981972E+02 -0.29643682985E+03  0.30402775502E+03  0.00000000000E+00 0.  1.
         11    1    3    3    0    0  0.15103750383E+02 -0.27903704545E+02 -0.18479207708E+03  0.18749627131E+03  0.00000000000E+00 0. -1.
        -13    1    4    4    0    0 -0.13106398451E+02 -0.96617552866E+02 -0.23114039572E+03  0.25086373141E+03  0.00000000000E+00 0. -1.
         13    1    4    4    0    0 -0.96705385219E+01  0.19606227499E+02 -0.36852722000E+02  0.42849114236E+02  0.00000000000E+00 0.  1.
         -1    1    1    2    0  502  0.11500735969E+02  0.37510047940E+02 -0.82748239558E+02  0.91578063827E+02  0.00000000000E+00 0.  1.
<scales pt_clust_5="13000.00000" pt_clust_6="13000.00000" pt_clust_7="13000.00000" pt_clust_8="13000.00000" pt_clust_9="39.23354"></scales>
<clustering>
<clus scale="   39.234">  1  9  2 -1</clus>
<clus scale="   89.428">  7  8 -1 -1</clus>
<clus scale="   91.253">  5  6 -1 -1</clus>
<clus scale="  103.595">  1  7  2 -1</clus>
<clus scale="   39.234">  1  5  2 -1</clus>
</clustering>
</event>
<event>
 9    1  0.1445593E-005  0.1383406E+03  0.7546771E-02  0.1220553E+00
         21   -1    0    0  501  502  0.00000000000E+00  0.00000000000E+00  0.85945512477E+02  0.85945512477E+02  0.00000000000E+00 0. -1.
          2   -1    0    0  502    0 -0.00000000000E+00 -0.00000000000E+00 -0.62504747489E+03  0.62504747489E+03  0.00000000000E+00 0. -1.
         23    2    1    2    0    0 -0.40978459858E+02 -0.85462127241E+02 -0.25612389853E+03  0.28843247503E+03  0.92794568219E+02 0.  0.
         23    2    1    2    0    0  0.11364553857E+03 -0.16460974954E+02 -0.24398850027E+03  0.29145365073E+03  0.11058286542E+03 0.  0.
        -11    1    3    3    0    0  0.23846197558E+02 -0.25515061552E+01 -0.77323052210E+02  0.80956813948E+02  0.00000000000E+00 0.  1.
         11    1    3    3    0    0 -0.64824657416E+02 -0.82910621086E+02 -0.17880084632E+03  0.20747566108E+03  0.00000000000E+00 0. -1.
        -13    1    4    4    0    0 -0.35067345572E+01  0.31842295659E+02 -0.60545223539E+02  0.68497832619E+02  0.00000000000E+00 0.  1.
         13    1    4    4    0    0  0.11715227313E+03 -0.48303270613E+02 -0.18344327673E+03  0.22295581811E+03  0.00000000000E+00 0. -1.
          2    1    1    2  501    0 -0.72667078713E+02  0.10192310220E+03 -0.38989563616E+02  0.13110686161E+03  0.00000000000E+00 0. -1.
<scales pt_clust_5="13000.00000" pt_clust_6="13000.00000" pt_clust_7="13000.00000" pt_clust_8="13000.00000" pt_clust_9="125.17517"></scales>
<clustering>
<clus scale="   92.795">  5  6 -1 -1</clus>
<clus scale="  110.583">  7  8 -1 -1</clus>
<clus scale="  125.175">  1  9  2 -1</clus>
<clus scale="  124.581">  2  5  1 -1</clus>
<clus scale="  125.175">  1  5  2 -1</clus>
</clustering>
</event>
<event>
 9    1  0.1445593E-005  0.1169490E+03  0.7546771E-02  0.1248644E+00
          1   -1    0    0  502    0 -0.00000000000E+00  0.00000000000E+00  0.32767112978E+03  0.32767112978E+03  0.00000000000E+00 0. -1.
         21   -1    0    0  501  502  0.00000000000E+00 -0.00000000000E+00 -0.15171827018E+03  0.15171827018E+03  0.00000000000E+00 0. -1.
         23    2    1    2    0    0  0.35357299076E+02  0.58992109810E+02  0.15308149418E+03  0.19006468226E+03  0.89221252875E+02 0.  0.
         23    2    1    2    0    0 -0.57228180000E+02 -0.63375599821E+02  0.13072405430E+03  0.17918956021E+03  0.87912393190E+02 0.  0.
        -13    1    4    4    0    0 -0.19115284088E+02 -0.76134329038E+02  0.10635790991E+03  0.13218863470E+03  0.00000000000E+00 0. -1.
         13    1    4    4    0    0 -0.38112895913E+02  0.12758729217E+02  0.24366144389E+02  0.47000925506E+02  0.00000000000E+00 0.  1.
        -13    1    3    3    0    0  0.26749634011E+02  0.80196451778E+02  0.92539527484E+02  0.12534184435E+03  0.00000000000E+00 0.  1.
         13    1    3    3    0    0  0.86076650651E+01 -0.21204341967E+02  0.60541966693E+02  0.64722837911E+02  0.00000000000E+00 0. -1.
          1    1    1    2  501    0  0.21870880924E+02  0.43834900105E+01 -0.10785268888E+03  0.11013515749E+03  0.00000000000E+00 0. -1.
<scales pt_clust_5="13000.00000" pt_clust_6="13000.00000" pt_clust_7="13000.00000" pt_clust_8="13000.00000" pt_clust_9="22.30584"></scales>
<clustering>
<clus scale="   22.306">  2  9  1 -1</clus>
<clus scale="   87.912">  5  6 -1 -1</clus>
<clus scale="   89.221">  7  8 -1 -1</clus>
<clus scale="  115.954">  2  5  1 -1</clus>
<clus scale="   22.306">  2  5  1 -1</clus>
</clustering>
</event>
<event>
 9    1  0.1445593E-005  0.1364074E+03  0.7546771E-02  0.1219728E+00
          3   -1    0    0  502    0 -0.00000000000E+00  0.00000000000E+00  0.73854826795E+03  0.73854826795E+03  0.00000000000E+00 0. -1.
         21   -1    0    0  501  502  0.00000000000E+00 -0.00000000000E+00 -0.41804881703E+02  0.41804881703E+02  0.00000000000E+00 0.  1.
         23    2    1    2    0    0  0.89284307393E+02  0.32274938811E+02  0.35699309667E+03  0.38140356067E+03  0.94927581884E+02 0.  0.
         23    2    1    2    0    0 -0.10859661865E+03 -0.26864278179E+01  0.14787981748E+03  0.20385288627E+03  0.88809438362E+02 0.  0.
        -11    1    4    4    0    0 -0.62130566338E+02  0.29573264601E+02  0.12529120205E+03  0.14294289267E+03  0.00000000000E+00 0.  1.
         11    1    4    4    0    0 -0.46466052317E+02 -0.32259692418E+02  0.22588615430E+02  0.60909993596E+02  0.00000000000E+00 0. -1.
        -13    1    3    3    0    0  0.18998621849E+02  0.41359263267E+02  0.55917223790E+02  0.72099044421E+02  0.00000000000E+00 0. -1.
         13    1    3    3    0    0  0.70285685545E+02 -0.90843244553E+01  0.30107587288E+03  0.30930451625E+03  0.00000000000E+00 0.  1.
          3    1    1    2  501    0  0.19312311261E+02 -0.29588510994E+02  0.19187047209E+03  0.19509670271E+03  0.00000000000E+00 0. -1.
<scales pt_clust_5="13000.00000" pt_clust_6="13000.00000" pt_clust_7="13000.00000" pt_clust_8="13000.00000" pt_clust_9="35.33336"></scales>
<clustering>
<clus scale="   35.333">  2  9  1 -1</clus>
<clus scale="   88.809">  5  6 -1 -1</clus>
<clus scale="   94.928">  7  8 -1 -1</clus>
<clus scale="  132.223">  2  5  1 -1</clus>
<clus scale="   35.333">  2  5  1 -1</clus>
</clustering>
</event>
<event>
 9    1  0.1445593E-005  0.1042592E+03  0.7546771E-02  0.1271893E+00
          1   -1    0    0  502    0 -0.00000000000E+00  0.00000000000E+00  0.74087462000E+03  0.74087462000E+03  0.00000000000E+00 0. -1.
         21   -1    0    0  501  502  0.00000000000E+00 -0.00000000000E+00 -0.23131907025E+02  0.23131907025E+02  0.00000000000E+00 0.  1.
         23    2    1    2    0    0  0.22078042259E+02  0.57534935220E+02  0.42889896864E+03  0.44266445539E+03  0.90552670042E+02 0.  0.
         23    2    1    2    0    0 -0.23925545227E+02 -0.28861833528E+02  0.26873470190E+03  0.28627166223E+03  0.91256163840E+02 0.  0.
        -11    1    3    3    0    0 -0.31716691759E+02  0.26329141819E+02  0.10408230207E+03  0.11194774606E+03  0.00000000000E+00 0.  1.
         11    1    3    3    0    0  0.53794734018E+02  0.31205793401E+02  0.32481666657E+03  0.33071670933E+03  0.00000000000E+00 0. -1.
        -13    1    4    4    0    0 -0.51959836333E+02  0.77520578484E+01  0.14489573806E+03  0.15412557835E+03  0.00000000000E+00 0.  1.
         13    1    4    4    0    0  0.28034291106E+02 -0.36613891376E+02  0.12383896384E+03  0.13214608388E+03  0.00000000000E+00 0. -1.
          1    1    1    2  501    0  0.18475029678E+01 -0.28673101692E+02  0.20109042432E+02  0.35070409399E+02  0.00000000000E+00 0. -1.
<scales pt_clust_5="13000.00000" pt_clust_6="13000.00000" pt_clust_7="13000.00000" pt_clust_8="13000.00000" pt_clust_9="28.73256"></scales>
<clustering>
<clus scale="   28.733">  2  9  1 -1</clus>
<clus scale="   90.553">  5  6 -1 -1</clus>
<clus scale="   91.256">  7  8 -1 -1</clus>
<clus scale="  103.644">  1  5  2 -1</clus>
<clus scale="   28.733">  2  5  1 -1</clus>
</clustering>
</event>
<event>
 9    1  0.1445593E-005  0.1304662E+03  0.7546771E-02  0.1227901E+00
          1   -1    0    0  502    0 -0.00000000000E+00  0.00000000000E+00  0.22622698893E+03  0.22622698893E+03  0.00000000000E+00 0. -1.
         21   -1    0    0  501  502  0.00000000000E+00 -0.00000000000E+00 -0.22997633887E+03  0.22997633887E+03  0.00000000000E+00 0.  1.
         23    2    1    2    0    0  0.51169377664E+02 -0.80646518795E+02  0.12317210573E+03  0.18220534395E+03  0.94367650849E+02 0.  0.
         23    2    1    2    0    0 -0.25497990408E+02  0.78322925790E+02  0.20967358245E+02  0.12387962891E+03  0.90121607440E+02 0.  0.
        -13    1    3    3    0    0  0.36251154281E+02  0.12000018654E+02  0.21401177888E+02  0.43773931163E+02  0.00000000000E+00 0.  1.
         13    1    3    3    0    0  0.14918223382E+02 -0.92646537449E+02  0.10177092785E+03  0.13843141278E+03  0.00000000000E+00 0. -1.
        -13    1    4    4    0    0  0.25025237288E+02  0.65279350353E+02  0.12219400738E+02  0.70971612904E+02  0.00000000000E+00 0.  1.
         13    1    4    4    0    0 -0.50523227695E+02  0.13043575437E+02  0.87479575067E+01  0.52908016004E+02  0.00000000000E+00 0. -1.
          1    1    1    2  501    0 -0.25671387256E+02  0.23235930046E+01 -0.14788881392E+03  0.15011835494E+03  0.00000000000E+00 0. -1.
<scales pt_clust_5="13000.00000" pt_clust_6="13000.00000" pt_clust_7="13000.00000" pt_clust_8="13000.00000" pt_clust_9="25.77633"></scales>
<clustering>
<clus scale="   25.776">  2  9  1 -1</clus>
<clus scale="   90.122">  7  8 -1 -1</clus>
<clus scale="   94.368">  5  6 -1 -1</clus>
<clus scale="  127.429">  2  7  1 -1</clus>
<clus scale="   25.776">  2  5  1 -1</clus>
</clustering>
</event>
<event>
 9    1  0.1445593E-005  0.1761815E+03  0.7546771E-02  0.1171779E+00
         21   -1    0    0  501  502  0.00000000000E+00  0.00000000000E+00  0.12387841341E+04  0.12387841341E+04  0.00000000000E+00 0. -1.
          1   -1    0    0  502    0 -0.00000000000E+00 -0.00000000000E+00 -0.41037294306E+02  0.41037294306E+02  0.00000000000E+00 0. -1.
         23    2    1    2    0    0 -0.90310595791E+02  0.12223122583E+03  0.28148118083E+03  0.33226415417E+03  0.89840618358E+02 0.  0.
         23    2    1    2    0    0  0.13196322645E+03 -0.81023308604E+02  0.74966465890E+03  0.77095340308E+03  0.91613204558E+02 0.  0.
        -11    1    3    3    0    0  0.11609840605E+02  0.47061894389E+02  0.60012542206E+02  0.77143473635E+02  0.00000000000E+00 0. -1.
         11    1    3    3    0    0 -0.10192043640E+03  0.75169331438E+02  0.22146863863E+03  0.25512068054E+03  0.00000000000E+00 0.  1.
        -13    1    4    4    0    0  0.13054239471E+03 -0.51863881776E+02  0.69426099302E+03  0.70832867052E+03  0.00000000000E+00 0. -1.
         13    1    4    4    0    0  0.14208317391E+01 -0.29159426828E+02  0.55403665878E+02  0.62624732562E+02  0.00000000000E+00 0.  1.
          1    1    1    2  501    0 -0.41652630657E+02 -0.41207917223E+02  0.16660100001E+03  0.17660387110E+03  0.00000000000E+00 0. -1.
<scales pt_clust_5="13000.00000" pt_clust_6="13000.00000" pt_clust_7="13000.00000" pt_clust_8="13000.00000" pt_clust_9="58.59210"></scales>
<clustering>
<clus scale="   58.592">  1  9  2 -1</clus>
<clus scale="   89.841">  5  6 -1 -1</clus>
<clus scale="   91.613">  7  8 -1 -1</clus>
<clus scale="  175.266">  2  5  1 -1</clus>
<clus scale="   58.592">  1  5  2 -1</clus>
</clustering>
</event>
<event>
 9    1  0.1445593E-005  0.1206399E+03  0.7546771E-02  0.1242105E+00
         21   -1    0    0  501  502  0.00000000000E+00  0.00000000000E+00  0.95466989820E+02  0.95466989820E+02  0.00000000000E+00 0.  1.
          2   -1    0    0  502    0 -0.00000000000E+00 -0.00000000000E+00 -0.29511531061E+03  0.29511531061E+03  0.00000000000E+00 0. -1.
         23    2    1    2    0    0 -0.83488762352E+02 -0.67221241357E+02 -0.16206090047E+03  0.21436220753E+03  0.90544750426E+02 0.  0.
         23    2    1    2    0    0  0.28706341900E+02  0.37114238313E+02 -0.48491965125E+02  0.11276574458E+03  0.90349995673E+02 0.  0.
        -13    1    4    4    0    0  0.49446954039E+02  0.39870608807E+02 -0.40537156338E+01  0.63648246801E+02  0.00000000000E+00 0. -1.
         13    1    4    4    0    0 -0.20740612139E+02 -0.27563704939E+01 -0.44438249492E+02  0.49117497779E+02  0.00000000000E+00 0.  1.
        -13    1    3    3    0    0 -0.59493875681E+02 -0.58294672739E+02 -0.16850041289E+03  0.18796323911E+03  0.00000000000E+00 0.  1.
         13    1    3    3    0    0 -0.23994886671E+02 -0.89265686178E+01  0.64395124197E+01  0.26398968424E+02  0.00000000000E+00 0. -1.
          2    1    1    2  501    0  0.54782420452E+02  0.30107003043E+02  0.10904544803E+02  0.63454348316E+02  0.00000000000E+00 0. -1.
<scales pt_clust_5="13000.00000" pt_clust_6="13000.00000" pt_clust_7="13000.00000" pt_clust_8="13000.00000" pt_clust_9="62.51036"></scales>
<clustering>
<clus scale="   62.510">  1  9  2 -1</clus>
<clus scale="   90.350">  5  6 -1 -1</clus>
<clus scale="   90.545">  7  8 -1 -1</clus>
<clus scale="  120.494">  1  5  2 -1</clus>
<clus scale="   62.510">  1  5  2 -1</clus>
</clustering>
</event>
<event>
 9    1  0.1445593E-005  0.1043554E+03  0.7546771E-02  0.1272068E+00
         -1   -1    0    0    0  501 -0.00000000000E+00  0.00000000000E+00  0.32777601903E+03  0.32777601903E+03  0.00000000000E+00 0.  1.
         21   -1    0    0  501  502  0.00000000000E+00 -0.00000000000E+00 -0.83107596725E+02  0.83107596725E+02  0.00000000000E+00 0.  1.
         23    2    1    2    0    0 -0.41246052730E+02 -0.60903591514E+01  0.19082352002E+03  0.21605278600E+03  0.92341005018E+02 0.  0.
         23    2    1    2    0    0  0.52766256011E+02  0.53755434352E+02  0.76700648132E+02  0.14072852301E+03  0.90816316086E+02 0.  0.
        -13    1    4    4    0    0  0.59601113630E+02  0.72667044754E+02  0.47582799098E+02  0.10534189532E+03  0.00000000000E+00 0.  1.
         13    1    4    4    0    0 -0.68348576187E+01 -0.18911610402E+02  0.29117849035E+02  0.35386627687E+02  0.00000000000E+00 0. -1.
        -13    1    3    3    0    0  0.14712101490E+02  0.30907555426E+02  0.63613386613E+02  0.72238396086E+02  0.00000000000E+00 0.  1.
         13    1    3    3    0    0 -0.55958154220E+02 -0.36997914577E+02  0.12721013340E+03  0.14381438992E+03  0.00000000000E+00 0. -1.
         -1    1    1    2    0  502 -0.11520203281E+02 -0.47665075201E+02 -0.22855745842E+02  0.54102306749E+02  0.00000000000E+00 0.  1.
<scales pt_clust_5="13000.00000" pt_clust_6="13000.00000" pt_clust_7="13000.00000" pt_clust_8="13000.00000" pt_clust_9="49.03748"></scales>
<clustering>
<clus scale="   49.037">  2  9  1 -1</clus>
<clus scale="   90.816">  5  6 -1 -1</clus>
<clus scale="   92.341">  7  8 -1 -1</clus>
<clus scale="  103.009">  2  5  1 -1</clus>
<clus scale="   49.037">  2  5  1 -1</clus>
</clustering>
</event>
<event>
 9    1  0.1445593E-005  0.1546117E+03  0.7546771E-02  0.1195215E+00
         21   -1    0    0  501  502  0.00000000000E+00  0.00000000000E+00  0.16190654879E+03  0.16190654879E+03  0.00000000000E+00 0.  1.
         -2   -1    0    0    0  501 -0.00000000000E+00 -0.00000000000E+00 -0.50979929799E+03  0.50979929799E+03  0.00000000000E+00 0.  1.
         23    2    1    2    0    0  0.10258057114E+03  0.14160623004E+02 -0.19768989950E+03  0.24118155238E+03  0.91454622756E+02 0.  0.
         23    2    1    2    0    0 -0.15192776037E+03  0.67904578225E+00 -0.25711462225E+03  0.31184199595E+03  0.89749629452E+02 0.  0.
        -11    1    3    3    0    0  0.84300508875E+02  0.47157637314E+02 -0.16533757310E+03  0.19148611342E+03  0.00000000000E+00 0. -1.
         11    1    3    3    0    0  0.18280062264E+02 -0.32997014310E+02 -0.32352326400E+02  0.49695438958E+02  0.00000000000E+00 0.  1.
        -13    1    4    4    0    0 -0.45041109612E+02  0.21046491794E+02 -0.25349379566E+02  0.55805442533E+02  0.00000000000E+00 0. -1.
         13    1    4    4    0    0 -0.10688665076E+03 -0.20367446012E+02 -0.23176524269E+03  0.25603655341E+03  0.00000000000E+00 0.  1.
         -2    1    1    2    0  502  0.49347189233E+02 -0.14839668786E+02  0.10691177255E+03  0.11868229845E+03  0.00000000000E+00 0.  1.
<scales pt_clust_5="13000.00000" pt_clust_6="13000.00000" pt_clust_7="13000.00000" pt_clust_8="13000.00000" pt_clust_9="51.53019"></scales>
<clustering>
<clus scale="   51.530">  1  9  2 -1</clus>
<clus scale="   89.750">  7  8 -1 -1</clus>
<clus scale="   91.455">  5  6 -1 -1</clus>
<clus scale="  153.609">  1  7  2 -1</clus>
<clus scale="   51.530">  1  5  2 -1</clus>
</clustering>
</event>
<event>
 9    1  0.1445593E-005  0.1158714E+03  0.7546771E-02  0.1250536E+00
         21   -1    0    0  501  502  0.00000000000E+00  0.00000000000E+00  0.34121703771E+03  0.34121703771E+03  0.00000000000E+00 0. -1.
         -1   -1    0    0    0  501 -0.00000000000E+00 -0.00000000000E+00 -0.68371180187E+02  0.68371180187E+02  0.00000000000E+00 0.  1.
         23    2    1    2    0    0  0.59146770827E+02 -0.46139445716E+02  0.40206750696E+02  0.12568509924E+03  0.92482281653E+02 0.  0.
         23    2    1    2    0    0 -0.60505322122E+02  0.21006462613E+02  0.10255274511E+03  0.15140416015E+03  0.91126224018E+02 0.  0.
        -11    1    4    4    0    0 -0.52424174762E+02  0.40530750121E+02  0.24673833338E+02  0.70709503296E+02  0.00000000000E+00 0.  1.
         11    1    4    4    0    0 -0.80811473598E+01 -0.19524287508E+02  0.77878911774E+02  0.80694656852E+02  0.00000000000E+00 0. -1.
        -13    1    3    3    0    0  0.70811614530E+01  0.26114323240E+02  0.21793910319E+02  0.34742988542E+02  0.00000000000E+00 0.  1.
         13    1    3    3    0    0  0.52065609373E+02 -0.72253768957E+02  0.18412840377E+02  0.90942110700E+02  0.00000000000E+00 0. -1.
         -1    1    1    2    0  502  0.13585512952E+01  0.25132983103E+02  0.13008636171E+03  0.13249895850E+03  0.00000000000E+00 0.  1.
<scales pt_clust_5="13000.00000" pt_clust_6="13000.00000" pt_clust_7="13000.00000" pt_clust_8="13000.00000" pt_clust_9="25.16967"></scales>
<clustering>
<clus scale="   25.170">  1  9  2 -1</clus>
<clus scale="   91.126">  5  6 -1 -1</clus>
<clus scale="   92.482">  7  8 -1 -1</clus>
<clus scale="  114.792">  1  5  2 -1</clus>
<clus scale="   25.170">  1  5  2 -1</clus>
</clustering>
</event>
<event>
 9    1  0.1445593E-005  0.9207360E+02  0.7546771E-02  0.1298925E+00
          3   -1    0    0  502    0 -0.00000000000E+00  0.00000000000E+00  0.90029758372E+02  0.90029758372E+02  0.00000000000E+00 0. -1.
         21   -1    0    0  501  502  0.00000000000E+00 -0.00000000000E+00 -0.20422214599E+03  0.20422214599E+03  0.00000000000E+00 0. -1.
         23    2    1    2    0    0  0.11136487798E+02  0.20284358544E+01  0.12942151422E+02  0.92705829770E+02  0.91097396656E+02 0.  0.
         23    2    1    2    0    0  0.24394078079E+02 -0.42964040789E+02 -0.80065669230E+02  0.12975733336E+03  0.89361481214E+02 0.  0.
        -11    1    4    4    0    0 -0.28133527388E+02  0.67598653754E+01 -0.30703694595E+02  0.42188955960E+02  0.00000000000E+00 0.  1.
         11    1    4    4    0    0  0.52527605467E+02 -0.49723906164E+02 -0.49361974636E+02  0.87568377399E+02  0.00000000000E+00 0. -1.
        -11    1    3    3    0    0  0.14922732001E+02 -0.42220786743E+02  0.17463988270E+02  0.48065306094E+02  0.00000000000E+00 0.  1.
         11    1    3    3    0    0 -0.37862442031E+01  0.44249222598E+02 -0.45218368484E+01  0.44640523677E+02  0.00000000000E+00 0. -1.
          3    1    1    2  501    0 -0.35530565877E+02  0.40935604934E+02 -0.47068869811E+02  0.71788741235E+02  0.00000000000E+00 0. -1.
<scales pt_clust_5="13000.00000" pt_clust_6="13000.00000" pt_clust_7="13000.00000" pt_clust_8="13000.00000" pt_clust_9="54.20466"></scales>
<clustering>
<clus scale="   54.205">  2  9  1 -1</clus>
<clus scale="   89.361">  5  6 -1 -1</clus>
<clus scale="   90.356">  2  5  1 -1</clus>
<clus scale="   91.097">  7  8 -1 -1</clus>
<clus scale="   54.205">  2  5  1 -1</clus>
</clustering>
</event>
<event>
 9    1  0.1445593E-005  0.1164448E+03  0.7546771E-02  0.1249758E+00
          2   -1    0    0  502    0 -0.00000000000E+00  0.00000000000E+00  0.14509446160E+03  0.14509446160E+03  0.00000000000E+00 0. -1.
         21   -1    0    0  501  502  0.00000000000E+00 -0.00000000000E+00 -0.14769279253E+03  0.14769279253E+03  0.00000000000E+00 0. -1.
         23    2    1    2    0    0  0.44926205620E+02  0.57151222034E+02  0.81960541689E+01  0.11672163498E+03  0.90951298159E+02 0.  0.
         23    2    1    2    0    0  0.52899487622E+01 -0.77927840921E+02 -0.74142726504E+01  0.12161605337E+03  0.92923414975E+02 0.  0.
        -11    1    3    3    0    0  0.46104506153E+02 -0.94925079308E+01 -0.89100564929E+01  0.47907434717E+02  0.00000000000E+00 0. -1.
         11    1    3    3    0    0 -0.11783005330E+01  0.66643729965E+02  0.17106110662E+02  0.68814200263E+02  0.00000000000E+00 0.  1.
        -13    1    4    4    0    0 -0.12844016488E+02 -0.94856293154E+02 -0.11723100396E+02  0.96437110042E+02  0.00000000000E+00 0.  1.
         13    1    4    4    0    0  0.18133965250E+02  0.16928452233E+02  0.43088277456E+01  0.25178943330E+02  0.00000000000E+00 0. -1.
          2    1    1    2  501    0 -0.50216154382E+02  0.20776618887E+02 -0.33801124472E+01  0.54449565778E+02  0.00000000000E+00 0. -1.
<scales pt_clust_5="13000.00000" pt_clust_6="13000.00000" pt_clust_7="13000.00000" pt_clust_8="13000.00000" pt_clust_9="54.34455"></scales>
<clustering>
<clus scale="   54.345">  2  9  1 -1</clus>
<clus scale="   90.951">  5  6 -1 -1</clus>
<clus scale="   92.923">  7  8 -1 -1</clus>
<clus scale="  114.877">  1  5  2 -1</clus>
<clus scale="   54.345">  2  5  1 -1</clus>
</clustering>
</event>
<event>
 9    1  0.1445593E-005  0.1457210E+03  0.7546771E-02  0.1207012E+00
         21   -1    0    0  501  502  0.00000000000E+00  0.00000000000E+00  0.65075825366E+02  0.65075825366E+02  0.00000000000E+00 0.  1.
          1   -1    0    0  502    0 -0.00000000000E+00 -0.00000000000E+00 -0.63833835165E+03  0.63833835165E+03  0.00000000000E+00 0. -1.
         23    2    1    2    0    0  0.10876903503E+03  0.74506209895E+02 -0.31534292386E+03  0.35534332079E+03  0.97189699587E+02 0.  0.
         23    2    1    2    0    0 -0.98245204718E+02  0.21632002795E+02 -0.16601345300E+03  0.21465403852E+03  0.91628739399E+02 0.  0.
        -11    1    4    4    0    0 -0.12747632210E+02  0.34804925040E+02 -0.13752942205E+02  0.39535153387E+02  0.00000000000E+00 0.  1.
         11    1    4    4    0    0 -0.85497572508E+02 -0.13172922245E+02 -0.15226051079E+03  0.17511888514E+03  0.00000000000E+00 0. -1.
        -13    1    3    3    0    0  0.27698031231E+02 -0.72785442836E+01 -0.12319053509E+02  0.31175586929E+02  0.00000000000E+00 0. -1.
         13    1    3    3    0    0  0.81071003800E+02  0.81784754179E+02 -0.30302387036E+03  0.32416773386E+03  0.00000000000E+00 0.  1.
          1    1    1    2  501    0 -0.10523830313E+02 -0.96138212690E+02 -0.91906149427E+02  0.13341681770E+03  0.00000000000E+00 0. -1.
<scales pt_clust_5="13000.00000" pt_clust_6="13000.00000" pt_clust_7="13000.00000" pt_clust_8="13000.00000" pt_clust_9="96.71250"></scales>
<clustering>
<clus scale="   91.629">  5  6 -1 -1</clus>
<clus scale="   96.712">  1  9  2 -1</clus>
<clus scale="   97.190">  7  8 -1 -1</clus>
<clus scale="  142.073">  1  5  2 -1</clus>
<clus scale="   96.712">  1  5  2 -1</clus>
</clustering>
</event>
<event>
 9    1  0.1445593E-005  0.9894823E+02  0.7546771E-02  0.1282700E+00
          2   -1    0    0  502    0 -0.00000000000E+00  0.00000000000E+00  0.98050556451E+03  0.98050556451E+03  0.00000000000E+00 0. -1.
         21   -1    0    0  501  502  0.00000000000E+00 -0.00000000000E+00 -0.25458727402E+02  0.25458727402E+02  0.00000000000E+00 0. -1.
         23    2    1    2    0    0 -0.61067039622E+02 -0.23399190058E+02  0.56470673511E+03  0.57593121896E+03  0.92338328263E+02 0.  0.
         23    2    1    2    0    0 -0.12129306716E+01 -0.15824010654E+02  0.29476219320E+03  0.30939978226E+03  0.92690906819E+02 0.  0.
        -11    1    3    3    0    0 -0.46416908147E+02  0.31105949190E+02  0.24603460833E+03  0.25229969864E+03  0.00000000000E+00 0.  1.
         11    1    3    3    0    0 -0.14650131474E+02 -0.54505139248E+02  0.31867212679E+03  0.32363152032E+03  0.00000000000E+00 0. -1.
        -11    1    4    4    0    0  0.33852152876E+02 -0.37094246848E+02  0.19872572417E+03  0.20497283929E+03  0.00000000000E+00 0.  1.
         11    1    4    4    0    0 -0.35065083547E+02  0.21270236194E+02  0.96036469038E+02  0.10442694297E+03  0.00000000000E+00 0. -1.
          2    1    1    2  501    0  0.62279970293E+02  0.39223200712E+02  0.95577908789E+02  0.12063329069E+03  0.00000000000E+00 0. -1.
<scales pt_clust_5="13000.00000" pt_clust_6="13000.00000" pt_clust_7="13000.00000" pt_clust_8="13000.00000" pt_clust_9="73.60200"></scales>
<clustering>
<clus scale="   73.602">  2  9  1 -1</clus>
<clus scale="   92.338">  5  6 -1 -1</clus>
<clus scale="   92.691">  7  8 -1 -1</clus>
<clus scale="   98.618">  1  5  2 -1</clus>
<clus scale="   73.602">  2  5  1 -1</clus>
</clustering>
</event>
<event>
 9    1  0.1445593E-005  0.9744085E+02  0.7546771E-02  0.1286957E+00
          1   -1    0    0  502    0 -0.00000000000E+00  0.00000000000E+00  0.28962890987E+03  0.28962890987E+03  0.00000000000E+00 0. -1.
         21   -1    0    0  501  502  0.00000000000E+00 -0.00000000000E+00 -0.52203977696E+02  0.52203977696E+02  0.00000000000E+00 0.  1.
         23    2    1    2    0    0 -0.66765738380E+01 -0.42598795453E+02  0.15247626837E+03  0.18215957379E+03  0.89854682103E+02 0.  0.
         23    2    1    2    0    0 -0.80576287390E+01  0.16919913424E+02  0.89394292143E+02  0.12973562316E+03  0.92134595011E+02 0.  0.
        -11    1    3    3    0    0 -0.25134369031E+02 -0.14893044213E+02  0.34014666206E+01  0.29412739547E+02  0.00000000000E+00 0.  1.
         11    1    3    3    0    0  0.18457795193E+02 -0.27705751240E+02  0.14907480175E+03  0.15274683424E+03  0.00000000000E+00 0. -1.
        -13    1    4    4    0    0  0.25568936333E+02  0.43930591541E+02  0.50663611431E+02  0.71766767390E+02  0.00000000000E+00 0.  1.
         13    1    4    4    0    0 -0.33626565072E+02 -0.27010678117E+02  0.38730680712E+02  0.57968855770E+02  0.00000000000E+00 0. -1.
          1    1    1    2  501    0  0.14734202577E+02  0.25678882030E+02 -0.44456283396E+01  0.29937690613E+02  0.00000000000E+00 0. -1.
<scales pt_clust_5="13000.00000" pt_clust_6="13000.00000" pt_clust_7="13000.00000" pt_clust_8="13000.00000" pt_clust_9="29.60577"></scales>
<clustering>
<clus scale="   29.606">  2  9  1 -1</clus>
<clus scale="   89.855">  5  6 -1 -1</clus>
<clus scale="   92.135">  7  8 -1 -1</clus>
<clus scale="   95.288">  1  5  2 -1</clus>
<clus scale="   29.606">  2  5  1 -1</clus>
</clustering>
</event>
<event>
 9    1  0.1445593E-005  0.1791949E+03  0.7546771E-02  0.1195333E+00
         -1   -1    0    0    0  501 -0.00000000000E+00  0.00000000000E+00  0.16403788511E+03  0.16403788511E+03  0.00000000000E+00 0.  1.
         21   -1    0    0  501  502  0.00000000000E+00 -0.00000000000E+00 -0.48157388153E+03  0.48157388153E+03  0.00000000000E+00 0.  1.
         23    2    1    2    0    0 -0.17408735878E+01 -0.36527381120E+02  0.53664540016E+02  0.11209260975E+03  0.91365147036E+02 0.  0.
         23    2    1    2    0    0  0.81772697694E+01 -0.12710915894E+03 -0.34937428393E+02  0.15949880682E+03  0.89418339542E+02 0.  0.
        -13    1    3    3    0    0  0.38181239668E+02 -0.14114276845E+01  0.43613609946E+02  0.57982291807E+02  0.00000000000E+00 0.  1.
         13    1    3    3    0    0 -0.39922113256E+02 -0.35115953436E+02  0.10050930070E+02  0.54110317942E+02  0.00000000000E+00 0. -1.
        -13    1    4    4    0    0  0.26594321638E+02  0.17137493516E+00 -0.10494126170E+02  0.28590452896E+02  0.00000000000E+00 0. -1.
         13    1    4    4    0    0 -0.18417051869E+02 -0.12728053387E+03 -0.24443302223E+02  0.13090835392E+03  0.00000000000E+00 0.  1.
         -1    1    1    2    0  502 -0.64363961816E+01  0.16363654006E+03 -0.33626310805E+03  0.37402035008E+03  0.00000000000E+00 0.  1.
<scales pt_clust_5="13000.00000" pt_clust_6="13000.00000" pt_clust_7="13000.00000" pt_clust_8="13000.00000" pt_clust_9="155.29061"></scales>
<clustering>
<clus scale="   89.418">  7  8 -1 -1</clus>
<clus scale="   91.365">  5  6 -1 -1</clus>
<clus scale="   98.412">  1  5  2 -1</clus>
<clus scale="  155.291">  2  9  1 -1</clus>
<clus scale="  155.291">  2  5  1 -1</clus>
</clustering>
</event>
<event>
 9    1  0.1445593E-005  0.1137652E+03  0.7546771E-02  0.1256798E+00
         21   -1    0    0  501  502  0.00000000000E+00  0.00000000000E+00  0.15072556915E+03  0.15072556915E+03  0.00000000000E+00 0. -1.
          1   -1    0    0  502    0 -0.00000000000E+00 -0.00000000000E+00 -0.14138503303E+03  0.14138503303E+03  0.00000000000E+00 0. -1.
         23    2    1    2    0    0 -0.27513659508E+02  0.50432918970E+02 -0.47973772430E+02  0.12358392309E+03  0.98341356661E+02 0.  0.
         23    2    1    2    0    0  0.48047285464E+02 -0.35997232737E+02  0.29951561473E+01  0.10868865482E+03  0.90553356206E+02 0.  0.
        -13    1    4    4    0    0 -0.19684636718E+02  0.12150891978E+02  0.10187013803E+02  0.25276557297E+02  0.00000000000E+00 0.  1.
         13    1    4    4    0    0  0.67731922182E+02 -0.48148124715E+02 -0.71918576552E+01  0.83412097519E+02  0.00000000000E+00 0. -1.
        -13    1    3    3    0    0 -0.61473765977E+02  0.48860212997E+02 -0.42047027819E+02  0.89074670170E+02  0.00000000000E+00 0.  1.
         13    1    3    3    0    0  0.33960106469E+02  0.15727059728E+01 -0.59267446113E+01  0.34509252921E+02  0.00000000000E+00 0. -1.
          1    1    1    2  501    0 -0.20533625956E+02 -0.14435686233E+02  0.54319152399E+02  0.59838024276E+02  0.00000000000E+00 0. -1.
<scales pt_clust_5="13000.00000" pt_clust_6="13000.00000" pt_clust_7="13000.00000" pt_clust_8="13000.00000" pt_clust_9="25.10018"></scales>
<clustering>
<clus scale="   25.100">  1  9  2 -1</clus>
<clus scale="   90.553">  5  6 -1 -1</clus>
<clus scale="   98.341">  7  8 -1 -1</clus>
<clus scale="  107.105">  1  5  2 -1</clus>
<clus scale="   25.100">  1  5  2 -1</clus>
</clustering>
</event>
<event>
 9    1  0.1445593E-005  0.1012641E+03  0.7546771E-02  0.1279681E+00
         21   -1    0    0  501  502  0.00000000000E+00  0.00000000000E+00  0.24740923877E+03  0.24740923877E+03  0.00000000000E+00 0.  1.
          3   -1    0    0  502    0 -0.00000000000E+00 -0.00000000000E+00 -0.90838150683E+02  0.90838150683E+02  0.00000000000E+00 0. -1.
         23    2    1    2    0    0 -0.31522389214E+02 -0.23717050043E+02 -0.31263442487E+02  0.10435877607E+03  0.91417677838E+02 0.  0.
         23    2    1    2    0    0  0.21603286925E+02 -0.15295130631E+02  0.13535016350E+03  0.16774522658E+03  0.95489011166E+02 0.  0.
        -11    1    4    4    0    0 -0.51705669941E+00 -0.25621776902E+02  0.14048137215E+03  0.14279971541E+03  0.00000000000E+00 0.  1.
         11    1    4    4    0    0  0.22120343624E+02  0.10326646271E+02 -0.51312086522E+01  0.24945511169E+02  0.00000000000E+00 0. -1.
        -13    1    3    3    0    0 -0.56237125454E+02  0.99348107167E+01 -0.11899167974E+02  0.58334423301E+02  0.00000000000E+00 0. -1.
         13    1    3    3    0    0  0.24714736240E+02 -0.33651860760E+02 -0.19364274513E+02  0.46024352765E+02  0.00000000000E+00 0.  1.
          3    1    1    2  501    0  0.99191022893E+01  0.39012180674E+02  0.52484367071E+02  0.66143386805E+02  0.00000000000E+00 0. -1.
<scales pt_clust_5="13000.00000" pt_clust_6="13000.00000" pt_clust_7="13000.00000" pt_clust_8="13000.00000" pt_clust_9="40.25343"></scales>
<clustering>
<clus scale="   40.253">  1  9  2 -1</clus>
<clus scale="   91.418">  7  8 -1 -1</clus>
<clus scale="   95.489">  5  6 -1 -1</clus>
<clus scale="   97.434">  2  7  1 -1</clus>
<clus scale="   40.253">  1  5  2 -1</clus>
</clustering>
</event>
<event>
 9    1  0.1445593E-005  0.9816940E+02  0.7546771E-02  0.1286821E+00
         -4   -1    0    0    0  501 -0.00000000000E+00  0.00000000000E+00  0.29691420908E+03  0.29691420908E+03  0.00000000000E+00 0.  1.
         21   -1    0    0  501  502  0.00000000000E+00 -0.00000000000E+00 -0.14870016633E+03  0.14870016633E+03  0.00000000000E+00 0. -1.
         23    2    1    2    0    0 -0.13851261131E+02 -0.34198049792E+02  0.22871787305E+03  0.24888729068E+03  0.90948633674E+02 0.  0.
         23    2    1    2    0    0 -0.13798563004E+02  0.43323495210E+02  0.13754277759E+02  0.98074271991E+02  0.85802430569E+02 0.  0.
        -11    1    4    4    0    0 -0.44678585411E+02  0.79430888262E+01 -0.83994009496E+01  0.46149957646E+02  0.00000000000E+00 0. -1.
         11    1    4    4    0    0  0.30880022408E+02  0.35380406384E+02  0.22153678709E+02  0.51924314344E+02  0.00000000000E+00 0.  1.
        -11    1    3    3    0    0  0.89153052500E+01  0.26310396308E+02  0.11269312790E+03  0.11606662180E+03  0.00000000000E+00 0. -1.
         11    1    3    3    0    0 -0.22766566381E+02 -0.60508446100E+02  0.11602474515E+03  0.13282066888E+03  0.00000000000E+00 0.  1.
         -4    1    1    2    0  502  0.27649824135E+02 -0.91254454185E+01 -0.94258108050E+02  0.98652812742E+02  0.00000000000E+00 0.  1.
<scales pt_clust_5="13000.00000" pt_clust_6="13000.00000" pt_clust_7="13000.00000" pt_clust_8="13000.00000" pt_clust_9="29.11677"></scales>
<clustering>
<clus scale="   29.117">  2  9  1 -1</clus>
<clus scale="   85.802">  5  6 -1 -1</clus>
<clus scale="   90.949">  7  8 -1 -1</clus>
<clus scale="   93.422">  2  5  1 -1</clus>
<clus scale="   29.117">  2  5  1 -1</clus>
</clustering>
</event>
<event>
 9    1  0.1445593E-005  0.9409542E+02  0.7546771E-02  0.1294276E+00
         -1   -1    0    0    0  501 -0.00000000000E+00  0.00000000000E+00  0.95595283658E+02  0.95595283658E+02  0.00000000000E+00 0.  1.
         21   -1    0    0  501  502  0.00000000000E+00 -0.00000000000E+00 -0.18049199216E+03  0.18049199216E+03  0.00000000000E+00 0.  1.
         23    2    1    2    0    0  0.12522713344E+02 -0.12403863558E+02  0.31316531397E+02  0.99014755524E+02  0.92263332327E+02 0.  0.
         23    2    1    2    0    0 -0.30165577336E+02 -0.10760248564E+02 -0.58269303305E+02  0.11222387707E+03  0.90405430540E+02 0.  0.
        -11    1    3    3    0    0  0.45485939498E+02  0.18059892326E+02  0.18697499231E+02  0.52390141061E+02  0.00000000000E+00 0.  1.
         11    1    3    3    0    0 -0.32963226154E+02 -0.30463755884E+02  0.12619032167E+02  0.46624614464E+02  0.00000000000E+00 0. -1.
        -11    1    4    4    0    0  0.27050315308E+02 -0.57209126778E+01  0.35082412759E+01  0.27870345477E+02  0.00000000000E+00 0.  1.
         11    1    4    4    0    0 -0.57215892644E+02 -0.50393358857E+01 -0.61777544581E+02  0.84353531590E+02  0.00000000000E+00 0. -1.
         -1    1    1    2    0  502  0.17642863992E+02  0.23164112121E+02 -0.57943936593E+02  0.64848643225E+02  0.00000000000E+00 0.  1.
<scales pt_clust_5="13000.00000" pt_clust_6="13000.00000" pt_clust_7="13000.00000" pt_clust_8="13000.00000" pt_clust_9="29.11781"></scales>
<clustering>
<clus scale="   29.118">  2  9  1 -1</clus>
<clus scale="   90.405">  7  8 -1 -1</clus>
<clus scale="   92.263">  5  6 -1 -1</clus>
<clus scale="   92.274">  2  7  1 -1</clus>
<clus scale="   29.118">  2  5  1 -1</clus>
</clustering>
</event>
<event>
 9    1  0.1445593E-005  0.1069895E+03  0.7546771E-02  0.1267932E+00
          2   -1    0    0  502    0 -0.00000000000E+00  0.00000000000E+00  0.47040017456E+03  0.47040017456E+03  0.00000000000E+00 0. -1.
         21   -1    0    0  501  502  0.00000000000E+00 -0.00000000000E+00 -0.42473865224E+02  0.42473865224E+02  0.00000000000E+00 0.  1.
         23    2    1    2    0    0 -0.73825728256E+01  0.35706142935E+02  0.35156570359E+03  0.36795400862E+03  0.10228527507E+03 0.  0.
         23    2    1    2    0    0  0.88646130879E+01 -0.13382032950E+02  0.68559975289E+02  0.12122589338E+03  0.98679211804E+02 0.  0.
        -13    1    3    3    0    0  0.28229797578E+02 -0.11961630002E+02  0.38164558459E+02  0.48954423559E+02  0.00000000000E+00 0.  1.
         13    1    3    3    0    0 -0.35612370403E+02  0.47667772937E+02  0.31340114513E+03  0.31899958506E+03  0.00000000000E+00 0. -1.
        -13    1    4    4    0    0  0.42146249073E+02  0.14267429983E+02  0.56218784144E+01  0.44849430166E+02  0.00000000000E+00 0.  1.
         13    1    4    4    0    0 -0.33281635985E+02 -0.27649462934E+02  0.62938096874E+02  0.76376463210E+02  0.00000000000E+00 0. -1.
          2    1    1    2  501    0 -0.14820402624E+01 -0.22324109985E+02  0.78006304644E+01  0.23694137790E+02  0.00000000000E+00 0. -1.
<scales pt_clust_5="13000.00000" pt_clust_6="13000.00000" pt_clust_7="13000.00000" pt_clust_8="13000.00000" pt_clust_9="22.37325"></scales>
<clustering>
<clus scale="   22.373">  2  9  1 -1</clus>
<clus scale="   98.679">  7  8 -1 -1</clus>
<clus scale="  102.285">  5  6 -1 -1</clus>
<clus scale="  103.547">  2  7  1 -1</clus>
<clus scale="   22.373">  2  5  1 -1</clus>
</clustering>
</event>
<event>
 9    1  0.1445593E-005  0.1094724E+03  0.7546771E-02  0.1262592E+00
         21   -1    0    0  501  502  0.00000000000E+00  0.00000000000E+00  0.34413831221E+02  0.34413831221E+02  0.00000000000E+00 0.  1.
          1   -1    0    0  502    0 -0.00000000000E+00 -0.00000000000E+00 -0.54267706322E+03  0.54267706322E+03  0.00000000000E+00 0. -1.
         23    2    1    2    0    0 -0.73012663369E+02  0.19714027924E+01 -0.33060563261E+03  0.35113242810E+03  0.93054620012E+02 0.  0.
         23    2    1    2    0    0  0.32281956997E+02  0.11505787981E+02 -0.12221012429E+03  0.15585106582E+03  0.90441872688E+02 0.  0.
        -11    1    3    3    0    0 -0.77687735895E+02 -0.31671032900E+02 -0.24844855558E+03  0.26223104966E+03  0.00000000000E+00 0. -1.
         11    1    3    3    0    0  0.46750725258E+01  0.33642435693E+02 -0.82157077029E+02  0.88901378439E+02  0.00000000000E+00 0.  1.
        -13    1    4    4    0    0 -0.16327082653E+02 -0.27087944199E+02 -0.24128888724E+02  0.39781071126E+02  0.00000000000E+00 0. -1.
         13    1    4    4    0    0  0.48609039650E+02  0.38593732180E+02 -0.98081235564E+02  0.11606999470E+03  0.00000000000E+00 0.  1.
          1    1    1    2  501    0  0.40730706373E+02 -0.13477190773E+02 -0.55447475101E+02  0.70107400521E+02  0.00000000000E+00 0. -1.
<scales pt_clust_5="13000.00000" pt_clust_6="13000.00000" pt_clust_7="13000.00000" pt_clust_8="13000.00000" pt_clust_9="42.90251"></scales>
<clustering>
<clus scale="   42.903">  1  9  2 -1</clus>
<clus scale="   90.442">  7  8 -1 -1</clus>
<clus scale="   93.055">  5  6 -1 -1</clus>
<clus scale="  107.260">  1  7  2 -1</clus>
<clus scale="   42.903">  1  5  2 -1</clus>
</clustering>
</event>
<event>
 9    1  0.1445593E-005  0.1424589E+03  0.7546771E-02  0.1210858E+00
         21   -1    0    0  501  502  0.00000000000E+00  0.00000000000E+00  0.29138829864E+03  0.29138829864E+03  0.00000000000E+00 0. -1.
         -1   -1    0    0    0  501 -0.00000000000E+00 -0.00000000000E+00 -0.11284265829E+03  0.11284265829E+03  0.00000000000E+00 0.  1.
         23    2    1    2    0    0 -0.90719414755E+02 -0.70256586223E+02 -0.22507954648E+02  0.14731883821E+03  0.89611561464E+02 0.  0.
         23    2    1    2    0    0  0.77583037647E+02  0.41600357769E+02  0.15740011661E+03  0.20306632029E+03  0.93334967902E+02 0.  0.
        -11    1    3    3    0    0 -0.85612481707E+02 -0.31165045814E+02 -0.45333745442E+02  0.10176396995E+03  0.00000000000E+00 0.  1.
         11    1    3    3    0    0 -0.51069330475E+01 -0.39091540409E+02  0.22825790793E+02  0.45554868258E+02  0.00000000000E+00 0. -1.
        -11    1    4    4    0    0  0.46977675099E+02 -0.22573075453E+02  0.39534023450E+02  0.65417006224E+02  0.00000000000E+00 0.  1.
         11    1    4    4    0    0  0.30605362548E+02  0.64173433222E+02  0.11786609316E+03  0.13764931407E+03  0.00000000000E+00 0. -1.
         -1    1    1    2    0  502  0.13136377108E+02  0.28656228454E+02  0.43653478392E+02  0.53845798429E+02  0.00000000000E+00 0.  1.
<scales pt_clust_5="13000.00000" pt_clust_6="13000.00000" pt_clust_7="13000.00000" pt_clust_8="13000.00000" pt_clust_9="31.52370"></scales>
<clustering>
<clus scale="   31.524">  1  9  2 -1</clus>
<clus scale="   89.612">  5  6 -1 -1</clus>
<clus scale="   93.335">  7  8 -1 -1</clus>
<clus scale="  140.048">  2  5  1 -1</clus>
<clus scale="   31.524">  1  5  2 -1</clus>
</clustering>
</event>
<event>
 9    1  0.1445593E-005  0.1926607E+03  0.7546771E-02  0.1156343E+00
         21   -1    0    0  501  502  0.00000000000E+00  0.00000000000E+00  0.57192631424E+03  0.57192631424E+03  0.00000000000E+00 0. -1.
          3   -1    0    0  502    0 -0.00000000000E+00 -0.00000000000E+00 -0.14472553574E+03  0.14472553574E+03  0.00000000000E+00 0. -1.
         23    2    1    2    0    0 -0.59349244280E+02 -0.16060443526E+03  0.31191656094E+02  0.19724074140E+03  0.92816341422E+02 0.  0.
         23    2    1    2    0    0  0.15974112146E+03  0.10295370190E+03  0.31216722520E+03  0.37647196144E+03  0.90366313616E+02 0.  0.
        -11    1    3    3    0    0 -0.83857752535E+01 -0.95824987548E+02  0.55822508836E+02  0.11121556527E+03  0.00000000000E+00 0.  1.
         11    1    3    3    0    0 -0.50963469027E+02 -0.64779447716E+02 -0.24630852742E+02  0.86025176132E+02  0.00000000000E+00 0. -1.
        -11    1    4    4    0    0  0.98090823544E+02  0.10730821729E+02  0.16367337243E+03  0.19111758957E+03  0.00000000000E+00 0.  1.
         11    1    4    4    0    0  0.61650297919E+02  0.92222880175E+02  0.14849385277E+03  0.18535437187E+03  0.00000000000E+00 0. -1.
          3    1    1    2  501    0 -0.10039187718E+03  0.57650733360E+02  0.83841897202E+02  0.14293914715E+03  0.00000000000E+00 0. -1.
<scales pt_clust_5="13000.00000" pt_clust_6="13000.00000" pt_clust_7="13000.00000" pt_clust_8="13000.00000" pt_clust_9="115.76765"></scales>
<clustering>
<clus scale="   90.366">  7  8 -1 -1</clus>
<clus scale="   92.816">  5  6 -1 -1</clus>
<clus scale="  115.768">  1  9  2 -1</clus>
<clus scale="  191.492">  1  7  2 -1</clus>
<clus scale="  115.768">  1  5  2 -1</clus>
</clustering>
</event>
<event>
 9    1  0.2178170E-005  0.1027949E+03  0.7546771E-02  0.1278258E+00
         21   -1    0    0  501  502  0.00000000000E+00  0.00000000000E+00  0.82405226934E+02  0.82405226934E+02  0.00000000000E+00 0. -1.
          2   -1    0    0  502    0 -0.00000000000E+00 -0.00000000000E+00 -0.72245285484E+03  0.72245285484E+03  0.00000000000E+00 0. -1.
         23    2    1    2    0    0 -0.11077067661E+01 -0.38320524630E+02 -0.53233904882E+03  0.54131984960E+03  0.90402583164E+02 0.  0.
         23    2    1    2    0    0  0.11080745961E+02  0.99323038689E+01 -0.16865785319E+03  0.19556642477E+03  0.97874008108E+02 0.  0.
        -11    1    3    3    0    0 -0.12014063688E+02  0.28040108948E+02 -0.14330734420E+03  0.14651819115E+03  0.00000000000E+00 0.  1.
         11    1    3    3    0    0  0.10906356922E+02 -0.66360633577E+02 -0.38903170463E+03  0.39480165845E+03  0.00000000000E+00 0. -1.
        -11    1    4    4    0    0  0.32069925920E+02 -0.32060630089E+02 -0.11842918516E+03  0.12681417921E+03  0.00000000000E+00 0. -1.
         11    1    4    4    0    0 -0.20989179959E+02  0.41992933958E+02 -0.50228668029E+02  0.68752245561E+02  0.00000000000E+00 0.  1.
          2    1    1    2  501    0 -0.99730391952E+01  0.28388220761E+02  0.60949274106E+02  0.67971807411E+02  0.00000000000E+00 0. -1.
<scales pt_clust_5="13000.00000" pt_clust_6="13000.00000" pt_clust_7="13000.00000" pt_clust_8="13000.00000" pt_clust_9="30.08908"></scales>
<clustering>
<clus scale="   30.089">  1  9  2 -1</clus>
<clus scale="   90.403">  5  6 -1 -1</clus>
<clus scale="   95.708">  2  5  1 -1</clus>
<clus scale="   97.874">  7  8 -1 -1</clus>
<clus scale="   30.089">  1  5  2 -1</clus>
</clustering>
</event>
<event>
 9    1  0.1445593E-005  0.9098685E+02  0.7546771E-02  0.1304033E+00
          1   -1    0    0  502    0 -0.00000000000E+00  0.00000000000E+00  0.38685279263E+03  0.38685279263E+03  0.00000000000E+00 0. -1.
         21   -1    0    0  501  502  0.00000000000E+00 -0.00000000000E+00 -0.38203783632E+02  0.38203783632E+02  0.00000000000E+00 0. -1.
         23    2    1    2    0    0 -0.10069168285E+02 -0.56188806887E+01  0.23688090204E+03  0.25199780925E+03  0.85190223298E+02 0.  0.
         23    2    1    2    0    0 -0.15660911226E+02 -0.17064112619E+02  0.99123661271E+02  0.13650145333E+03  0.90943380503E+02 0.  0.
        -11    1    4    4    0    0 -0.43843243051E+01 -0.54461528620E+02  0.53995620484E+02  0.76816713225E+02  0.00000000000E+00 0. -1.
         11    1    4    4    0    0 -0.11276586921E+02  0.37397416000E+02  0.45128040786E+02  0.59684740104E+02  0.00000000000E+00 0.  1.
        -13    1    3    3    0    0  0.28167281485E+02  0.16787832577E+02  0.48991730591E+02  0.58952665209E+02  0.00000000000E+00 0.  1.
         13    1    3    3    0    0 -0.38236449769E+02 -0.22406713266E+02  0.18788917145E+03  0.19304514404E+03  0.00000000000E+00 0. -1.
          1    1    1    2  501    0  0.25730079511E+02  0.22682993308E+02  0.12644445690E+02  0.36557313685E+02  0.00000000000E+00 0. -1.
<scales pt_clust_5="13000.00000" pt_clust_6="13000.00000" pt_clust_7="13000.00000" pt_clust_8="13000.00000" pt_clust_9="34.30095"></scales>
<clustering>
<clus scale="   34.301">  2  9  1 -1</clus>
<clus scale="   85.190">  7  8 -1 -1</clus>
<clus scale="   85.237">  1  7  2 -1</clus>
<clus scale="   90.943">  5  6 -1 -1</clus>
<clus scale="   34.301">  2  5  1 -1</clus>
</clustering>
</event>
<event>
 9    1  0.1445593E-005  0.1187432E+03  0.7546771E-02  0.1245619E+00
         21   -1    0    0  501  502  0.00000000000E+00  0.00000000000E+00  0.14857329631E+03  0.14857329631E+03  0.00000000000E+00 0.  1.
          1   -1    0    0  502    0 -0.00000000000E+00 -0.00000000000E+00 -0.26995596911E+03  0.26995596911E+03  0.00000000000E+00 0. -1.
         23    2    1    2    0    0  0.71122282164E+02  0.76397568165E+01 -0.18633320883E+03  0.21911697031E+03  0.90418123519E+02 0.  0.
         23    2    1    2    0    0 -0.90823830167E+02  0.20782807521E+01 -0.18039058250E+01  0.12913607754E+03  0.91758297009E+02 0.  0.
        -11    1    4    4    0    0 -0.25677425367E+02 -0.10611661480E+02 -0.42871451727E+02  0.51087169681E+02  0.00000000000E+00 0. -1.
         11    1    4    4    0    0 -0.65146404799E+02  0.12689942232E+02  0.41067545902E+02  0.78048907862E+02  0.00000000000E+00 0.  1.
        -13    1    3    3    0    0  0.79895514440E+02 -0.23000594805E+02 -0.14132767914E+03  0.16396900158E+03  0.00000000000E+00 0. -1.
         13    1    3    3    0    0 -0.87732322768E+01  0.30640351622E+02 -0.45005529694E+02  0.55147968731E+02  0.00000000000E+00 0.  1.
          1    1    1    2  501    0  0.19701548003E+02 -0.97180375686E+01  0.66754441855E+02  0.70276217566E+02  0.00000000000E+00 0. -1.
<scales pt_clust_5="13000.00000" pt_clust_6="13000.00000" pt_clust_7="13000.00000" pt_clust_8="13000.00000" pt_clust_9="21.96796"></scales>
<clustering>
<clus scale="   21.968">  1  9  2 -1</clus>
<clus scale="   90.418">  7  8 -1 -1</clus>
<clus scale="   91.758">  5  6 -1 -1</clus>
<clus scale="  117.711">  2  7  1 -1</clus>
<clus scale="   21.968">  1  5  2 -1</clus>
</clustering>
</event>
<event>
 9    1  0.1445593E-005  0.9414596E+02  0.7546771E-02  0.1294046E+00
         -1   -1    0    0    0  501 -0.00000000000E+00  0.00000000000E+00  0.40753257918E+03  0.40753257918E+03  0.00000000000E+00 0.  1.
         21   -1    0    0  501  502  0.00000000000E+00 -0.00000000000E+00 -0.28867563632E+02  0.28867563632E+02  0.00000000000E+00 0.  1.
         23    2    1    2    0    0 -0.12491943089E+02  0.87784644457E+01  0.19325662661E+03  0.21544467685E+03  0.93995611459E+02 0.  0.
         23    2    1    2    0    0 -0.72962859081E+01  0.12969739007E-01  0.17232861414E+03  0.19565835485E+03  0.92367768272E+02 0.  0.
        -11    1    3    3    0    0  0.11094299790E+02 -0.38181268442E+02  0.57830272413E+02  0.70180005380E+02  0.00000000000E+00 0. -1.
         11    1    3    3    0    0 -0.23586242878E+02  0.46959732888E+02  0.13542635420E+03  0.14526467147E+03  0.00000000000E+00 0.  1.
        -13    1    4    4    0    0 -0.45231155647E+02 -0.20329056813E+02  0.94333006838E+02  0.10657318692E+03  0.00000000000E+00 0. -1.
         13    1    4    4    0    0  0.37934869739E+02  0.20342026552E+02  0.77995607298E+02  0.89085167925E+02  0.00000000000E+00 0.  1.
         -1    1    1    2    0  502  0.19788228997E+02 -0.87914341847E+01  0.13079774800E+02  0.25297111113E+02  0.00000000000E+00 0.  1.
<scales pt_clust_5="13000.00000" pt_clust_6="13000.00000" pt_clust_7="13000.00000" pt_clust_8="13000.00000" pt_clust_9="21.65325"></scales>
<clustering>
<clus scale="   21.653">  2  9  1 -1</clus>
<clus scale="   92.368">  7  8 -1 -1</clus>
<clus scale="   92.521">  2  7  1 -1</clus>
<clus scale="   93.996">  5  6 -1 -1</clus>
<clus scale="   21.653">  2  5  1 -1</clus>
</clustering>
</event>
<event>
 9    1  0.1445593E-005  0.2297950E+03  0.7546771E-02  0.1146389E+00
          1   -1    0    0  502    0 -0.00000000000E+00  0.00000000000E+00  0.11299305000E+04  0.11299305000E+04  0.00000000000E+00 0. -1.
         21   -1    0    0  501  502  0.00000000000E+00 -0.00000000000E+00 -0.79998833915E+02  0.79998833915E+02  0.00000000000E+00 0.  1.
         23    2    1    2    0    0 -0.35805343598E+02  0.10434785264E+03  0.21559765765E+03  0.25859382100E+03  0.90652729099E+02 0.  0.
         23    2    1    2    0    0  0.12056404431E+03 -0.24315472403E+03  0.42949650739E+03  0.51505029984E+03  0.84555620235E+02 0.  0.
        -13    1    3    3    0    0  0.10547519176E+02  0.34631106250E+02  0.11486691651E+02  0.37980360266E+02  0.00000000000E+00 0. -1.
         13    1    3    3    0    0 -0.46352862774E+02  0.69716746390E+02  0.20411096600E+03  0.22061346073E+03  0.00000000000E+00 0.  1.
        -13    1    4    4    0    0  0.67091574300E+02 -0.21066782865E+03  0.34823730002E+03  0.41249415814E+03  0.00000000000E+00 0.  1.
         13    1    4    4    0    0  0.53472470008E+02 -0.32486895378E+02  0.81259207362E+02  0.10255614170E+03  0.00000000000E+00 0. -1.
          1    1    1    2  501    0 -0.84758700710E+02  0.13880687139E+03  0.40483750102E+03  0.43628521305E+03  0.00000000000E+00 0. -1.
<scales pt_clust_5="13000.00000" pt_clust_6="13000.00000" pt_clust_7="13000.00000" pt_clust_8="13000.00000" pt_clust_9="213.67287"></scales>
<clustering>
<clus scale="   84.556">  7  8 -1 -1</clus>
<clus scale="   90.653">  5  6 -1 -1</clus>
<clus scale="  142.788">  1  5  2 -1</clus>
<clus scale="  213.673">  2  9  1 -1</clus>
<clus scale="  213.673">  2  5  1 -1</clus>
</clustering>
</event>
<event>
 9    1  0.1445593E-005  0.1103955E+03  0.7546771E-02  0.1260047E+00
         21   -1    0    0  501  502  0.00000000000E+00  0.00000000000E+00  0.43602063411E+02  0.43602063411E+02  0.00000000000E+00 0. -1.
         -1   -1    0    0    0  501 -0.00000000000E+00 -0.00000000000E+00 -0.48729862670E+03  0.48729862670E+03  0.00000000000E+00 0.  1.
         23    2    1    2    0    0 -0.52212035503E+02  0.32563628954E+02 -0.29666995564E+03  0.31603160826E+03  0.89868950479E+02 0.  0.
         23    2    1    2    0    0  0.44496049258E+02 -0.56603888696E+02 -0.15065412435E+03  0.18936164353E+03  0.89315554308E+02 0.  0.
        -11    1    4    4    0    0 -0.15921026308E+02 -0.31399200651E+02 -0.14094050409E+02  0.37921381002E+02  0.00000000000E+00 0.  1.
         11    1    4    4    0    0  0.60417075566E+02 -0.25204688045E+02 -0.13656007394E+03  0.15144026252E+03  0.00000000000E+00 0. -1.
        -13    1    3    3    0    0  0.59713166477E+01  0.48188356887E+02 -0.12520707715E+03  0.13429291318E+03  0.00000000000E+00 0. -1.
         13    1    3    3    0    0 -0.58183352151E+02 -0.15624727933E+02 -0.17146287849E+03  0.18173869508E+03  0.00000000000E+00 0.  1.
         -1    1    1    2    0  502  0.77159862453E+01  0.24040259742E+02  0.36275166997E+01  0.25507438319E+02  0.00000000000E+00 0.  1.
<scales pt_clust_5="13000.00000" pt_clust_6="13000.00000" pt_clust_7="13000.00000" pt_clust_8="13000.00000" pt_clust_9="25.24818"></scales>
<clustering>
<clus scale="   25.248">  1  9  2 -1</clus>
<clus scale="   89.316">  5  6 -1 -1</clus>
<clus scale="   89.869">  7  8 -1 -1</clus>
<clus scale="  109.945">  1  5  2 -1</clus>
<clus scale="   25.248">  1  5  2 -1</clus>
</clustering>
</event>
<event>
 9    1  0.1445593E-005  0.1005466E+03  0.7546771E-02  0.1279454E+00
         21   -1    0    0  501  502  0.00000000000E+00  0.00000000000E+00  0.16626302064E+03  0.16626302064E+03  0.00000000000E+00 0.  1.
         -3   -1    0    0    0  501 -0.00000000000E+00 -0.00000000000E+00 -0.28789151190E+03  0.28789151190E+03  0.00000000000E+00 0.  1.
         23    2    1    2    0    0  0.37672649491E+02 -0.15858111791E+02 -0.22168574045E+03  0.24325576840E+03  0.91422607211E+02 0.  0.
         23    2    1    2    0    0 -0.52828503704E+02 -0.44014556084E+02  0.32593948862E+02  0.11943438219E+03  0.92054734778E+02 0.  0.
        -11    1    4    4    0    0 -0.69678506193E+02 -0.40510759413E+01  0.30047417737E+02  0.75989162084E+02  0.00000000000E+00 0.  1.
         11    1    4    4    0    0  0.16850002489E+02 -0.39963480143E+02  0.25465311251E+01  0.43445220103E+02  0.00000000000E+00 0. -1.
        -11    1    3    3    0    0 -0.14271879272E+02 -0.40174283861E+02 -0.87870721437E+02  0.97667411697E+02  0.00000000000E+00 0.  1.
         11    1    3    3    0    0  0.51944528764E+02  0.24316172070E+02 -0.13381501902E+03  0.14558835670E+03  0.00000000000E+00 0. -1.
         -3    1    1    2    0  502  0.15155854213E+02  0.59872667875E+02  0.67463300328E+02  0.91464381956E+02  0.00000000000E+00 0.  1.
<scales pt_clust_5="13000.00000" pt_clust_6="13000.00000" pt_clust_7="13000.00000" pt_clust_8="13000.00000" pt_clust_9="61.76112"></scales>
<clustering>
<clus scale="   61.761">  1  9  2 -1</clus>
<clus scale="   91.423">  7  8 -1 -1</clus>
<clus scale="   92.055">  5  6 -1 -1</clus>
<clus scale="   99.968">  2  7  1 -1</clus>
<clus scale="   61.761">  1  5  2 -1</clus>
</clustering>
</event>
<event>
 9    1  0.1445593E-005  0.1612666E+03  0.7546771E-02  0.1188064E+00
         21   -1    0    0  501  502  0.00000000000E+00  0.00000000000E+00  0.24485157843E+03  0.24485157843E+03  0.00000000000E+00 0. -1.
          1   -1    0    0  502    0 -0.00000000000E+00 -0.00000000000E+00 -0.19394061613E+03  0.19394061613E+03  0.00000000000E+00 0. -1.
         23    2    1    2    0    0  0.50937814635E+02 -0.13831347932E+03 -0.77433181204E+02  0.19130351529E+03  0.94211771504E+02 0.  0.
         23    2    1    2    0    0 -0.67081628480E+02  0.67335687779E+02  0.68673996359E+02  0.15336643918E+03  0.98848910774E+02 0.  0.
        -13    1    3    3    0    0  0.75256949540E+02 -0.92706710953E+02 -0.71750690569E+02  0.13930651208E+03  0.00000000000E+00 0.  1.
         13    1    3    3    0    0 -0.24319134905E+02 -0.45606768371E+02 -0.56824906354E+01  0.51997003218E+02  0.00000000000E+00 0. -1.
        -13    1    4    4    0    0 -0.28890947385E+02  0.87772282892E+02  0.36253432321E+02  0.99262136991E+02  0.00000000000E+00 0.  1.
         13    1    4    4    0    0 -0.38190681095E+02 -0.20436595113E+02  0.32420564038E+02  0.54104302185E+02  0.00000000000E+00 0. -1.
          1    1    1    2  501    0  0.16143813845E+02  0.70977791545E+02  0.59670147149E+02  0.94122240087E+02  0.00000000000E+00 0. -1.
<scales pt_clust_5="13000.00000" pt_clust_6="13000.00000" pt_clust_7="13000.00000" pt_clust_8="13000.00000" pt_clust_9="72.79059"></scales>
<clustering>
<clus scale="   72.791">  1  9  2 -1</clus>
<clus scale="   94.212">  5  6 -1 -1</clus>
<clus scale="   98.849">  7  8 -1 -1</clus>
<clus scale="  158.467">  2  5  1 -1</clus>
<clus scale="   72.791">  1  5  2 -1</clus>
</clustering>
</event>
<event>
 9    1  0.1445593E-005  0.1074709E+03  0.7546771E-02  0.1265342E+00
         -2   -1    0    0    0  501 -0.00000000000E+00  0.00000000000E+00  0.12359338962E+03  0.12359338962E+03  0.00000000000E+00 0.  1.
         21   -1    0    0  501  502  0.00000000000E+00 -0.00000000000E+00 -0.21953550620E+03  0.21953550620E+03  0.00000000000E+00 0. -1.
         23    2    1    2    0    0 -0.54081677959E+02 -0.73385223972E+01  0.50396102226E+02  0.11837850857E+03  0.92168445631E+02 0.  0.
         23    2    1    2    0    0  0.51209268492E+02  0.31964878414E+02 -0.42707566954E+02  0.11819514265E+03  0.92206360085E+02 0.  0.
        -11    1    3    3    0    0 -0.76493708771E+02 -0.16585219982E+02  0.52177874402E+02  0.94068525982E+02  0.00000000000E+00 0. -1.
         11    1    3    3    0    0  0.22412030812E+02  0.92466975848E+01 -0.17817721754E+01  0.24309982588E+02  0.00000000000E+00 0.  1.
        -13    1    4    4    0    0 -0.24548107155E+02  0.20845715382E+02 -0.41663149365E+01  0.32473244292E+02  0.00000000000E+00 0. -1.
         13    1    4    4    0    0  0.75757375648E+02  0.11119163032E+02 -0.38541252018E+02  0.85721898361E+02  0.00000000000E+00 0.  1.
         -2    1    1    2    0  502  0.28724094665E+01 -0.24626356016E+02 -0.10363065185E+03  0.10655524459E+03  0.00000000000E+00 0.  1.
<scales pt_clust_5="13000.00000" pt_clust_6="13000.00000" pt_clust_7="13000.00000" pt_clust_8="13000.00000" pt_clust_9="24.79331"></scales>
<clustering>
<clus scale="   24.793">  2  9  1 -1</clus>
<clus scale="   92.168">  5  6 -1 -1</clus>
<clus scale="   92.206">  7  8 -1 -1</clus>
<clus scale="  107.438">  1  5  2 -1</clus>
<clus scale="   24.793">  2  5  1 -1</clus>
</clustering>
</event>
<event>
 9    1  0.1445593E-005  0.9800415E+02  0.7546771E-02  0.1285056E+00
         21   -1    0    0  501  502  0.00000000000E+00  0.00000000000E+00  0.16821056560E+03  0.16821056560E+03  0.00000000000E+00 0. -1.
          2   -1    0    0  502    0 -0.00000000000E+00 -0.00000000000E+00 -0.41522753131E+03  0.41522753131E+03  0.00000000000E+00 0. -1.
         23    2    1    2    0    0  0.28827638864E+02 -0.17890196870E+02 -0.33274000239E+03  0.34676225820E+03  0.91526294644E+02 0.  0.
         23    2    1    2    0    0 -0.17030370129E+02  0.45827876166E+02 -0.37704594658E+02  0.10957717762E+03  0.90527861216E+02 0.  0.
        -13    1    3    3    0    0 -0.31315700943E+02  0.76100942340E+01 -0.10431280776E+03  0.10917760082E+03  0.00000000000E+00 0.  1.
         13    1    3    3    0    0  0.60143339807E+02 -0.25500291104E+02 -0.22842719463E+03  0.23758465737E+03  0.00000000000E+00 0. -1.
        -13    1    4    4    0    0  0.29986369045E+02  0.26531179166E+01  0.79051126572E+01  0.31124141262E+02  0.00000000000E+00 0. -1.
         13    1    4    4    0    0 -0.47016739174E+02  0.43174758250E+02 -0.45609707316E+02  0.78453036359E+02  0.00000000000E+00 0.  1.
          2    1    1    2  501    0 -0.11797268735E+02 -0.27937679296E+02  0.12342763134E+03  0.12709866110E+03  0.00000000000E+00 0. -1.
<scales pt_clust_5="13000.00000" pt_clust_6="13000.00000" pt_clust_7="13000.00000" pt_clust_8="13000.00000" pt_clust_9="30.32638"></scales>
<clustering>
<clus scale="   30.326">  1  9  2 -1</clus>
<clus scale="   90.528">  7  8 -1 -1</clus>
<clus scale="   91.526">  5  6 -1 -1</clus>
<clus scale="   97.072">  1  7  2 -1</clus>
<clus scale="   30.326">  1  5  2 -1</clus>
</clustering>
</event>
<event>
 9    1  0.1445593E-005  0.9559325E+02  0.7546771E-02  0.1291535E+00
          1   -1    0    0  502    0 -0.00000000000E+00  0.00000000000E+00  0.83425009911E+02  0.83425009911E+02  0.00000000000E+00 0. -1.
         21   -1    0    0  501  502  0.00000000000E+00 -0.00000000000E+00 -0.28814907174E+03  0.28814907174E+03  0.00000000000E+00 0.  1.
         23    2    1    2    0    0 -0.25156958189E+02 -0.44450786153E+01  0.33867933341E+02  0.10064832031E+03  0.91271113736E+02 0.  0.
         23    2    1    2    0    0  0.38724727067E+02  0.21580108298E+02 -0.14902008185E+03  0.17872586302E+03  0.88151255000E+02 0.  0.
        -11    1    4    4    0    0 -0.14165412056E+02 -0.17254185460E+02 -0.89554408273E+01  0.24053393420E+02  0.00000000000E+00 0. -1.
         11    1    4    4    0    0  0.52890139123E+02  0.38834293759E+02 -0.14006464102E+03  0.15467246960E+03  0.00000000000E+00 0.  1.
        -13    1    3    3    0    0  0.22850055988E+02 -0.19554481252E+02  0.39893913698E+02  0.49960255662E+02  0.00000000000E+00 0. -1.
         13    1    3    3    0    0 -0.48007014177E+02  0.15109402637E+02 -0.60259803570E+01  0.50688064645E+02  0.00000000000E+00 0.  1.
          1    1    1    2  501    0 -0.13567768878E+02 -0.17135029683E+02 -0.89571913316E+02  0.92199898317E+02  0.00000000000E+00 0. -1.
<scales pt_clust_5="13000.00000" pt_clust_6="13000.00000" pt_clust_7="13000.00000" pt_clust_8="13000.00000" pt_clust_9="21.85620"></scales>
<clustering>
<clus scale="   21.856">  2  9  1 -1</clus>
<clus scale="   88.151">  5  6 -1 -1</clus>
<clus scale="   91.271">  7  8 -1 -1</clus>
<clus scale="   92.619">  2  5  1 -1</clus>
<clus scale="   21.856">  2  5  1 -1</clus>
</clustering>
</event>
<event>
 9    1  0.1445593E-005  0.1184291E+03  0.7546771E-02  0.1246874E+00
          2   -1    0    0  502    0 -0.00000000000E+00  0.00000000000E+00  0.19779234597E+03  0.19779234597E+03  0.00000000000E+00 0. -1.
         21   -1    0    0  501  502  0.00000000000E+00 -0.00000000000E+00 -0.12753464277E+03  0.12753464277E+03  0.00000000000E+00 0.  1.
         23    2    1    2    0    0  0.14936880504E+02 -0.75185809714E+02  0.12379380046E+03  0.17253728145E+03  0.92564529247E+02 0.  0.
         23    2    1    2    0    0 -0.38568482730E+02  0.57514566336E+02 -0.35706718809E+02  0.11831345165E+03  0.89037350999E+02 0.  0.
        -13    1    3    3    0    0 -0.16924919573E+02 -0.57698166444E+02  0.12215836814E+03  0.13615505213E+03  0.00000000000E+00 0. -1.
         13    1    3    3    0    0  0.31861800077E+02 -0.17487643271E+02  0.16354323228E+01  0.36382229319E+02  0.00000000000E+00 0.  1.
        -13    1    4    4    0    0 -0.32497613839E+02  0.81591554499E+02 -0.25359585747E+02  0.91413266324E+02  0.00000000000E+00 0.  1.
         13    1    4    4    0    0 -0.60708688905E+01 -0.24076988163E+02 -0.10347133062E+02  0.26900185328E+02  0.00000000000E+00 0. -1.
          2    1    1    2  501    0  0.23631602225E+02  0.17671243378E+02 -0.17829378458E+02  0.34476255633E+02  0.00000000000E+00 0. -1.
<scales pt_clust_5="13000.00000" pt_clust_6="13000.00000" pt_clust_7="13000.00000" pt_clust_8="13000.00000" pt_clust_9="29.50806"></scales>
<clustering>
<clus scale="   29.508">  2  9  1 -1</clus>
<clus scale="   89.037">  7  8 -1 -1</clus>
<clus scale="   92.565">  5  6 -1 -1</clus>
<clus scale="  115.693">  2  7  1 -1</clus>
<clus scale="   29.508">  2  5  1 -1</clus>
</clustering>
</event>
<event>
 9    1  0.1538769E-005  0.9676421E+02  0.7546771E-02  0.1298412E+00
         21   -1    0    0  501  502  0.00000000000E+00  0.00000000000E+00  0.13355589925E+03  0.13355589925E+03  0.00000000000E+00 0. -1.
          1   -1    0    0  502    0 -0.00000000000E+00 -0.00000000000E+00 -0.65118450193E+03  0.65118450193E+03  0.00000000000E+00 0. -1.
         23    2    1    2    0    0  0.32347980967E+02  0.18243688554E+02 -0.27445381548E+03  0.28591716826E+03  0.71024687460E+02 0.  0.
         23    2    1    2    0    0  0.82130459355E+01 -0.45615542485E+02 -0.35895133113E+03  0.37313065790E+03  0.90731460355E+02 0.  0.
        -11    1    4    4    0    0 -0.37330167251E+02 -0.26659238923E+02 -0.10737207282E+03  0.11676051742E+03  0.00000000000E+00 0. -1.
         11    1    4    4    0    0  0.45543213186E+02 -0.18956303561E+02 -0.25157925832E+03  0.25637014048E+03  0.00000000000E+00 0.  1.
        -13    1    3    3    0    0  0.48043822307E+02 -0.65742534320E+01 -0.13607668522E+03  0.14445862359E+03  0.00000000000E+00 0. -1.
         13    1    3    3    0    0 -0.15695841340E+02  0.24817941986E+02 -0.13837713026E+03  0.14145854467E+03  0.00000000000E+00 0.  1.
          1    1    1    2  501    0 -0.40561026903E+02  0.27371853930E+02  0.11577654394E+03  0.12569257503E+03  0.00000000000E+00 0. -1.
<scales pt_clust_5="13000.00000" pt_clust_6="13000.00000" pt_clust_7="13000.00000" pt_clust_8="13000.00000" pt_clust_9="48.93276"></scales>
<clustering>
<clus scale="   48.933">  1  9  2 -1</clus>
<clus scale="   71.025">  7  8 -1 -1</clus>
<clus scale="   78.585">  2  7  1 -1</clus>
<clus scale="   90.731">  5  6 -1 -1</clus>
<clus scale="   48.933">  1  5  2 -1</clus>
</clustering>
</event>
<event>
 9    1  0.1445593E-005  0.9202538E+02  0.7546771E-02  0.1298905E+00
         21   -1    0    0  501  502  0.00000000000E+00  0.00000000000E+00  0.40602105089E+02  0.40602105089E+02  0.00000000000E+00 0. -1.
          2   -1    0    0  502    0 -0.00000000000E+00 -0.00000000000E+00 -0.51043008983E+03  0.51043008983E+03  0.00000000000E+00 0. -1.
         23    2    1    2    0    0 -0.11881182114E+02  0.67341281866E+01 -0.31374979420E+03  0.32586254671E+03  0.86953752191E+02 0.  0.
         23    2    1    2    0    0  0.48159095566E+02 -0.34261994956E+02 -0.14209326233E+03  0.17753091743E+03  0.88507336743E+02 0.  0.
        -11    1    3    3    0    0 -0.47205237817E+02 -0.11022929652E+02 -0.17505288120E+03  0.18164071866E+03  0.00000000000E+00 0.  1.
         11    1    3    3    0    0  0.35324055704E+02  0.17757057838E+02 -0.13869691299E+03  0.14422182806E+03  0.00000000000E+00 0. -1.
        -13    1    4    4    0    0  0.73370490823E+02 -0.16724126851E+02 -0.93137025043E+02  0.11973901109E+03  0.00000000000E+00 0. -1.
         13    1    4    4    0    0 -0.25211395257E+02 -0.17537868105E+02 -0.48956237291E+02  0.57791906337E+02  0.00000000000E+00 0.  1.
          2    1    1    2  501    0 -0.36277913452E+02  0.27527866769E+02 -0.13984928207E+02  0.47638730780E+02  0.00000000000E+00 0. -1.
<scales pt_clust_5="13000.00000" pt_clust_6="13000.00000" pt_clust_7="13000.00000" pt_clust_8="13000.00000" pt_clust_9="45.53977"></scales>
<clustering>
<clus scale="   45.540">  1  9  2 -1</clus>
<clus scale="   86.954">  5  6 -1 -1</clus>
<clus scale="   88.507">  7  8 -1 -1</clus>
<clus scale="   90.532">  2  5  1 -1</clus>
<clus scale="   45.540">  1  5  2 -1</clus>
</clustering>
</event>
<event>
 9    1  0.1445593E-005  0.1204768E+03  0.7546771E-02  0.1248126E+00
          1   -1    0    0  502    0 -0.00000000000E+00  0.00000000000E+00  0.17431045503E+03  0.17431045503E+03  0.00000000000E+00 0. -1.
         21   -1    0    0  501  502  0.00000000000E+00 -0.00000000000E+00 -0.12037540473E+03  0.12037540473E+03  0.00000000000E+00 0.  1.
         23    2    1    2    0    0 -0.66643065497E+02  0.36283898372E+01  0.93042650720E+02  0.15581688207E+03  0.10567640461E+03 0.  0.
         23    2    1    2    0    0  0.42276121601E+02 -0.36503289965E+01 -0.89440016293E+01  0.10009281068E+03  0.90210754484E+02 0.  0.
        -11    1    3    3    0    0 -0.91222800744E+02  0.42572610521E+01  0.44909573990E+02  0.10176734979E+03  0.00000000000E+00 0.  1.
         11    1    3    3    0    0  0.24579735246E+02 -0.62887121486E+00  0.48133076730E+02  0.54049532276E+02  0.00000000000E+00 0. -1.
        -13    1    4    4    0    0  0.17052932600E+02 -0.37150963764E+02  0.23429277484E+02  0.47116108310E+02  0.00000000000E+00 0.  1.
         13    1    4    4    0    0  0.25223189001E+02  0.33500634767E+02 -0.32373279113E+02  0.52976702367E+02  0.00000000000E+00 0. -1.
          1    1    1    2  501    0  0.24366943897E+02  0.21939159278E-01 -0.30163598796E+02  0.38776167017E+02  0.00000000000E+00 0. -1.
<scales pt_clust_5="13000.00000" pt_clust_6="13000.00000" pt_clust_7="13000.00000" pt_clust_8="13000.00000" pt_clust_9="24.36695"></scales>
<clustering>
<clus scale="   24.367">  2  9  1 -1</clus>
<clus scale="   90.211">  7  8 -1 -1</clus>
<clus scale="  105.676">  5  6 -1 -1</clus>
<clus scale="  107.169">  2  7  1 -1</clus>
<clus scale="   24.367">  2  5  1 -1</clus>
</clustering>
</event>
<event>
 9    1  0.1445593E-005  0.1221042E+03  0.7546771E-02  0.1247866E+00
         21   -1    0    0  501  502  0.00000000000E+00  0.00000000000E+00  0.47653032803E+03  0.47653032803E+03  0.00000000000E+00 0. -1.
          2   -1    0    0  502    0 -0.00000000000E+00 -0.00000000000E+00 -0.72763266447E+02  0.72763266447E+02  0.00000000000E+00 0. -1.
         23    2    1    2    0    0  0.36048108075E+02 -0.44366655940E+02  0.48530107225E+02  0.11841326303E+03  0.91644221311E+02 0.  0.
         23    2    1    2    0    0 -0.67544659176E+02 -0.53088470854E+02  0.20048182561E+03  0.24530370483E+03  0.11225096207E+03 0.  0.
        -11    1    3    3    0    0  0.15174839037E+02  0.28009045128E+02  0.21282981570E+02  0.38311194882E+02  0.00000000000E+00 0.  1.
         11    1    3    3    0    0  0.20873269038E+02 -0.72375701069E+02  0.27247125654E+02  0.80102068150E+02  0.00000000000E+00 0. -1.
        -13    1    4    4    0    0 -0.27998306612E+02 -0.75721075787E+02  0.17587525191E+03  0.19351922573E+03  0.00000000000E+00 0. -1.
         13    1    4    4    0    0 -0.39546352564E+02  0.22632604934E+02  0.24606573700E+02  0.51784479108E+02  0.00000000000E+00 0.  1.
          2    1    1    2  501    0  0.31496551101E+02  0.97455126794E+02  0.15475512875E+03  0.18557662661E+03  0.00000000000E+00 0. -1.
<scales pt_clust_5="13000.00000" pt_clust_6="13000.00000" pt_clust_7="13000.00000" pt_clust_8="13000.00000" pt_clust_9="102.41843"></scales>
<clustering>
<clus scale="   91.644">  5  6 -1 -1</clus>
<clus scale="  102.418">  1  9  2 -1</clus>
<clus scale="  103.479">  2  5  1 -1</clus>
<clus scale="  112.251">  7  8 -1 -1</clus>
<clus scale="  102.418">  1  5  2 -1</clus>
</clustering>
</event>
<event>
 9    1  0.1445593E-005  0.2608852E+03  0.7546771E-02  0.1127495E+00
          2   -1    0    0  502    0 -0.00000000000E+00  0.00000000000E+00  0.17169232861E+03  0.17169232861E+03  0.00000000000E+00 0.  1.
         21   -1    0    0  501  502  0.00000000000E+00 -0.00000000000E+00 -0.79023560044E+03  0.79023560044E+03  0.00000000000E+00 0. -1.
         23    2    1    2    0    0  0.98745382211E+02  0.76514645320E+02 -0.97293063853E+02  0.18242234514E+03  0.90591557426E+02 0.  0.
         23    2    1    2    0    0 -0.19911291204E+03 -0.26528638945E+03 -0.21505151038E+03  0.40605404108E+03  0.92789611443E+02 0.  0.
        -11    1    3    3    0    0  0.65763234593E+02 -0.47471412574E+01 -0.33366532531E+02  0.73896304829E+02  0.00000000000E+00 0.  1.
         11    1    3    3    0    0  0.32982147618E+02  0.81261786577E+02 -0.63926531322E+02  0.10852604031E+03  0.00000000000E+00 0. -1.
        -13    1    4    4    0    0 -0.76517302821E+02 -0.16764046479E+03 -0.14450114069E+03  0.23417686207E+03  0.00000000000E+00 0.  1.
         13    1    4    4    0    0 -0.12259560922E+03 -0.97645924657E+02 -0.70550369694E+02  0.17187717902E+03  0.00000000000E+00 0. -1.
          2    1    1    2  501    0  0.10036752983E+03  0.18877174413E+03 -0.30619869759E+03  0.37345154282E+03  0.00000000000E+00 0.  1.
<scales pt_clust_5="13000.00000" pt_clust_6="13000.00000" pt_clust_7="13000.00000" pt_clust_8="13000.00000" pt_clust_9="243.82607"></scales>
<clustering>
<clus scale="   90.592">  5  6 -1 -1</clus>
<clus scale="   92.790">  7  8 -1 -1</clus>
<clus scale="  154.311">  1  5  2 -1</clus>
<clus scale="  243.826">  2  9  1 -1</clus>
<clus scale="  243.826">  2  5  1 -1</clus>
</clustering>
</event>
<event>
 9    1  0.1445593E-005  0.1014975E+03  0.7546771E-02  0.1279611E+00
         -2   -1    0    0    0  501 -0.00000000000E+00  0.00000000000E+00  0.19887347890E+03  0.19887347890E+03  0.00000000000E+00 0.  1.
         21   -1    0    0  501  502  0.00000000000E+00 -0.00000000000E+00 -0.97390373816E+02  0.97390373816E+02  0.00000000000E+00 0. -1.
         23    2    1    2    0    0  0.23598167383E+02  0.32531001370E+02  0.12889657642E+03  0.16549403406E+03  0.95701663224E+02 0.  0.
         23    2    1    2    0    0 -0.18168276277E+02 -0.82791108734E+01  0.10552434875E+01  0.92979533740E+02  0.90804461432E+02 0.  0.
        -11    1    3    3    0    0 -0.33505792803E+02  0.24515675884E+02  0.30761386305E+02  0.51671262834E+02  0.00000000000E+00 0.  1.
         11    1    3    3    0    0  0.57103960186E+02  0.80153254864E+01  0.98135190114E+02  0.11382277123E+03  0.00000000000E+00 0. -1.
        -11    1    4    4    0    0  0.32517225135E+02 -0.19199724863E+02 -0.11796136465E+02  0.39561953956E+02  0.00000000000E+00 0. -1.
         11    1    4    4    0    0 -0.50685501412E+02  0.10920613990E+02  0.12851379953E+02  0.53417579784E+02  0.00000000000E+00 0.  1.
         -2    1    1    2    0  502 -0.54298911061E+01 -0.24251890497E+02 -0.28468714824E+02  0.37790284913E+02  0.00000000000E+00 0.  1.
<scales pt_clust_5="13000.00000" pt_clust_6="13000.00000" pt_clust_7="13000.00000" pt_clust_8="13000.00000" pt_clust_9="24.85232"></scales>
<clustering>
<clus scale="   24.852">  2  9  1 -1</clus>
<clus scale="   90.804">  7  8 -1 -1</clus>
<clus scale="   95.702">  5  6 -1 -1</clus>
<clus scale="   96.894">  2  7  1 -1</clus>
<clus scale="   24.852">  2  5  1 -1</clus>
</clustering>
</event>
<event>
 9    1  0.1445593E-005  0.9382613E+02  0.7546771E-02  0.1294315E+00
          2   -1    0    0  502    0 -0.00000000000E+00  0.00000000000E+00  0.17813936189E+03  0.17813936189E+03  0.00000000000E+00 0. -1.
         21   -1    0    0  501  502  0.00000000000E+00 -0.00000000000E+00 -0.13209321975E+03  0.13209321975E+03  0.00000000000E+00 0. -1.
         23    2    1    2    0    0  0.87158541774E+01  0.25689411888E+02  0.84012069939E+02  0.12745938842E+03  0.91934519115E+02 0.  0.
         23    2    1    2    0    0 -0.82860366474E+01 -0.44580775471E+01  0.41481074971E+02  0.10053706642E+03  0.91096044287E+02 0.  0.
        -13    1    4    4    0    0 -0.16521160304E+02 -0.35072989130E+02  0.53979347382E+02  0.66459260063E+02  0.00000000000E+00 0.  1.
         13    1    4    4    0    0  0.82351236565E+01  0.30614911583E+02 -0.12498272411E+02  0.34077806357E+02  0.00000000000E+00 0. -1.
        -13    1    3    3    0    0  0.37681052453E+02  0.37023562874E+02  0.80323335928E+02  0.96137631636E+02  0.00000000000E+00 0. -1.
         13    1    3    3    0    0 -0.28965198276E+02 -0.11334150986E+02  0.36887340105E+01  0.31321756789E+02  0.00000000000E+00 0.  1.
          2    1    1    2  501    0 -0.42981753002E+00 -0.21231334341E+02 -0.79447002775E+02  0.82236126799E+02  0.00000000000E+00 0. -1.
<scales pt_clust_5="13000.00000" pt_clust_6="13000.00000" pt_clust_7="13000.00000" pt_clust_8="13000.00000" pt_clust_9="21.23568"></scales>
<clustering>
<clus scale="   21.236">  2  9  1 -1</clus>
<clus scale="   91.096">  5  6 -1 -1</clus>
<clus scale="   91.935">  7  8 -1 -1</clus>
<clus scale="   93.005">  2  5  1 -1</clus>
<clus scale="   21.236">  2  5  1 -1</clus>
</clustering>
</event>
<event>
 9    1  0.1445593E-005  0.9586680E+02  0.7546771E-02  0.1289619E+00
          2   -1    0    0  502    0 -0.00000000000E+00  0.00000000000E+00  0.47676902532E+03  0.47676902532E+03  0.00000000000E+00 0. -1.
         21   -1    0    0  501  502  0.00000000000E+00 -0.00000000000E+00 -0.64419190903E+02  0.64419190903E+02  0.00000000000E+00 0. -1.
         23    2    1    2    0    0  0.20214743368E+01  0.35411893379E+02  0.31154226064E+03  0.32664851275E+03  0.91556442497E+02 0.  0.
         23    2    1    2    0    0  0.12686494854E+02 -0.14955078208E+02  0.13994735805E+03  0.16799157400E+03  0.90836690778E+02 0.  0.
        -13    1    4    4    0    0  0.11255100549E+01  0.35896394554E+02  0.31976774703E+02  0.48086713708E+02  0.00000000000E+00 0.  1.
         13    1    4    4    0    0  0.11560984799E+02 -0.50851472761E+02  0.10797058335E+03  0.11990486029E+03  0.00000000000E+00 0. -1.
        -13    1    3    3    0    0 -0.21888512043E+02  0.59969955157E+02  0.19667236562E+03  0.20677408416E+03  0.00000000000E+00 0.  1.
         13    1    3    3    0    0  0.23909986380E+02 -0.24558061779E+02  0.11486989502E+03  0.11987442859E+03  0.00000000000E+00 0. -1.
          2    1    1    2  501    0 -0.14707969191E+02 -0.20456815171E+02 -0.39139784279E+02  0.46548129480E+02  0.00000000000E+00 0. -1.
<scales pt_clust_5="13000.00000" pt_clust_6="13000.00000" pt_clust_7="13000.00000" pt_clust_8="13000.00000" pt_clust_9="25.19535"></scales>
<clustering>
<clus scale="   25.195">  2  9  1 -1</clus>
<clus scale="   90.837">  5  6 -1 -1</clus>
<clus scale="   91.556">  7  8 -1 -1</clus>
<clus scale="   95.180">  2  5  1 -1</clus>
<clus scale="   25.195">  2  5  1 -1</clus>
</clustering>
</event>
<event>
 9    1  0.1445593E-005  0.1132746E+03  0.7546771E-02  0.1255421E+00
         -1   -1    0    0    0  501 -0.00000000000E+00  0.00000000000E+00  0.17151696407E+03  0.17151696407E+03  0.00000000000E+00 0.  1.
         21   -1    0    0  501  502  0.00000000000E+00 -0.00000000000E+00 -0.23089181311E+03  0.23089181311E+03  0.00000000000E+00 0.  1.
         23    2    1    2    0    0  0.57942532774E+02 -0.31252981932E+02  0.73541485015E+02  0.13544670926E+03  0.92754380201E+02 0.  0.
         23    2    1    2    0    0 -0.21122539810E+02  0.76070428481E+02  0.19317161223E+01  0.12016863471E+03  0.90575368962E+02 0.  0.
        -11    1    4    4    0    0 -0.51263745295E+01  0.89118014232E+02 -0.18458167960E+02  0.91153739040E+02  0.00000000000E+00 0.  1.
         11    1    4    4    0    0 -0.15996165280E+02 -0.13047585751E+02  0.20389884082E+02  0.29014895666E+02  0.00000000000E+00 0. -1.
        -11    1    3    3    0    0  0.82882848992E+02 -0.21435371214E+02  0.64398695341E+02  0.10712718496E+03  0.00000000000E+00 0.  1.
         11    1    3    3    0    0 -0.24940316219E+02 -0.98176107179E+01  0.91427896734E+01  0.28319524295E+02  0.00000000000E+00 0. -1.
         -1    1    1    2    0  502 -0.36819992964E+02 -0.44817446549E+02 -0.13484805018E+03  0.14679343321E+03  0.00000000000E+00 0.  1.
<scales pt_clust_5="13000.00000" pt_clust_6="13000.00000" pt_clust_7="13000.00000" pt_clust_8="13000.00000" pt_clust_9="58.00272"></scales>
<clustering>
<clus scale="   58.003">  2  9  1 -1</clus>
<clus scale="   90.575">  5  6 -1 -1</clus>
<clus scale="   92.754">  7  8 -1 -1</clus>
<clus scale="  111.497">  2  5  1 -1</clus>
<clus scale="   58.003">  2  5  1 -1</clus>
</clustering>
</event>
<event>
 9    1  0.1445593E-005  0.1412266E+03  0.7546771E-02  0.1213051E+00
         21   -1    0    0  501  502  0.00000000000E+00  0.00000000000E+00  0.10688336057E+03  0.10688336057E+03  0.00000000000E+00 0.  1.
          2   -1    0    0  502    0 -0.00000000000E+00 -0.00000000000E+00 -0.40268457999E+03  0.40268457999E+03  0.00000000000E+00 0. -1.
         23    2    1    2    0    0 -0.41771339093E+02  0.96770185049E+02 -0.30472607305E+03  0.33506835285E+03  0.91123586402E+02 0.  0.
         23    2    1    2    0    0  0.65915629148E+02 -0.68432075121E+02 -0.14323496101E+01  0.13585677628E+03  0.97093732882E+02 0.  0.
        -13    1    4    4    0    0  0.37284807122E+02 -0.21698282171E+02  0.46225051371E+02  0.63227586271E+02  0.00000000000E+00 0.  1.
         13    1    4    4    0    0  0.28630822026E+02 -0.46733792950E+02 -0.47657400982E+02  0.72629190011E+02  0.00000000000E+00 0. -1.
        -13    1    3    3    0    0 -0.48334770269E+02  0.80957130379E+01 -0.86424862049E+02  0.99353144725E+02  0.00000000000E+00 0.  1.
         13    1    3    3    0    0  0.65634311757E+01  0.88674472011E+02 -0.21830121100E+03  0.23571520812E+03  0.00000000000E+00 0. -1.
          2    1    1    2  501    0 -0.24144290055E+02 -0.28338109928E+02  0.10357203242E+02  0.38642811434E+02  0.00000000000E+00 0. -1.
<scales pt_clust_5="13000.00000" pt_clust_6="13000.00000" pt_clust_7="13000.00000" pt_clust_8="13000.00000" pt_clust_9="37.22896"></scales>
<clustering>
<clus scale="   37.229">  1  9  2 -1</clus>
<clus scale="   91.124">  7  8 -1 -1</clus>
<clus scale="   97.094">  5  6 -1 -1</clus>
<clus scale="  137.191">  2  7  1 -1</clus>
<clus scale="   37.229">  1  5  2 -1</clus>
</clustering>
</event>
<event>
 9    1  0.1445593E-005  0.2021053E+03  0.7546771E-02  0.1148057E+00
         21   -1    0    0  501  502  0.00000000000E+00  0.00000000000E+00  0.97776529218E+02  0.97776529218E+02  0.00000000000E+00 0.  1.
          1   -1    0    0  502    0 -0.00000000000E+00 -0.00000000000E+00 -0.84946261236E+03  0.84946261236E+03  0.00000000000E+00 0. -1.
         23    2    1    2    0    0 -0.14834235611E+03  0.97976100844E+02 -0.61683193154E+03  0.64847245053E+03  0.91815665159E+02 0.  0.
         23    2    1    2    0    0  0.12926894161E+03 -0.14583270022E+03 -0.10703041697E+03  0.24021577771E+03  0.90942146358E+02 0.  0.
        -11    1    4    4    0    0  0.11728727155E+02 -0.52122058109E+02 -0.64975821076E+02  0.84119731970E+02  0.00000000000E+00 0. -1.
         11    1    4    4    0    0  0.11754021446E+03 -0.93710642113E+02 -0.42054595895E+02  0.15609604574E+03  0.00000000000E+00 0.  1.
        -13    1    3    3    0    0 -0.95809434284E+02  0.10239118241E+03 -0.51569959869E+03  0.53442443621E+03  0.00000000000E+00 0. -1.
         13    1    3    3    0    0 -0.52532921825E+02 -0.44150815621E+01 -0.10113233285E+03  0.11404801431E+03  0.00000000000E+00 0.  1.
          1    1    1    2  501    0  0.19073414497E+02  0.47856599378E+02 -0.27823734631E+02  0.58550913344E+02  0.00000000000E+00 0. -1.
<scales pt_clust_5="13000.00000" pt_clust_6="13000.00000" pt_clust_7="13000.00000" pt_clust_8="13000.00000" pt_clust_9="51.51747"></scales>
<clustering>
<clus scale="   51.517">  1  9  2 -1</clus>
<clus scale="   90.942">  5  6 -1 -1</clus>
<clus scale="   91.816">  7  8 -1 -1</clus>
<clus scale="  201.710">  1  5  2 -1</clus>
<clus scale="   51.517">  1  5  2 -1</clus>
</clustering>
</event>
<event>
 9    1  0.1445593E-005  0.1023541E+03  0.7546771E-02  0.1275640E+00
         21   -1    0    0  501  502  0.00000000000E+00  0.00000000000E+00  0.10839153063E+03  0.10839153063E+03  0.00000000000E+00 0. -1.
         -3   -1    0    0    0  501 -0.00000000000E+00 -0.00000000000E+00 -0.18382818756E+03  0.18382818756E+03  0.00000000000E+00 0.  1.
         23    2    1    2    0    0 -0.14548924317E+02  0.62588132721E+02 -0.55179333273E+02  0.12475607927E+03  0.91598989832E+02 0.  0.
         23    2    1    2    0    0  0.30739524369E+02 -0.31584510605E+01  0.12123974817E+02  0.97875054488E+02  0.92074107946E+02 0.  0.
        -13    1    4    4    0    0  0.39635137679E+02 -0.41576860559E+02  0.10592816624E+02  0.58410506220E+02  0.00000000000E+00 0.  1.
         13    1    4    4    0    0 -0.88956133100E+01  0.38418409499E+02  0.15311581926E+01  0.39464548268E+02  0.00000000000E+00 0. -1.
        -13    1    3    3    0    0  0.99730816691E+01 -0.20609485766E+02 -0.22404942264E+02  0.32034273823E+02  0.00000000000E+00 0.  1.
         13    1    3    3    0    0 -0.24522005986E+02  0.83197618486E+02 -0.32774391009E+02  0.92721805447E+02  0.00000000000E+00 0. -1.
         -3    1    1    2    0  502 -0.16190600052E+02 -0.59429681660E+02 -0.32381298479E+02  0.69588584433E+02  0.00000000000E+00 0.  1.
<scales pt_clust_5="13000.00000" pt_clust_6="13000.00000" pt_clust_7="13000.00000" pt_clust_8="13000.00000" pt_clust_9="61.59567"></scales>
<clustering>
<clus scale="   61.596">  1  9  2 -1</clus>
<clus scale="   91.599">  7  8 -1 -1</clus>
<clus scale="   92.074">  5  6 -1 -1</clus>
<clus scale="  101.927">  2  7  1 -1</clus>
<clus scale="   61.596">  1  5  2 -1</clus>
</clustering>
</event>
<event>
 9    1  0.1445593E-005  0.1249147E+03  0.7546771E-02  0.1235573E+00
         21   -1    0    0  501  502  0.00000000000E+00  0.00000000000E+00  0.60032283839E+02  0.60032283839E+02  0.00000000000E+00 0.  1.
          4   -1    0    0  502    0 -0.00000000000E+00 -0.00000000000E+00 -0.40432959673E+03  0.40432959673E+03  0.00000000000E+00 0. -1.
         23    2    1    2    0    0 -0.17204874221E+02  0.77687767242E+02 -0.25464511188E+03  0.28250125180E+03  0.92905475566E+02 0.  0.
         23    2    1    2    0    0 -0.44063775322E+00 -0.95574662035E+02 -0.81339021202E+02  0.15539529188E+03  0.91634874271E+02 0.  0.
        -13    1    3    3    0    0  0.23458727995E+02  0.74879682263E+02 -0.13554902216E+03  0.15662316605E+03  0.00000000000E+00 0. -1.
         13    1    3    3    0    0 -0.40663602216E+02  0.28080849790E+01 -0.11909608972E+03  0.12587808575E+03  0.00000000000E+00 0.  1.
        -13    1    4    4    0    0 -0.27958635298E+02 -0.99845416239E+02 -0.71114630615E+02  0.12573019971E+03  0.00000000000E+00 0.  1.
         13    1    4    4    0    0  0.27517997545E+02  0.42707542045E+01 -0.10224390587E+02  0.29665092167E+02  0.00000000000E+00 0. -1.
          4    1    1    2  501    0  0.17645511975E+02  0.17886894793E+02 -0.83131798099E+01  0.26465336890E+02  0.00000000000E+00 0. -1.
<scales pt_clust_5="13000.00000" pt_clust_6="13000.00000" pt_clust_7="13000.00000" pt_clust_8="13000.00000" pt_clust_9="25.12579"></scales>
<clustering>
<clus scale="   25.126">  1  9  2 -1</clus>
<clus scale="   91.635">  7  8 -1 -1</clus>
<clus scale="   92.905">  5  6 -1 -1</clus>
<clus scale="  123.973">  1  7  2 -1</clus>
<clus scale="   25.126">  1  5  2 -1</clus>
</clustering>
</event>
<event>
 9    1  0.1445593E-005  0.1110385E+03  0.7546771E-02  0.1260838E+00
         21   -1    0    0  501  502  0.00000000000E+00  0.00000000000E+00  0.34610338308E+03  0.34610338308E+03  0.00000000000E+00 0. -1.
         -3   -1    0    0    0  501 -0.00000000000E+00 -0.00000000000E+00 -0.91315315306E+02  0.91315315306E+02  0.00000000000E+00 0.  1.
         23    2    1    2    0    0  0.48359515851E+02 -0.38117590043E+02 -0.18730284253E+01  0.10760542595E+03  0.88225993986E+02 0.  0.
         23    2    1    2    0    0 -0.74166545448E+02  0.28869138322E+02  0.56279699792E+02  0.12756530418E+03  0.82288508380E+02 0.  0.
        -11    1    3    3    0    0  0.62191910938E+02 -0.56768085747E+02  0.98099915653E+00  0.84210520155E+02  0.00000000000E+00 0.  1.
         11    1    3    3    0    0 -0.13832395087E+02  0.18650495703E+02 -0.28540275818E+01  0.23394905797E+02  0.00000000000E+00 0. -1.
        -13    1    4    4    0    0 -0.42384959942E+00  0.31815454629E+02  0.41507535893E+02  0.52299888505E+02  0.00000000000E+00 0.  1.
         13    1    4    4    0    0 -0.73742695848E+02 -0.29463163076E+01  0.14772163899E+02  0.75265415677E+02  0.00000000000E+00 0. -1.
         -3    1    1    2    0  502  0.25807029596E+02  0.92484517216E+01  0.20038139640E+03  0.20224796825E+03  0.00000000000E+00 0.  1.
<scales pt_clust_5="13000.00000" pt_clust_6="13000.00000" pt_clust_7="13000.00000" pt_clust_8="13000.00000" pt_clust_9="27.41417"></scales>
<clustering>
<clus scale="   27.414">  1  9  2 -1</clus>
<clus scale="   82.289">  7  8 -1 -1</clus>
<clus scale="   88.226">  5  6 -1 -1</clus>
<clus scale="  106.382">  1  7  2 -1</clus>
<clus scale="   27.414">  1  5  2 -1</clus>
</clustering>
</event>
<event>
 9    1  0.1445593E-005  0.9068265E+02  0.7546771E-02  0.1302161E+00
          2   -1    0    0  502    0 -0.00000000000E+00  0.00000000000E+00  0.19885214994E+03  0.19885214994E+03  0.00000000000E+00 0. -1.
         21   -1    0    0  501  502  0.00000000000E+00 -0.00000000000E+00 -0.11529732402E+03  0.11529732402E+03  0.00000000000E+00 0. -1.
         23    2    1    2    0    0  0.51544833550E+01 -0.12106075003E+02  0.10672935800E+03  0.13963516060E+03  0.89071299904E+02 0.  0.
         23    2    1    2    0    0  0.13213177952E+02 -0.16372664209E+02  0.41195021337E+02  0.10176921747E+03  0.90649278195E+02 0.  0.
        -11    1    3    3    0    0  0.31554174387E+02  0.24671797627E+02  0.28182923263E+02  0.48975919420E+02  0.00000000000E+00 0. -1.
         11    1    3    3    0    0 -0.26399691032E+02 -0.36777872630E+02  0.78546434733E+02  0.90659241178E+02  0.00000000000E+00 0.  1.
        -13    1    4    4    0    0  0.31698839378E+02  0.70563365048E+01  0.58762508329E+02  0.67138965496E+02  0.00000000000E+00 0.  1.
         13    1    4    4    0    0 -0.18485661426E+02 -0.23429000714E+02 -0.17567486992E+02  0.34630251977E+02  0.00000000000E+00 0. -1.
          2    1    1    2  501    0 -0.18367661307E+02  0.28478739212E+02 -0.64369553413E+02  0.72745095887E+02  0.00000000000E+00 0. -1.
<scales pt_clust_5="13000.00000" pt_clust_6="13000.00000" pt_clust_7="13000.00000" pt_clust_8="13000.00000" pt_clust_9="33.88819"></scales>
<clustering>
<clus scale="   33.888">  2  9  1 -1</clus>
<clus scale="   89.071">  5  6 -1 -1</clus>
<clus scale="   89.105">  1  5  2 -1</clus>
<clus scale="   90.649">  7  8 -1 -1</clus>
<clus scale="   33.888">  2  5  1 -1</clus>
</clustering>
</event>
<event>
 9    1  0.1445593E-005  0.5086711E+03  0.7546771E-02  0.1011661E+00
          1   -1    0    0  502    0 -0.00000000000E+00  0.00000000000E+00  0.15443044407E+04  0.15443044407E+04  0.00000000000E+00 0. -1.
         21   -1    0    0  501  502  0.00000000000E+00 -0.00000000000E+00 -0.20337248054E+03  0.20337248054E+03  0.00000000000E+00 0. -1.
         23    2    1    2    0    0 -0.39254018078E+03  0.25096812425E+03  0.56322360338E+03  0.73497623177E+03  0.76788286523E+02 0.  0.
         23    2    1    2    0    0  0.43867157885E+03 -0.32401707515E+03  0.60319538338E+03  0.81797258929E+03  0.88400606479E+02 0.  0.
        -13    1    4    4    0    0  0.39734294012E+03 -0.30917085999E+03  0.58094665844E+03  0.76874381473E+03  0.00000000000E+00 0. -1.
         13    1    4    4    0    0  0.41328638727E+02 -0.14846215153E+02  0.22248724940E+02  0.49228774562E+02  0.00000000000E+00 0.  1.
        -13    1    3    3    0    0 -0.57883577191E+02  0.69923964692E+02  0.12740632086E+03  0.15643605704E+03  0.00000000000E+00 0.  1.
         13    1    3    3    0    0 -0.33465660359E+03  0.18104415956E+03  0.43581728252E+03  0.57854017473E+03  0.00000000000E+00 0. -1.
          1    1    1    2  501    0 -0.46131398062E+02  0.73048950893E+02  0.17451297339E+03  0.19472810016E+03  0.00000000000E+00 0. -1.
<scales pt_clust_5="13000.00000" pt_clust_6="13000.00000" pt_clust_7="13000.00000" pt_clust_8="13000.00000" pt_clust_9="86.39596"></scales>
<clustering>
<clus scale="   76.788">  7  8 -1 -1</clus>
<clus scale="   86.396">  2  9  1 -1</clus>
<clus scale="   88.401">  5  6 -1 -1</clus>
<clus scale="  506.782">  1  7  2 -1</clus>
<clus scale="   86.396">  2  5  1 -1</clus>
</clustering>
</event>
<event>
 9    1  0.1445593E-005  0.1106261E+03  0.7546771E-02  0.1260074E+00
          3   -1    0    0  502    0 -0.00000000000E+00  0.00000000000E+00  0.10240760996E+03  0.10240760996E+03  0.00000000000E+00 0. -1.
         21   -1    0    0  501  502  0.00000000000E+00 -0.00000000000E+00 -0.16800251538E+03  0.16800251538E+03  0.00000000000E+00 0.  1.
         23    2    1    2    0    0  0.21707518801E+02 -0.64772163116E+02  0.17060529258E+02  0.11509861721E+03  0.91049330245E+02 0.  0.
         23    2    1    2    0    0 -0.11444328870E+02  0.41628181483E+02 -0.79964698750E+02  0.12985140182E+03  0.92753195910E+02 0.  0.
        -11    1    3    3    0    0  0.23210247551E+01 -0.24989123980E+02 -0.37327763234E+02  0.44980055372E+02  0.00000000000E+00 0.  1.
         11    1    3    3    0    0  0.19386494046E+02 -0.39783039136E+02  0.54388292491E+02  0.70118561839E+02  0.00000000000E+00 0. -1.
        -11    1    4    4    0    0 -0.50522866467E+02  0.37293213772E+02 -0.53032177322E+02  0.82193403999E+02  0.00000000000E+00 0.  1.
         11    1    4    4    0    0  0.39078537597E+02  0.43349677111E+01 -0.26932521428E+02  0.47657997820E+02  0.00000000000E+00 0. -1.
          3    1    1    2  501    0 -0.10263189931E+02  0.23143981632E+02 -0.26907359330E+01  0.25460106308E+02  0.00000000000E+00 0. -1.
<scales pt_clust_5="13000.00000" pt_clust_6="13000.00000" pt_clust_7="13000.00000" pt_clust_8="13000.00000" pt_clust_9="25.31754"></scales>
<clustering>
<clus scale="   25.318">  2  9  1 -1</clus>
<clus scale="   91.049">  5  6 -1 -1</clus>
<clus scale="   92.753">  7  8 -1 -1</clus>
<clus scale="  109.201">  1  5  2 -1</clus>
<clus scale="   25.318">  2  5  1 -1</clus>
</clustering>
</event>
<event>
 9    1  0.1445593E-005  0.1052225E+03  0.7546771E-02  0.1270268E+00
         21   -1    0    0  501  502  0.00000000000E+00  0.00000000000E+00  0.11312061588E+03  0.11312061588E+03  0.00000000000E+00 0.  1.
          2   -1    0    0  502    0 -0.00000000000E+00 -0.00000000000E+00 -0.23099146633E+03  0.23099146633E+03  0.00000000000E+00 0. -1.
         23    2    1    2    0    0 -0.64615832008E+01  0.52024555771E+02 -0.17590893514E+03  0.20591204688E+03  0.93314045719E+02 0.  0.
         23    2    1    2    0    0 -0.59277191031E+01 -0.32539901418E+02  0.30770865699E+02  0.10246982684E+03  0.91974106131E+02 0.  0.
        -11    1    3    3    0    0  0.29867080837E+02  0.24960854131E+02 -0.20413879685E+02  0.43952397437E+02  0.00000000000E+00 0.  1.
         11    1    3    3    0    0 -0.36328664038E+02  0.27063701640E+02 -0.15549505546E+03  0.16195964945E+03  0.00000000000E+00 0. -1.
        -11    1    4    4    0    0  0.15623428181E+02 -0.60289692782E+02  0.15640295070E+02  0.64214931237E+02  0.00000000000E+00 0.  1.
         11    1    4    4    0    0 -0.21551147284E+02  0.27749791364E+02  0.15130570629E+02  0.38254895602E+02  0.00000000000E+00 0. -1.
          2    1    1    2  501    0  0.12389302304E+02 -0.19484654353E+02  0.27267218994E+02  0.35730208487E+02  0.00000000000E+00 0. -1.
<scales pt_clust_5="13000.00000" pt_clust_6="13000.00000" pt_clust_7="13000.00000" pt_clust_8="13000.00000" pt_clust_9="23.08997"></scales>
<clustering>
<clus scale="   23.090">  1  9  2 -1</clus>
<clus scale="   91.974">  7  8 -1 -1</clus>
<clus scale="   93.314">  5  6 -1 -1</clus>
<clus scale="  104.036">  1  7  2 -1</clus>
<clus scale="   23.090">  1  5  2 -1</clus>
</clustering>
</event>
<event>
 9    1  0.1445593E-005  0.9316378E+02  0.7546771E-02  0.1296762E+00
          2   -1    0    0  502    0 -0.00000000000E+00  0.00000000000E+00  0.37549642167E+03  0.37549642167E+03  0.00000000000E+00 0. -1.
         21   -1    0    0  501  502  0.00000000000E+00 -0.00000000000E+00 -0.68481148738E+02  0.68481148738E+02  0.00000000000E+00 0. -1.
         23    2    1    2    0    0  0.13225656295E+02  0.46295767779E+01  0.21923867771E+03  0.23835967021E+03  0.92484504732E+02 0.  0.
         23    2    1    2    0    0  0.22035336619E+02 -0.22662239855E+02  0.12085677306E+03  0.15401545138E+03  0.90084773923E+02 0.  0.
        -11    1    4    4    0    0 -0.10447910318E+02 -0.23457597112E+02 -0.31047250561E+01  0.25866136356E+02  0.00000000000E+00 0.  1.
         11    1    4    4    0    0  0.32483246937E+02  0.79535725763E+00  0.12396149812E+03  0.12814931502E+03  0.00000000000E+00 0. -1.
        -13    1    3    3    0    0  0.28296974985E+02 -0.38349101704E+02  0.12218541970E+03  0.13115124545E+03  0.00000000000E+00 0.  1.
         13    1    3    3    0    0 -0.15071318690E+02  0.42978678482E+02  0.97053258008E+02  0.10720842477E+03  0.00000000000E+00 0. -1.
          2    1    1    2  501    0 -0.35260992913E+02  0.18032663077E+02 -0.33080177833E+02  0.51602448821E+02  0.00000000000E+00 0. -1.
<scales pt_clust_5="13000.00000" pt_clust_6="13000.00000" pt_clust_7="13000.00000" pt_clust_8="13000.00000" pt_clust_9="39.60448"></scales>
<clustering>
<clus scale="   39.604">  2  9  1 -1</clus>
<clus scale="   90.085">  5  6 -1 -1</clus>
<clus scale="   90.782">  2  5  1 -1</clus>
<clus scale="   92.485">  7  8 -1 -1</clus>
<clus scale="   39.604">  2  5  1 -1</clus>
</clustering>
</event>
<event>
 9    1  0.1445593E-005  0.1002652E+03  0.7546771E-02  0.1280919E+00
         21   -1    0    0  501  502  0.00000000000E+00  0.00000000000E+00  0.32538952677E+02  0.32538952677E+02  0.00000000000E+00 0. -1.
          4   -1    0    0  502    0 -0.00000000000E+00 -0.00000000000E+00 -0.58763020837E+03  0.58763020837E+03  0.00000000000E+00 0. -1.
         23    2    1    2    0    0 -0.24267156821E+02  0.29752761293E+02 -0.30077576733E+03  0.31803641661E+03  0.95953000870E+02 0.  0.
         23    2    1    2    0    0  0.33605519830E+02  0.28589201895E+02 -0.14992850530E+03  0.18218428915E+03  0.93626305506E+02 0.  0.
        -11    1    4    4    0    0 -0.15434597683E+02  0.44804221219E+02 -0.45574447121E+02  0.65747055258E+02  0.00000000000E+00 0. -1.
         11    1    4    4    0    0  0.49040117513E+02 -0.16215019324E+02 -0.10435405818E+03  0.11643723389E+03  0.00000000000E+00 0.  1.
        -13    1    3    3    0    0 -0.39447530160E+02 -0.12025232040E+02 -0.23537103980E+03  0.23895656555E+03  0.00000000000E+00 0. -1.
         13    1    3    3    0    0  0.15180373339E+02  0.41777993333E+02 -0.65404727524E+02  0.79079851063E+02  0.00000000000E+00 0.  1.
          4    1    1    2  501    0 -0.93383630085E+01 -0.58341963188E+02 -0.10438698307E+03  0.11994845529E+03  0.00000000000E+00 0. -1.
<scales pt_clust_5="13000.00000" pt_clust_6="13000.00000" pt_clust_7="13000.00000" pt_clust_8="13000.00000" pt_clust_9="59.08460"></scales>
<clustering>
<clus scale="   59.085">  1  9  2 -1</clus>
<clus scale="   93.626">  5  6 -1 -1</clus>
<clus scale="   95.953">  7  8 -1 -1</clus>
<clus scale="   98.041">  1  5  2 -1</clus>
<clus scale="   59.085">  1  5  2 -1</clus>
</clustering>
</event>
<event>
 9    1  0.1445593E-005  0.1091931E+03  0.7546771E-02  0.1262988E+00
         21   -1    0    0  501  502  0.00000000000E+00  0.00000000000E+00  0.15489733443E+03  0.15489733443E+03  0.00000000000E+00 0. -1.
          1   -1    0    0  502    0 -0.00000000000E+00 -0.00000000000E+00 -0.27812890332E+03  0.27812890332E+03  0.00000000000E+00 0. -1.
         23    2    1    2    0    0  0.53464501172E+02  0.33112389144E+02 -0.22310700870E+03  0.24924484707E+03  0.91604439090E+02 0.  0.
         23    2    1    2    0    0 -0.86504377860E+01 -0.21934047696E+02  0.32502847910E+02  0.10209710986E+03  0.93869335763E+02 0.  0.
        -13    1    4    4    0    0  0.36065760896E+02  0.81523022524E+01 -0.37165611384E+01  0.37161969374E+02  0.00000000000E+00 0. -1.
         13    1    4    4    0    0 -0.44716198682E+02 -0.30086349948E+02  0.36219409048E+02  0.64935140483E+02  0.00000000000E+00 0.  1.
        -13    1    3    3    0    0  0.61106392174E+02  0.58193127549E+02 -0.15949687342E+03  0.18044302117E+03  0.00000000000E+00 0. -1.
         13    1    3    3    0    0 -0.76418910028E+01 -0.25080738406E+02 -0.63610135282E+02  0.68801825903E+02  0.00000000000E+00 0.  1.
          1    1    1    2  501    0 -0.44814063386E+02 -0.11178341448E+02  0.67372591892E+02  0.81684280819E+02  0.00000000000E+00 0. -1.
<scales pt_clust_5="13000.00000" pt_clust_6="13000.00000" pt_clust_7="13000.00000" pt_clust_8="13000.00000" pt_clust_9="46.18718"></scales>
<clustering>
<clus scale="   46.187">  1  9  2 -1</clus>
<clus scale="   91.604">  7  8 -1 -1</clus>
<clus scale="   93.869">  5  6 -1 -1</clus>
<clus scale="  107.252">  2  7  1 -1</clus>
<clus scale="   46.187">  1  5  2 -1</clus>
</clustering>
</event>
<event>
 9    1  0.1445593E-005  0.9940198E+02  0.7546771E-02  0.1286379E+00
         21   -1    0    0  501  502  0.00000000000E+00  0.00000000000E+00  0.66719305298E+02  0.66719305298E+02  0.00000000000E+00 0.  1.
          1   -1    0    0  502    0 -0.00000000000E+00 -0.00000000000E+00 -0.20232291670E+03  0.20232291670E+03  0.00000000000E+00 0. -1.
         23    2    1    2    0    0 -0.28956191048E+02 -0.21286362070E+02 -0.12086146846E+03  0.15787704608E+03  0.95005773037E+02 0.  0.
         23    2    1    2    0    0  0.13192740161E+02  0.61906923919E+01 -0.50286195634E+01  0.87275467606E+02  0.85903126636E+02 0.  0.
        -11    1    4    4    0    0 -0.29854719025E+02 -0.45068216246E+01  0.20122757706E+02  0.36284171024E+02  0.00000000000E+00 0.  1.
         11    1    4    4    0    0  0.43047459186E+02  0.10697514017E+02 -0.25151377269E+02  0.50991296582E+02  0.00000000000E+00 0. -1.
        -13    1    3    3    0    0 -0.25848804206E+02 -0.52712332180E+02 -0.39925623416E+02  0.70998634127E+02  0.00000000000E+00 0.  1.
         13    1    3    3    0    0 -0.31073868417E+01  0.31425970110E+02 -0.80935845046E+02  0.86878411954E+02  0.00000000000E+00 0. -1.
          1    1    1    2  501    0  0.15763450887E+02  0.15095669678E+02 -0.97135233795E+01  0.23889708314E+02  0.00000000000E+00 0. -1.
<scales pt_clust_5="13000.00000" pt_clust_6="13000.00000" pt_clust_7="13000.00000" pt_clust_8="13000.00000" pt_clust_9="21.82580"></scales>
<clustering>
<clus scale="   21.826">  1  9  2 -1</clus>
<clus scale="   85.903">  5  6 -1 -1</clus>
<clus scale="   90.741">  1  5  2 -1</clus>
<clus scale="   95.006">  7  8 -1 -1</clus>
<clus scale="   21.826">  1  5  2 -1</clus>
</clustering>
</event>
<event>
 9    1  0.1445593E-005  0.1136968E+03  0.7546771E-02  0.1253999E+00
          2   -1    0    0  502    0 -0.00000000000E+00  0.00000000000E+00  0.57471202770E+03  0.57471202770E+03  0.00000000000E+00 0. -1.
         21   -1    0    0  501  502  0.00000000000E+00 -0.00000000000E+00 -0.33884776981E+02  0.33884776981E+02  0.00000000000E+00 0.  1.
         23    2    1    2    0    0  0.34107947704E+02 -0.66997593564E+02  0.34753258901E+03  0.36736175446E+03  0.92324041133E+02 0.  0.
         23    2    1    2    0    0 -0.43861549120E+02  0.31636608720E+02  0.15115550583E+03  0.18536698737E+03  0.92672663499E+02 0.  0.
        -13    1    3    3    0    0 -0.30285785182E+02 -0.34554112716E+02  0.15919438105E+03  0.16569268677E+03  0.00000000000E+00 0. -1.
         13    1    3    3    0    0  0.64393732886E+02 -0.32443480848E+02  0.18833820796E+03  0.20166906769E+03  0.00000000000E+00 0.  1.
        -13    1    4    4    0    0 -0.41178325340E+02  0.19453096281E+01  0.11830655499E+02  0.42888263160E+02  0.00000000000E+00 0.  1.
         13    1    4    4    0    0 -0.26832237805E+01  0.29691299092E+02  0.13932485033E+03  0.14247872421E+03  0.00000000000E+00 0. -1.
          2    1    1    2  501    0  0.97536014161E+01  0.35360984844E+02  0.42139155877E+02  0.55868062860E+02  0.00000000000E+00 0. -1.
<scales pt_clust_5="13000.00000" pt_clust_6="13000.00000" pt_clust_7="13000.00000" pt_clust_8="13000.00000" pt_clust_9="36.68149"></scales>
<clustering>
<clus scale="   36.681">  2  9  1 -1</clus>
<clus scale="   92.324">  5  6 -1 -1</clus>
<clus scale="   92.673">  7  8 -1 -1</clus>
<clus scale="  113.413">  1  5  2 -1</clus>
<clus scale="   36.681">  2  5  1 -1</clus>
</clustering>
</event>
<event>
 9    1  0.1445593E-005  0.9695718E+02  0.7546771E-02  0.1288285E+00
         -2   -1    0    0    0  501 -0.00000000000E+00  0.00000000000E+00  0.10626589322E+03  0.10626589322E+03  0.00000000000E+00 0.  1.
         21   -1    0    0  501  502  0.00000000000E+00 -0.00000000000E+00 -0.23045262529E+03  0.23045262529E+03  0.00000000000E+00 0.  1.
         23    2    1    2    0    0  0.13196104109E+02 -0.28493080236E+02  0.48195757608E+02  0.10543934915E+03  0.88366467134E+02 0.  0.
         23    2    1    2    0    0 -0.56442483506E+02  0.13952283422E+02 -0.12902257111E+03  0.16833660314E+03  0.91159025576E+02 0.  0.
        -13    1    3    3    0    0  0.48807844378E+02 -0.24823218702E+02  0.15384895589E+02  0.56877876822E+02  0.00000000000E+00 0.  1.
         13    1    3    3    0    0 -0.35611740269E+02 -0.36698615342E+01  0.32810862019E+02  0.48561472332E+02  0.00000000000E+00 0. -1.
        -13    1    4    4    0    0 -0.14438751054E+02  0.15841513482E+02 -0.12417560925E+03  0.12601195583E+03  0.00000000000E+00 0.  1.
         13    1    4    4    0    0 -0.42003732452E+02 -0.18892300601E+01 -0.48469618606E+01  0.42324647304E+02  0.00000000000E+00 0. -1.
         -2    1    1    2    0  502  0.43246379397E+02  0.14540796814E+02 -0.43359918571E+02  0.62942566213E+02  0.00000000000E+00 0.  1.
<scales pt_clust_5="13000.00000" pt_clust_6="13000.00000" pt_clust_7="13000.00000" pt_clust_8="13000.00000" pt_clust_9="45.62548"></scales>
<clustering>
<clus scale="   45.625">  2  9  1 -1</clus>
<clus scale="   88.366">  5  6 -1 -1</clus>
<clus scale="   91.159">  7  8 -1 -1</clus>
<clus scale="   94.336">  1  5  2 -1</clus>
<clus scale="   45.625">  2  5  1 -1</clus>
</clustering>
</event>
<event>
 9    1  0.1445593E-005  0.1225236E+03  0.7546771E-02  0.1239923E+00
         21   -1    0    0  501  502  0.00000000000E+00  0.00000000000E+00  0.29213806064E+03  0.29213806064E+03  0.00000000000E+00 0.  1.
          3   -1    0    0  502    0 -0.00000000000E+00 -0.00000000000E+00 -0.74574160672E+02  0.74574160672E+02  0.00000000000E+00 0. -1.
         23    2    1    2    0    0 -0.83793759443E+02 -0.22826094972E+02  0.51374029917E+02  0.13897936533E+03  0.95569599265E+02 0.  0.
         23    2    1    2    0    0  0.64062967936E+02  0.11715935929E+02  0.80015396330E+02  0.13863302608E+03  0.92603052087E+02 0.  0.
        -11    1    3    3    0    0  0.19600339372E+02 -0.16352259622E+02  0.10945904296E+02  0.27773773944E+02  0.00000000000E+00 0. -1.
         11    1    3    3    0    0 -0.10339409881E+03 -0.64738353500E+01  0.40428125621E+02  0.11120559138E+03  0.00000000000E+00 0.  1.
        -13    1    4    4    0    0 -0.16239817540E+01 -0.22193317662E+02 -0.80411857806E+01  0.23660966471E+02  0.00000000000E+00 0.  1.
         13    1    4    4    0    0  0.65686949690E+02  0.33909253590E+02  0.88056582111E+02  0.11497205961E+03  0.00000000000E+00 0. -1.
          3    1    1    2  501    0  0.19730791507E+02  0.11110159043E+02  0.86174473720E+02  0.89099829901E+02  0.00000000000E+00 0. -1.
<scales pt_clust_5="13000.00000" pt_clust_6="13000.00000" pt_clust_7="13000.00000" pt_clust_8="13000.00000" pt_clust_9="22.64376"></scales>
<clustering>
<clus scale="   22.644">  1  9  2 -1</clus>
<clus scale="   92.603">  7  8 -1 -1</clus>
<clus scale="   95.570">  5  6 -1 -1</clus>
<clus scale="  120.224">  1  7  2 -1</clus>
<clus scale="   22.644">  1  5  2 -1</clus>
</clustering>
</event>
<event>
 9    1  0.1445593E-005  0.1154640E+03  0.7546771E-02  0.1250875E+00
         21   -1    0    0  501  502  0.00000000000E+00  0.00000000000E+00  0.95580860419E+02  0.95580860419E+02  0.00000000000E+00 0.  1.
          4   -1    0    0  502    0 -0.00000000000E+00 -0.00000000000E+00 -0.19199892984E+03  0.19199892984E+03  0.00000000000E+00 0. -1.
         23    2    1    2    0    0  0.52780366549E+02 -0.59634080835E+02 -0.96041733181E+02  0.15469641218E+03  0.91460235837E+02 0.  0.
         23    2    1    2    0    0 -0.30515491447E+02  0.44627124861E+02  0.10726223417E+01  0.10599410750E+03  0.91163725326E+02 0.  0.
        -11    1    4    4    0    0  0.19145266660E+02  0.12839288363E+02  0.31979393109E+02  0.39421696370E+02  0.00000000000E+00 0.  1.
         11    1    4    4    0    0 -0.49660758107E+02  0.31787836498E+02 -0.30906770767E+02  0.66572411134E+02  0.00000000000E+00 0. -1.
        -13    1    3    3    0    0  0.30101195874E+02  0.12409507809E+02 -0.65653580003E+02  0.73283493669E+02  0.00000000000E+00 0. -1.
         13    1    3    3    0    0  0.22679170675E+02 -0.72043588644E+02 -0.30388153178E+02  0.81412918513E+02  0.00000000000E+00 0.  1.
          4    1    1    2  501    0 -0.22264875102E+02  0.15006955974E+02 -0.14489585808E+01  0.26889270572E+02  0.00000000000E+00 0. -1.
<scales pt_clust_5="13000.00000" pt_clust_6="13000.00000" pt_clust_7="13000.00000" pt_clust_8="13000.00000" pt_clust_9="26.85020"></scales>
<clustering>
<clus scale="   26.850">  1  9  2 -1</clus>
<clus scale="   91.164">  5  6 -1 -1</clus>
<clus scale="   91.460">  7  8 -1 -1</clus>
<clus scale="  115.229">  1  5  2 -1</clus>
<clus scale="   26.850">  1  5  2 -1</clus>
</clustering>
</event>
<event>
 9    1  0.1445593E-005  0.1149299E+03  0.7546771E-02  0.1251731E+00
         21   -1    0    0  501  502  0.00000000000E+00  0.00000000000E+00  0.48146627728E+02  0.48146627728E+02  0.00000000000E+00 0. -1.
         -2   -1    0    0    0  501 -0.00000000000E+00 -0.00000000000E+00 -0.54262678497E+03  0.54262678497E+03  0.00000000000E+00 0.  1.
         23    2    1    2    0    0  0.35374796038E+02  0.75613045419E+02 -0.38595407198E+03  0.40517994150E+03  0.90782875522E+02 0.  0.
         23    2    1    2    0    0 -0.19583943990E+02 -0.38005408761E+02 -0.10397886521E+03  0.14455248494E+03  0.90861843112E+02 0.  0.
        -13    1    4    4    0    0 -0.20791726449E+02  0.25820454100E+02 -0.54477530436E+02  0.63771412569E+02  0.00000000000E+00 0.  1.
         13    1    4    4    0    0  0.12077824593E+01 -0.63825862861E+02 -0.49501334773E+02  0.80781072367E+02  0.00000000000E+00 0. -1.
        -13    1    3    3    0    0 -0.91510977438E+01  0.71197328371E+02 -0.29769008245E+03  0.30622244749E+03  0.00000000000E+00 0.  1.
         13    1    3    3    0    0  0.44525893782E+02  0.44157170474E+01 -0.88263989522E+02  0.98957494008E+02  0.00000000000E+00 0. -1.
         -2    1    1    2    0  502 -0.15790852048E+02 -0.37607636657E+02 -0.45472200611E+01  0.41040986265E+02  0.00000000000E+00 0.  1.
<scales pt_clust_5="13000.00000" pt_clust_6="13000.00000" pt_clust_7="13000.00000" pt_clust_8="13000.00000" pt_clust_9="40.78830"></scales>
<clustering>
<clus scale="   40.788">  1  9  2 -1</clus>
<clus scale="   90.783">  7  8 -1 -1</clus>
<clus scale="   90.862">  5  6 -1 -1</clus>
<clus scale="  114.867">  2  7  1 -1</clus>
<clus scale="   40.788">  1  5  2 -1</clus>
</clustering>
</event>
<event>
 9    1  0.1445593E-005  0.1065697E+03  0.7546771E-02  0.1269787E+00
         21   -1    0    0  501  502  0.00000000000E+00  0.00000000000E+00  0.98938716435E+02  0.98938716435E+02  0.00000000000E+00 0.  1.
         -4   -1    0    0    0  501 -0.00000000000E+00 -0.00000000000E+00 -0.27137260937E+03  0.27137260937E+03  0.00000000000E+00 0.  1.
         23    2    1    2    0    0 -0.30266015087E+02 -0.14120110583E+02 -0.14761186904E+03  0.17669107280E+03  0.91186962517E+02 0.  0.
         23    2    1    2    0    0  0.63469480115E+02  0.23092108311E+02 -0.69461417849E+02  0.13726741524E+03  0.97241114472E+02 0.  0.
        -13    1    4    4    0    0  0.54879485447E+02 -0.12366735569E+02  0.27921572435E+01  0.56324863193E+02  0.00000000000E+00 0.  1.
         13    1    4    4    0    0  0.85899946673E+01  0.35458843880E+02 -0.72253575092E+02  0.80942552043E+02  0.00000000000E+00 0. -1.
        -13    1    3    3    0    0 -0.14354685305E+02 -0.51897614758E+02 -0.64512788003E+02  0.84031656081E+02  0.00000000000E+00 0.  1.
         13    1    3    3    0    0 -0.15911329782E+02  0.37777504176E+02 -0.83099081035E+02  0.92659416716E+02  0.00000000000E+00 0. -1.
         -4    1    1    2    0  502 -0.33203465027E+02 -0.89719977283E+01  0.44639393950E+02  0.56352837775E+02  0.00000000000E+00 0.  1.
<scales pt_clust_5="13000.00000" pt_clust_6="13000.00000" pt_clust_7="13000.00000" pt_clust_8="13000.00000" pt_clust_9="34.39428"></scales>
<clustering>
<clus scale="   34.394">  1  9  2 -1</clus>
<clus scale="   91.187">  7  8 -1 -1</clus>
<clus scale="   97.241">  5  6 -1 -1</clus>
<clus scale="  101.076">  2  7  1 -1</clus>
<clus scale="   34.394">  1  5  2 -1</clus>
</clustering>
</event>
<event>
 9    1  0.1445593E-005  0.1035252E+03  0.7546771E-02  0.1274060E+00
         21   -1    0    0  501  502  0.00000000000E+00  0.00000000000E+00  0.39660457485E+02  0.39660457485E+02  0.00000000000E+00 0. -1.
          1   -1    0    0  502    0 -0.00000000000E+00 -0.00000000000E+00 -0.70335553190E+03  0.70335553190E+03  0.00000000000E+00 0. -1.
         23    2    1    2    0    0 -0.26033799082E+02 -0.23412521634E+02 -0.46948624623E+03  0.47996412795E+03  0.93393382281E+02 0.  0.
         23    2    1    2    0    0  0.51812172616E+02  0.59160520471E+02 -0.18034321797E+03  0.21684905731E+03  0.91188644992E+02 0.  0.
        -11    1    3    3    0    0 -0.60910300332E+02 -0.78294019110E+01 -0.27739671049E+03  0.28411318029E+03  0.00000000000E+00 0.  1.
         11    1    3    3    0    0  0.34876501251E+02 -0.15583119723E+02 -0.19208953573E+03  0.19585094766E+03  0.00000000000E+00 0. -1.
        -13    1    4    4    0    0 -0.21064414867E+02  0.39730932430E+02 -0.65296099138E+02  0.79283271426E+02  0.00000000000E+00 0.  1.
         13    1    4    4    0    0  0.72876587483E+02  0.19429588041E+02 -0.11504711883E+03  0.13756578588E+03  0.00000000000E+00 0. -1.
          1    1    1    2  501    0 -0.25778373534E+02 -0.35747998837E+02 -0.13865610225E+02  0.46202804134E+02  0.00000000000E+00 0. -1.
<scales pt_clust_5="13000.00000" pt_clust_6="13000.00000" pt_clust_7="13000.00000" pt_clust_8="13000.00000" pt_clust_9="44.07317"></scales>
<clustering>
<clus scale="   44.073">  1  9  2 -1</clus>
<clus scale="   91.189">  7  8 -1 -1</clus>
<clus scale="   93.393">  5  6 -1 -1</clus>
<clus scale="  101.541">  1  7  2 -1</clus>
<clus scale="   44.073">  1  5  2 -1</clus>
</clustering>
</event>
<event>
 9    1  0.1445593E-005  0.1077578E+03  0.7546771E-02  0.1265133E+00
          3   -1    0    0  502    0 -0.00000000000E+00  0.00000000000E+00  0.15548792701E+03  0.15548792701E+03  0.00000000000E+00 0. -1.
         21   -1    0    0  501  502  0.00000000000E+00 -0.00000000000E+00 -0.11752150032E+03  0.11752150032E+03  0.00000000000E+00 0.  1.
         23    2    1    2    0    0  0.24413388373E+02 -0.39691719599E+02  0.56806150089E+02  0.11788868287E+03  0.92191955849E+02 0.  0.
         23    2    1    2    0    0 -0.13879979282E+02  0.70384200583E+02  0.20407922773E+00  0.11749565290E+03  0.93051584008E+02 0.  0.
        -11    1    3    3    0    0  0.46569276188E+02 -0.52970102724E+02  0.20720393831E+02  0.73510978689E+02  0.00000000000E+00 0.  1.
         11    1    3    3    0    0 -0.22155887815E+02  0.13278383125E+02  0.36085756258E+02  0.44377704176E+02  0.00000000000E+00 0. -1.
        -13    1    4    4    0    0 -0.89180588426E+01  0.91512894108E+02  0.12110861488E+02  0.92740576489E+02  0.00000000000E+00 0. -1.
         13    1    4    4    0    0 -0.49619204399E+01 -0.21128693525E+02 -0.11906782261E+02  0.24755076415E+02  0.00000000000E+00 0.  1.
          3    1    1    2  501    0 -0.10533409090E+02 -0.30692480984E+02 -0.19043802627E+02  0.37625091555E+02  0.00000000000E+00 0. -1.
<scales pt_clust_5="13000.00000" pt_clust_6="13000.00000" pt_clust_7="13000.00000" pt_clust_8="13000.00000" pt_clust_9="32.44967"></scales>
<clustering>
<clus scale="   32.450">  2  9  1 -1</clus>
<clus scale="   92.192">  5  6 -1 -1</clus>
<clus scale="   93.052">  7  8 -1 -1</clus>
<clus scale="  107.016">  1  5  2 -1</clus>
<clus scale="   32.450">  2  5  1 -1</clus>
</clustering>
</event>
<event>
 9    1  0.1445593E-005  0.1203905E+03  0.7546771E-02  0.1243978E+00
         21   -1    0    0  501  502  0.00000000000E+00  0.00000000000E+00  0.19232124200E+03  0.19232124200E+03  0.00000000000E+00 0.  1.
          1   -1    0    0  502    0 -0.00000000000E+00 -0.00000000000E+00 -0.19560294014E+03  0.19560294014E+03  0.00000000000E+00 0. -1.
         23    2    1    2    0    0 -0.29039000797E+02 -0.77815840259E+02 -0.13208585121E+03  0.18236527290E+03  0.94402606471E+02 0.  0.
         23    2    1    2    0    0  0.43840555405E+02  0.30188301057E+02  0.59213179083E+02  0.11994131660E+03  0.89701677975E+02 0.  0.
        -11    1    3    3    0    0  0.18418058973E+02 -0.28235445049E+02 -0.22481401456E+00  0.33712249922E+02  0.00000000000E+00 0.  1.
         11    1    3    3    0    0 -0.47457059771E+02 -0.49580395210E+02 -0.13186103719E+03  0.14865302298E+03  0.00000000000E+00 0. -1.
        -11    1    4    4    0    0 -0.79645214481E+00 -0.27689359310E+02  0.32596007978E+01  0.27891933464E+02  0.00000000000E+00 0. -1.
         11    1    4    4    0    0  0.44637007550E+02  0.57877660367E+02  0.55953578285E+02  0.92049383135E+02  0.00000000000E+00 0.  1.
          1    1    1    2  501    0 -0.14801554608E+02  0.47627539202E+02  0.69590973980E+02  0.85617592636E+02  0.00000000000E+00 0. -1.
<scales pt_clust_5="13000.00000" pt_clust_6="13000.00000" pt_clust_7="13000.00000" pt_clust_8="13000.00000" pt_clust_9="49.87453"></scales>
<clustering>
<clus scale="   49.875">  1  9  2 -1</clus>
<clus scale="   89.702">  7  8 -1 -1</clus>
<clus scale="   94.403">  5  6 -1 -1</clus>
<clus scale="  116.741">  1  7  2 -1</clus>
<clus scale="   49.875">  1  5  2 -1</clus>
</clustering>
</event>
<event>
 9    1  0.1445593E-005  0.1015009E+03  0.7546771E-02  0.1280413E+00
         -2   -1    0    0    0  501 -0.00000000000E+00  0.00000000000E+00  0.10237561673E+03  0.10237561673E+03  0.00000000000E+00 0.  1.
         21   -1    0    0  501  502  0.00000000000E+00 -0.00000000000E+00 -0.13970479720E+03  0.13970479720E+03  0.00000000000E+00 0. -1.
         23    2    1    2    0    0 -0.50679647507E+02 -0.15728144817E+02  0.22220877210E+02  0.10159763842E+03  0.83740740017E+02 0.  0.
         23    2    1    2    0    0  0.31974674633E+02 -0.45244652958E+01 -0.59121453515E+02  0.11291054440E+03  0.90612329002E+02 0.  0.
        -13    1    3    3    0    0 -0.88096893595E+01  0.27099296469E+02 -0.13847612932E+02  0.31681838325E+02  0.00000000000E+00 0. -1.
         13    1    3    3    0    0 -0.41869958147E+02 -0.42827441287E+02  0.36068490142E+02  0.69915800099E+02  0.00000000000E+00 0.  1.
        -13    1    4    4    0    0 -0.22754700973E+02  0.24106351801E+02 -0.29645203988E+02  0.44471684621E+02  0.00000000000E+00 0.  1.
         13    1    4    4    0    0  0.54729375606E+02 -0.28630817097E+02 -0.29476249527E+02  0.68438859780E+02  0.00000000000E+00 0. -1.
         -2    1    1    2    0  502  0.18704972874E+02  0.20252610113E+02 -0.42860416527E+00  0.27572231105E+02  0.00000000000E+00 0.  1.
<scales pt_clust_5="13000.00000" pt_clust_6="13000.00000" pt_clust_7="13000.00000" pt_clust_8="13000.00000" pt_clust_9="27.56891"></scales>
<clustering>
<clus scale="   27.569">  2  9  1 -1</clus>
<clus scale="   83.741">  5  6 -1 -1</clus>
<clus scale="   90.612">  7  8 -1 -1</clus>
<clus scale="   95.417">  1  5  2 -1</clus>
<clus scale="   27.569">  2  5  1 -1</clus>
</clustering>
</event>
<event>
 9    1  0.1951850E-005  0.1132729E+03  0.7546771E-02  0.1254780E+00
         21   -1    0    0  501  502  0.00000000000E+00  0.00000000000E+00  0.91335608392E+02  0.91335608392E+02  0.00000000000E+00 0.  1.
          3   -1    0    0  502    0 -0.00000000000E+00 -0.00000000000E+00 -0.34437431108E+03  0.34437431108E+03  0.00000000000E+00 0. -1.
         23    2    1    2    0    0  0.62193483220E+02  0.50634340182E+01 -0.22808706722E+03  0.25353735939E+03  0.91453893597E+02 0.  0.
         23    2    1    2    0    0 -0.90218626367E+02 -0.23185259838E+02  0.13869286374E+02  0.13097809561E+03  0.91027180605E+02 0.  0.
        -11    1    3    3    0    0  0.28688001024E+00  0.22265785533E+02 -0.70590457354E+01  0.23359743840E+02  0.00000000000E+00 0.  1.
         11    1    3    3    0    0  0.61906603209E+02 -0.17202351515E+02 -0.22102802149E+03  0.23017761555E+03  0.00000000000E+00 0. -1.
        -13    1    4    4    0    0 -0.48800052957E+02  0.34104811890E+02  0.54830777647E+01  0.59788355927E+02  0.00000000000E+00 0. -1.
         13    1    4    4    0    0 -0.41418573410E+02 -0.57290071728E+02  0.83862086088E+01  0.71189739687E+02  0.00000000000E+00 0.  1.
          3    1    1    2  501    0  0.28025143148E+02  0.18121825819E+02 -0.38820921839E+02  0.51194464465E+02  0.00000000000E+00 0. -1.
<scales pt_clust_5="13000.00000" pt_clust_6="13000.00000" pt_clust_7="13000.00000" pt_clust_8="13000.00000" pt_clust_9="33.37380"></scales>
<clustering>
<clus scale="   33.374">  1  9  2 -1</clus>
<clus scale="   91.027">  7  8 -1 -1</clus>
<clus scale="   91.454">  5  6 -1 -1</clus>
<clus scale="  112.929">  1  7  2 -1</clus>
<clus scale="   33.374">  1  5  2 -1</clus>
</clustering>
</event>
<event>
 9    1  0.1445593E-005  0.1846748E+03  0.7546771E-02  0.1163456E+00
         21   -1    0    0  501  502  0.00000000000E+00  0.00000000000E+00  0.61845558017E+02  0.61845558017E+02  0.00000000000E+00 0. -1.
          2   -1    0    0  502    0 -0.00000000000E+00 -0.00000000000E+00 -0.18032196359E+04  0.18032196359E+04  0.00000000000E+00 0. -1.
         23    2    1    2    0    0  0.91162441826E+02  0.57607302310E+02 -0.53952398521E+03  0.55790711622E+03  0.92439318642E+02 0.  0.
         23    2    1    2    0    0 -0.20996636111E+03 -0.13225278069E+03 -0.11061168355E+04  0.11373017407E+04  0.91564867205E+02 0.  0.
        -11    1    3    3    0    0  0.39433588008E+02 -0.13105148687E+02 -0.80456647670E+02  0.90553989087E+02  0.00000000000E+00 0.  1.
         11    1    3    3    0    0  0.51728853818E+02  0.70712450997E+02 -0.45906733754E+03  0.46735312713E+03  0.00000000000E+00 0. -1.
        -13    1    4    4    0    0 -0.11467736181E+03 -0.43482786449E+02 -0.70456032476E+03  0.71515515887E+03  0.00000000000E+00 0. -1.
         13    1    4    4    0    0 -0.95288999297E+02 -0.88769994245E+02 -0.40155651074E+03  0.42214658187E+03  0.00000000000E+00 0.  1.
          2    1    1    2  501    0  0.11880391928E+03  0.74645478384E+02 -0.95733257188E+02  0.16985633698E+03  0.00000000000E+00 0. -1.
<scales pt_clust_5="13000.00000" pt_clust_6="13000.00000" pt_clust_7="13000.00000" pt_clust_8="13000.00000" pt_clust_9="140.30794"></scales>
<clustering>
<clus scale="   91.565">  7  8 -1 -1</clus>
<clus scale="   92.439">  5  6 -1 -1</clus>
<clus scale="  140.308">  1  9  2 -1</clus>
<clus scale="  184.239">  1  7  2 -1</clus>
<clus scale="  140.308">  1  5  2 -1</clus>
</clustering>
</event>
<event>
 9    1  0.1445593E-005  0.1628693E+03  0.7546771E-02  0.1186132E+00
          1   -1    0    0  502    0 -0.00000000000E+00  0.00000000000E+00  0.34512222293E+03  0.34512222293E+03  0.00000000000E+00 0. -1.
         21   -1    0    0  501  502  0.00000000000E+00 -0.00000000000E+00 -0.10269438651E+03  0.10269438651E+03  0.00000000000E+00 0. -1.
         23    2    1    2    0    0 -0.53793341274E+02  0.14007572834E+03  0.16595044504E+03  0.24213291653E+03  0.92595171723E+02 0.  0.
         23    2    1    2    0    0  0.21824298738E+02 -0.11427645800E+03  0.75659507323E+02  0.16459487491E+03  0.88496909152E+02 0.  0.
        -11    1    4    4    0    0  0.35435053890E+02 -0.43996717900E+02 -0.50447030818E+01  0.56716869266E+02  0.00000000000E+00 0.  1.
         11    1    4    4    0    0 -0.13610755153E+02 -0.70279740099E+02  0.80704210404E+02  0.10787800564E+03  0.00000000000E+00 0. -1.
        -11    1    3    3    0    0 -0.71245821193E+02  0.56535188271E+02  0.83597345423E+02  0.12353424915E+03  0.00000000000E+00 0.  1.
         11    1    3    3    0    0  0.17452479920E+02  0.83540540069E+02  0.82353099612E+02  0.11859866739E+03  0.00000000000E+00 0. -1.
          1    1    1    2  501    0  0.31969042536E+02 -0.25799270341E+02  0.81788406319E+00  0.41088818006E+02  0.00000000000E+00 0. -1.
<scales pt_clust_5="13000.00000" pt_clust_6="13000.00000" pt_clust_7="13000.00000" pt_clust_8="13000.00000" pt_clust_9="41.08068"></scales>
<clustering>
<clus scale="   41.081">  2  9  1 -1</clus>
<clus scale="   88.497">  5  6 -1 -1</clus>
<clus scale="   92.595">  7  8 -1 -1</clus>
<clus scale="  160.575">  2  5  1 -1</clus>
<clus scale="   41.081">  2  5  1 -1</clus>
</clustering>
</event>
<event>
 9    1  0.1756031E-005  0.1035195E+03  0.7546771E-02  0.1275602E+00
          3   -1    0    0  502    0 -0.00000000000E+00  0.00000000000E+00  0.64579328386E+03  0.64579328386E+03  0.00000000000E+00 0. -1.
         21   -1    0    0  501  502  0.00000000000E+00 -0.00000000000E+00 -0.48243705726E+02  0.48243705726E+02  0.00000000000E+00 0.  1.
         23    2    1    2    0    0 -0.41595037026E+02  0.25950865176E+02  0.52367707420E+03  0.53261633361E+03  0.83898070724E+02 0.  0.
         23    2    1    2    0    0  0.67399227331E+02 -0.32343887160E+02  0.56597584210E+02  0.12971655815E+03  0.89634346316E+02 0.  0.
        -11    1    4    4    0    0 -0.84667284849E+01 -0.19886707910E+02  0.47640977428E+02  0.52314714689E+02  0.00000000000E+00 0.  1.
         11    1    4    4    0    0  0.75865955815E+02 -0.12457179250E+02  0.89566067825E+01  0.77401843465E+02  0.00000000000E+00 0. -1.
        -13    1    3    3    0    0 -0.64671122098E+02  0.33100211468E+02  0.41198335526E+03  0.41833988938E+03  0.00000000000E+00 0. -1.
         13    1    3    3    0    0  0.23076085072E+02 -0.71493462921E+01  0.11169371894E+03  0.11427644423E+03  0.00000000000E+00 0.  1.
          3    1    1    2  501    0 -0.25804190305E+02  0.63930219843E+01  0.17274919717E+02  0.31704097821E+02  0.00000000000E+00 0. -1.
<scales pt_clust_5="13000.00000" pt_clust_6="13000.00000" pt_clust_7="13000.00000" pt_clust_8="13000.00000" pt_clust_9="26.58434"></scales>
<clustering>
<clus scale="   26.584">  2  9  1 -1</clus>
<clus scale="   83.898">  7  8 -1 -1</clus>
<clus scale="   89.634">  5  6 -1 -1</clus>
<clus scale="   98.594">  1  7  2 -1</clus>
<clus scale="   26.584">  2  5  1 -1</clus>
</clustering>
</event>
<event>
 9    1  0.1445593E-005  0.1575612E+03  0.7546771E-02  0.1213653E+00
          1   -1    0    0  502    0 -0.00000000000E+00  0.00000000000E+00  0.61437279051E+03  0.61437279051E+03  0.00000000000E+00 0. -1.
         21   -1    0    0  501  502  0.00000000000E+00 -0.00000000000E+00 -0.99661047490E+02  0.99661047490E+02  0.00000000000E+00 0. -1.
         23    2    1    2    0    0 -0.24256200514E+02 -0.41439284357E+01  0.19265020251E+03  0.21593538763E+03  0.94384615794E+02 0.  0.
         23    2    1    2    0    0  0.78987104356E+02  0.11923723066E+03  0.32972024834E+03  0.37042466349E+03  0.89680038604E+02 0.  0.
        -11    1    3    3    0    0  0.32713435293E+02  0.12577364399E+02  0.46842767670E+02  0.58503024084E+02  0.00000000000E+00 0.  1.
         11    1    3    3    0    0 -0.56969635807E+02 -0.16721292834E+02  0.14580743484E+03  0.15743236355E+03  0.00000000000E+00 0. -1.
        -11    1    4    4    0    0  0.58174461449E+02  0.70165222750E+02  0.28989819388E+03  0.30388877778E+03  0.00000000000E+00 0. -1.
         11    1    4    4    0    0  0.20812642907E+02  0.49072007907E+02  0.39822054463E+02  0.66535885704E+02  0.00000000000E+00 0.  1.
          1    1    1    2  501    0 -0.54730903842E+02 -0.11509330222E+03 -0.76587078282E+01  0.12767378688E+03  0.00000000000E+00 0. -1.
<scales pt_clust_5="13000.00000" pt_clust_6="13000.00000" pt_clust_7="13000.00000" pt_clust_8="13000.00000" pt_clust_9="129.54928"></scales>
<clustering>
<clus scale="   89.680">  7  8 -1 -1</clus>
<clus scale="   94.385">  5  6 -1 -1</clus>
<clus scale="   97.540">  1  5  2 -1</clus>
<clus scale="  129.549">  2  9  1 -1</clus>
<clus scale="  129.549">  2  5  1 -1</clus>
</clustering>
</event>
<event>
 9    1  0.1445593E-005  0.9881254E+02  0.7546771E-02  0.1283140E+00
         -2   -1    0    0    0  501 -0.00000000000E+00  0.00000000000E+00  0.32890410171E+03  0.32890410171E+03  0.00000000000E+00 0.  1.
         21   -1    0    0  501  502  0.00000000000E+00 -0.00000000000E+00 -0.76361490460E+02  0.76361490460E+02  0.00000000000E+00 0. -1.
         23    2    1    2    0    0  0.51403692284E+00  0.22057088186E+02  0.12491999913E+03  0.15558837205E+03  0.90088600618E+02 0.  0.
         23    2    1    2    0    0  0.92699437031E+01 -0.59655635512E+02  0.16409681871E+03  0.19638796432E+03  0.89418901324E+02 0.  0.
        -13    1    3    3    0    0 -0.19765818552E+02  0.52306245639E+02  0.82730658742E+02  0.99854858729E+02  0.00000000000E+00 0.  1.
         13    1    3    3    0    0  0.20279855475E+02 -0.30249157453E+02  0.42189340387E+02  0.55733513320E+02  0.00000000000E+00 0. -1.
        -13    1    4    4    0    0 -0.10800495719E+02 -0.70400220643E+02  0.71073659422E+02  0.10061961458E+03  0.00000000000E+00 0.  1.
         13    1    4    4    0    0  0.20070439422E+02  0.10744585130E+02  0.93023159285E+02  0.95768349738E+02  0.00000000000E+00 0. -1.
         -2    1    1    2    0  502 -0.97839806259E+01  0.37598547326E+02 -0.36474206587E+02  0.53289255804E+02  0.00000000000E+00 0.  1.
<scales pt_clust_5="13000.00000" pt_clust_6="13000.00000" pt_clust_7="13000.00000" pt_clust_8="13000.00000" pt_clust_9="38.85070"></scales>
<clustering>
<clus scale="   38.851">  2  9  1 -1</clus>
<clus scale="   89.419">  7  8 -1 -1</clus>
<clus scale="   90.089">  5  6 -1 -1</clus>
<clus scale="   98.202">  2  7  1 -1</clus>
<clus scale="   38.851">  2  5  1 -1</clus>
</clustering>
</event>
<event>
 9    1  0.1445593E-005  0.9299957E+02  0.7546771E-02  0.1295917E+00
         21   -1    0    0  501  502  0.00000000000E+00  0.00000000000E+00  0.60820589452E+02  0.60820589452E+02  0.00000000000E+00 0. -1.
         -4   -1    0    0    0  501 -0.00000000000E+00 -0.00000000000E+00 -0.30762213423E+03  0.30762213423E+03  0.00000000000E+00 0.  1.
         23    2    1    2    0    0 -0.20568875246E+01  0.11564836496E+02 -0.16469257227E+03  0.18873520324E+03  0.91429521228E+02 0.  0.
         23    2    1    2    0    0  0.22759034816E+02 -0.10777158096E+02 -0.10970485076E+03  0.14520053800E+03  0.91727428581E+02 0.  0.
        -11    1    4    4    0    0 -0.33843235391E+02  0.62390081674E+01 -0.53671169208E+02  0.63756444449E+02  0.00000000000E+00 0. -1.
         11    1    4    4    0    0  0.56602270206E+02 -0.17016166263E+02 -0.56033681552E+02  0.81444093555E+02  0.00000000000E+00 0.  1.
        -13    1    3    3    0    0 -0.50250428479E+01  0.35182842720E+02 -0.16071956879E+03  0.16460213629E+03  0.00000000000E+00 0.  1.
         13    1    3    3    0    0  0.29681553233E+01 -0.23618006225E+02 -0.39730034807E+01  0.24133066956E+02  0.00000000000E+00 0. -1.
         -4    1    1    2    0  502 -0.20702147291E+02 -0.78767839969E+00  0.27595878257E+02  0.34506982431E+02  0.00000000000E+00 0.  1.
<scales pt_clust_5="13000.00000" pt_clust_6="13000.00000" pt_clust_7="13000.00000" pt_clust_8="13000.00000" pt_clust_9="20.71713"></scales>
<clustering>
<clus scale="   20.717">  1  9  2 -1</clus>
<clus scale="   91.430">  7  8 -1 -1</clus>
<clus scale="   91.727">  5  6 -1 -1</clus>
<clus scale="   92.706">  2  7  1 -1</clus>
<clus scale="   20.717">  1  5  2 -1</clus>
</clustering>
</event>
<event>
 9    1  0.1445593E-005  0.9491148E+02  0.7546771E-02  0.1293520E+00
         21   -1    0    0  501  502  0.00000000000E+00  0.00000000000E+00  0.12692900044E+03  0.12692900044E+03  0.00000000000E+00 0.  1.
         -4   -1    0    0    0  501 -0.00000000000E+00 -0.00000000000E+00 -0.25889959743E+03  0.25889959743E+03  0.00000000000E+00 0.  1.
         23    2    1    2    0    0  0.12673152907E+02  0.28052183997E+02 -0.19224120782E+03  0.21485674838E+03  0.90880176663E+02 0.  0.
         23    2    1    2    0    0  0.88178373972E+01 -0.20325683595E+02 -0.16156836465E+02  0.91205213767E+02  0.86985400980E+02 0.  0.
        -13    1    4    4    0    0  0.42044975045E+02 -0.10931762008E+02 -0.31256290021E+02  0.53518585678E+02  0.00000000000E+00 0.  1.
         13    1    4    4    0    0 -0.33227137647E+02 -0.93939215870E+01  0.15099453556E+02  0.37686628089E+02  0.00000000000E+00 0. -1.
        -13    1    3    3    0    0  0.38472550852E+02  0.48587456057E+02 -0.13963363007E+03  0.15276920076E+03  0.00000000000E+00 0.  1.
         13    1    3    3    0    0 -0.25799397945E+02 -0.20535272059E+02 -0.52607577751E+02  0.62087547622E+02  0.00000000000E+00 0. -1.
         -4    1    1    2    0  502 -0.21490990304E+02 -0.77265004024E+01  0.76427447298E+02  0.79766635714E+02  0.00000000000E+00 0.  1.
<scales pt_clust_5="13000.00000" pt_clust_6="13000.00000" pt_clust_7="13000.00000" pt_clust_8="13000.00000" pt_clust_9="22.83772"></scales>
<clustering>
<clus scale="   22.838">  1  9  2 -1</clus>
<clus scale="   86.985">  5  6 -1 -1</clus>
<clus scale="   90.880">  7  8 -1 -1</clus>
<clus scale="   91.189">  1  5  2 -1</clus>
<clus scale="   22.838">  1  5  2 -1</clus>
</clustering>
</event>
<event>
 9    1  0.1445593E-005  0.1298964E+03  0.7546771E-02  0.1238487E+00
          2   -1    0    0  502    0 -0.00000000000E+00  0.00000000000E+00  0.34890808875E+03  0.34890808875E+03  0.00000000000E+00 0. -1.
         21   -1    0    0  501  502  0.00000000000E+00 -0.00000000000E+00 -0.14997308640E+03  0.14997308640E+03  0.00000000000E+00 0. -1.
         23    2    1    2    0    0 -0.33410821153E+02 -0.38500011433E+02  0.24480699491E+03  0.26593581777E+03  0.90514421877E+02 0.  0.
         23    2    1    2    0    0 -0.49537009018E+02 -0.33286203245E+02  0.91259526343E+01  0.11023277806E+03  0.92228497541E+02 0.  0.
        -11    1    3    3    0    0 -0.46505727396E+02  0.10390102912E+02  0.16221288501E+03  0.16906731495E+03  0.00000000000E+00 0. -1.
         11    1    3    3    0    0  0.13094906242E+02 -0.48890114346E+02  0.82594109895E+02  0.96868502825E+02  0.00000000000E+00 0.  1.
        -13    1    4    4    0    0 -0.24825299558E+02 -0.63483794420E+02  0.17387370349E+02  0.70347766843E+02  0.00000000000E+00 0. -1.
         13    1    4    4    0    0 -0.24711709460E+02  0.30197591175E+02 -0.82614177149E+01  0.39885011218E+02  0.00000000000E+00 0.  1.
          2    1    1    2  501    0  0.82947830171E+02  0.71786214678E+02 -0.54997945194E+02  0.12271257932E+03  0.00000000000E+00 0. -1.
<scales pt_clust_5="13000.00000" pt_clust_6="13000.00000" pt_clust_7="13000.00000" pt_clust_8="13000.00000" pt_clust_9="91.47123"></scales>
<clustering>
<clus scale="   90.514">  5  6 -1 -1</clus>
<clus scale="   92.228">  7  8 -1 -1</clus>
<clus scale="  103.882">  1  5  2 -1</clus>
<clus scale="   91.471">  2  9  1 -1</clus>
<clus scale="   91.471">  2  5  1 -1</clus>
</clustering>
</event>
<event>
 9    1  0.1445593E-005  0.1071750E+03  0.7546771E-02  0.1272667E+00
         21   -1    0    0  501  502  0.00000000000E+00  0.00000000000E+00  0.13886228300E+03  0.13886228300E+03  0.00000000000E+00 0.  1.
          2   -1    0    0  502    0 -0.00000000000E+00 -0.00000000000E+00 -0.13608839718E+03  0.13608839718E+03  0.00000000000E+00 0. -1.
         23    2    1    2    0    0  0.15376826856E+02  0.17522803679E+01 -0.41025376104E+02  0.10174699703E+03  0.91814228910E+02 0.  0.
         23    2    1    2    0    0 -0.16436597053E+02  0.39665324775E+02  0.10729306068E+01  0.11368830265E+03  0.10526338046E+03 0.  0.
        -13    1    4    4    0    0  0.44873340244E+02  0.21186156358E+02 -0.73011109447E+00  0.49628650477E+02  0.00000000000E+00 0. -1.
         13    1    4    4    0    0 -0.61309937298E+02  0.18479168417E+02  0.18030417012E+01  0.64059652171E+02  0.00000000000E+00 0.  1.
        -13    1    3    3    0    0  0.24265617910E+02 -0.41402062687E+02 -0.29016539203E+02  0.56079502089E+02  0.00000000000E+00 0. -1.
         13    1    3    3    0    0 -0.88887910539E+01  0.43154343055E+02 -0.12008836902E+02  0.45667494946E+02  0.00000000000E+00 0.  1.
          2    1    1    2  501    0  0.10597701976E+01 -0.41417605143E+02  0.42726331310E+02  0.59515380498E+02  0.00000000000E+00 0. -1.
<scales pt_clust_5="13000.00000" pt_clust_6="13000.00000" pt_clust_7="13000.00000" pt_clust_8="13000.00000" pt_clust_9="41.43116"></scales>
<clustering>
<clus scale="   41.431">  1  9  2 -1</clus>
<clus scale="   91.814">  7  8 -1 -1</clus>
<clus scale="   94.000">  2  7  1 -1</clus>
<clus scale="  105.263">  5  6 -1 -1</clus>
<clus scale="   41.431">  1  5  2 -1</clus>
</clustering>
</event>
<event>
 9    1  0.1445593E-005  0.1371789E+03  0.7546771E-02  0.1217867E+00
         21   -1    0    0  501  502  0.00000000000E+00  0.00000000000E+00  0.29846994400E+03  0.29846994400E+03  0.00000000000E+00 0. -1.
          3   -1    0    0  502    0 -0.00000000000E+00 -0.00000000000E+00 -0.11245112570E+03  0.11245112570E+03  0.00000000000E+00 0. -1.
         23    2    1    2    0    0  0.44969543254E+02 -0.78882319473E+02  0.22661752085E+02  0.13233343669E+03  0.93562296425E+02 0.  0.
         23    2    1    2    0    0 -0.87556237856E+02  0.92778650574E+02  0.17246262169E+03  0.23287499017E+03  0.90627988920E+02 0.  0.
        -13    1    4    4    0    0 -0.63782754887E+02  0.53528908776E+01  0.89471898929E+02  0.11000960849E+03  0.00000000000E+00 0. -1.
         13    1    4    4    0    0 -0.23773482969E+02  0.87425759697E+02  0.82990722765E+02  0.12286538168E+03  0.00000000000E+00 0.  1.
        -13    1    3    3    0    0 -0.48446807101E+01 -0.46788193440E+02  0.48610600075E+02  0.67643154985E+02  0.00000000000E+00 0. -1.
         13    1    3    3    0    0  0.49814223964E+02 -0.32094126033E+02 -0.25948847990E+02  0.64690281704E+02  0.00000000000E+00 0.  1.
          3    1    1    2  501    0  0.42586694603E+02 -0.13896331101E+02 -0.91055554772E+01  0.45712642844E+02  0.00000000000E+00 0. -1.
<scales pt_clust_5="13000.00000" pt_clust_6="13000.00000" pt_clust_7="13000.00000" pt_clust_8="13000.00000" pt_clust_9="44.79661"></scales>
<clustering>
<clus scale="   44.797">  1  9  2 -1</clus>
<clus scale="   90.628">  5  6 -1 -1</clus>
<clus scale="   93.562">  7  8 -1 -1</clus>
<clus scale="  135.195">  1  5  2 -1</clus>
<clus scale="   44.797">  1  5  2 -1</clus>
</clustering>
</event>
<event>
 9    1  0.1445593E-005  0.1282499E+03  0.7546771E-02  0.1231341E+00
         21   -1    0    0  501  502  0.00000000000E+00  0.00000000000E+00  0.53706726363E+02  0.53706726363E+02  0.00000000000E+00 0.  1.
         -3   -1    0    0    0  501 -0.00000000000E+00 -0.00000000000E+00 -0.82899322208E+03  0.82899322208E+03  0.00000000000E+00 0.  1.
         23    2    1    2    0    0  0.93955167536E+02  0.17301063296E+02 -0.45419991203E+03  0.47286295777E+03  0.90415244562E+02 0.  0.
         23    2    1    2    0    0 -0.76606503610E+02 -0.96281637396E+00 -0.35099867487E+03  0.37159241391E+03  0.94928230285E+02 0.  0.
        -13    1    3    3    0    0  0.67852647138E+02  0.28140572908E+02 -0.42821443286E+03  0.43446918656E+03  0.00000000000E+00 0.  1.
         13    1    3    3    0    0  0.26102520398E+02 -0.10839509612E+02 -0.25985479170E+02  0.38393771206E+02  0.00000000000E+00 0. -1.
        -13    1    4    4    0    0 -0.85188658288E+02 -0.27881036479E+02 -0.30211161800E+03  0.31512836976E+03  0.00000000000E+00 0. -1.
         13    1    4    4    0    0  0.85821546789E+01  0.26918220105E+02 -0.48887056867E+02  0.56464044149E+02  0.00000000000E+00 0.  1.
         -3    1    1    2    0  502 -0.17348663927E+02 -0.16338246922E+02  0.29912091182E+02  0.38244576758E+02  0.00000000000E+00 0.  1.
<scales pt_clust_5="13000.00000" pt_clust_6="13000.00000" pt_clust_7="13000.00000" pt_clust_8="13000.00000" pt_clust_9="23.83096"></scales>
<clustering>
<clus scale="   23.831">  1  9  2 -1</clus>
<clus scale="   90.415">  5  6 -1 -1</clus>
<clus scale="   94.928">  7  8 -1 -1</clus>
<clus scale="  124.946">  2  5  1 -1</clus>
<clus scale="   23.831">  1  5  2 -1</clus>
</clustering>
</event>
<event>
 9    1  0.1445593E-005  0.1648090E+03  0.7546771E-02  0.1183597E+00
         21   -1    0    0  501  502  0.00000000000E+00  0.00000000000E+00  0.42976653942E+03  0.42976653942E+03  0.00000000000E+00 0. -1.
         -2   -1    0    0    0  501 -0.00000000000E+00 -0.00000000000E+00 -0.30384892885E+03  0.30384892885E+03  0.00000000000E+00 0.  1.
         23    2    1    2    0    0 -0.33465882297E+02 -0.11884140050E+03 -0.10722006598E+03  0.18790682767E+03  0.92572077784E+02 0.  0.
         23    2    1    2    0    0  0.11179564318E+03  0.22485423703E+03  0.29681796320E+03  0.39932062246E+03  0.91095348381E+02 0.  0.
        -11    1    3    3    0    0  0.20138467592E+02 -0.86337320988E+02 -0.80539732035E+02  0.11977620510E+03  0.00000000000E+00 0.  1.
         11    1    3    3    0    0 -0.53604349889E+02 -0.32504079512E+02 -0.26680333942E+02  0.68130622566E+02  0.00000000000E+00 0. -1.
        -11    1    4    4    0    0  0.10016668196E+03  0.14360259603E+03  0.14752174768E+03  0.22894919917E+03  0.00000000000E+00 0.  1.
         11    1    4    4    0    0  0.11628961219E+02  0.81251640996E+02  0.14929621552E+03  0.17037142329E+03  0.00000000000E+00 0. -1.
         -2    1    1    2    0  502 -0.78329760879E+02 -0.10601283653E+03 -0.63680286656E+02  0.14638801815E+03  0.00000000000E+00 0.  1.
<scales pt_clust_5="13000.00000" pt_clust_6="13000.00000" pt_clust_7="13000.00000" pt_clust_8="13000.00000" pt_clust_9="131.81157"></scales>
<clustering>
<clus scale="   91.095">  7  8 -1 -1</clus>
<clus scale="   92.572">  5  6 -1 -1</clus>
<clus scale="  131.812">  1  9  2 -1</clus>
<clus scale="  163.984">  1  7  2 -1</clus>
<clus scale="  131.812">  1  5  2 -1</clus>
</clustering>
</event>
<event>
 9    1  0.1462577E-005  0.1004701E+03  0.7546771E-02  0.1279580E+00
          2   -1    0    0  502    0 -0.00000000000E+00  0.00000000000E+00  0.25067987118E+03  0.25067987118E+03  0.00000000000E+00 0. -1.
         21   -1    0    0  501  502  0.00000000000E+00 -0.00000000000E+00 -0.14490828114E+03  0.14490828114E+03  0.00000000000E+00 0. -1.
         23    2    1    2    0    0  0.37572639494E+02 -0.35252263536E+02  0.13223575650E+03  0.16908955611E+03  0.91926913173E+02 0.  0.
         23    2    1    2    0    0 -0.35512987631E+02 -0.75525342659E+01  0.70170594853E+02  0.12078781163E+03  0.91365037038E+02 0.  0.
        -11    1    3    3    0    0  0.13768425460E+02  0.22405461877E+02  0.41517139100E+01  0.26623504464E+02  0.00000000000E+00 0.  1.
         11    1    3    3    0    0  0.23804214034E+02 -0.57657725413E+02  0.12808404259E+03  0.14246605164E+03  0.00000000000E+00 0. -1.
        -13    1    4    4    0    0  0.26376892154E+02 -0.61347804418E+01 -0.17504580602E+00  0.27081480975E+02  0.00000000000E+00 0.  1.
         13    1    4    4    0    0 -0.61889879786E+02 -0.14177538241E+01  0.70345640659E+02  0.93706330659E+02  0.00000000000E+00 0. -1.
          2    1    1    2  501    0 -0.20596518622E+01  0.42804797802E+02 -0.96634761311E+02  0.10571078457E+03  0.00000000000E+00 0. -1.
<scales pt_clust_5="13000.00000" pt_clust_6="13000.00000" pt_clust_7="13000.00000" pt_clust_8="13000.00000" pt_clust_9="42.85432"></scales>
<clustering>
<clus scale="   42.854">  2  9  1 -1</clus>
<clus scale="   91.365">  7  8 -1 -1</clus>
<clus scale="   91.927">  5  6 -1 -1</clus>
<clus scale="   99.956">  2  7  1 -1</clus>
<clus scale="   42.854">  2  5  1 -1</clus>
</clustering>
</event>
<event>
 9    1  0.1445593E-005  0.1131153E+03  0.7546771E-02  0.1254937E+00
          3   -1    0    0  502    0 -0.00000000000E+00  0.00000000000E+00  0.20180934547E+03  0.20180934547E+03  0.00000000000E+00 0. -1.
         21   -1    0    0  501  502  0.00000000000E+00 -0.00000000000E+00 -0.13964033706E+03  0.13964033706E+03  0.00000000000E+00 0.  1.
         23    2    1    2    0    0  0.60550166551E+02 -0.34752015536E+02  0.14644671743E+03  0.18638388095E+03  0.91751211318E+02 0.  0.
         23    2    1    2    0    0 -0.36409180007E+02  0.34750092860E+02 -0.59373329118E+02  0.12038128958E+03  0.91832811828E+02 0.  0.
        -11    1    4    4    0    0  0.37548590341E+01  0.34077715733E+02  0.13759967161E+02  0.36942203131E+02  0.00000000000E+00 0. -1.
         11    1    4    4    0    0 -0.40164039041E+02  0.67237712734E+00 -0.73133296279E+02  0.83439086451E+02  0.00000000000E+00 0.  1.
        -13    1    3    3    0    0 -0.20136325325E+02 -0.16566207713E+02  0.12399935046E+02  0.28873330683E+02  0.00000000000E+00 0.  1.
         13    1    3    3    0    0  0.80686491876E+02 -0.18185807823E+02  0.13404678238E+03  0.15751055026E+03  0.00000000000E+00 0. -1.
          3    1    1    2  501    0 -0.24140986544E+02  0.19226763860E-02 -0.24904379896E+02  0.34684512005E+02  0.00000000000E+00 0. -1.
<scales pt_clust_5="13000.00000" pt_clust_6="13000.00000" pt_clust_7="13000.00000" pt_clust_8="13000.00000" pt_clust_9="24.14099"></scales>
<clustering>
<clus scale="   24.141">  2  9  1 -1</clus>
<clus scale="   91.751">  7  8 -1 -1</clus>
<clus scale="   91.833">  5  6 -1 -1</clus>
<clus scale="  113.049">  1  7  2 -1</clus>
<clus scale="   24.141">  2  5  1 -1</clus>
</clustering>
</event>
<event>
 9    1  0.1445593E-005  0.9318020E+02  0.7546771E-02  0.1297057E+00
         21   -1    0    0  501  502  0.00000000000E+00  0.00000000000E+00  0.25833860194E+03  0.25833860194E+03  0.00000000000E+00 0. -1.
         -4   -1    0    0    0  501 -0.00000000000E+00 -0.00000000000E+00 -0.52267563414E+02  0.52267563414E+02  0.00000000000E+00 0.  1.
         23    2    1    2    0    0 -0.13312299800E+02  0.11001157111E+02  0.32303113016E+02  0.96493102815E+02  0.89270291792E+02 0.  0.
         23    2    1    2    0    0  0.12311925586E+02  0.13978398467E+02  0.10528806812E+03  0.14121265229E+03  0.92241296309E+02 0.  0.
        -13    1    3    3    0    0 -0.77427876732E+01 -0.20963485363E+02  0.53334265613E+02  0.57827003795E+02  0.00000000000E+00 0.  1.
         13    1    3    3    0    0 -0.55695121266E+01  0.31964642474E+02 -0.21031152597E+02  0.38666099019E+02  0.00000000000E+00 0. -1.
        -13    1    4    4    0    0  0.33983720382E+02 -0.28368195341E+02  0.35451298395E+02  0.56713687200E+02  0.00000000000E+00 0.  1.
         13    1    4    4    0    0 -0.21671794795E+02  0.42346593808E+02  0.69836769722E+02  0.84498965094E+02  0.00000000000E+00 0. -1.
         -4    1    1    2    0  502  0.10003742133E+01 -0.24979555578E+02  0.68479857391E+02  0.72900410244E+02  0.00000000000E+00 0.  1.
<scales pt_clust_5="13000.00000" pt_clust_6="13000.00000" pt_clust_7="13000.00000" pt_clust_8="13000.00000" pt_clust_9="24.99958"></scales>
<clustering>
<clus scale="   25.000">  1  9  2 -1</clus>
<clus scale="   89.270">  5  6 -1 -1</clus>
<clus scale="   90.240">  2  5  1 -1</clus>
<clus scale="   92.241">  7  8 -1 -1</clus>
<clus scale="   25.000">  1  5  2 -1</clus>
</clustering>
</event>
<event>
 9    1  0.1445593E-005  0.9119551E+02  0.7546771E-02  0.1301560E+00
         -1   -1    0    0    0  501 -0.00000000000E+00  0.00000000000E+00  0.10961890422E+03  0.10961890422E+03  0.00000000000E+00 0.  1.
         21   -1    0    0  501  502  0.00000000000E+00 -0.00000000000E+00 -0.16767725043E+03  0.16767725043E+03  0.00000000000E+00 0.  1.
         23    2    1    2    0    0  0.65794763148E-01  0.10035314761E+02  0.30139027322E+02  0.93968429106E+02  0.88436377297E+02 0.  0.
         23    2    1    2    0    0  0.30945007364E+01  0.30639928279E+02 -0.11959093731E+02  0.96859591701E+02  0.91051520810E+02 0.  0.
        -11    1    4    4    0    0 -0.43767109491E+02  0.13122490906E+02 -0.10107735896E+02  0.46796644813E+02  0.00000000000E+00 0. -1.
         11    1    4    4    0    0  0.46861610228E+02  0.17517437373E+02 -0.18513578354E+01  0.50062946888E+02  0.00000000000E+00 0.  1.
        -13    1    3    3    0    0 -0.18494507351E+02 -0.11256037767E+02 -0.24356379250E+02  0.32588010042E+02  0.00000000000E+00 0. -1.
         13    1    3    3    0    0  0.18560302114E+02  0.21291352528E+02  0.54495406571E+02  0.61380419063E+02  0.00000000000E+00 0.  1.
         -1    1    1    2    0  502 -0.31602954995E+01 -0.40675243040E+02 -0.76238279798E+02  0.86468133845E+02  0.00000000000E+00 0.  1.
<scales pt_clust_5="13000.00000" pt_clust_6="13000.00000" pt_clust_7="13000.00000" pt_clust_8="13000.00000" pt_clust_9="40.79783"></scales>
<clustering>
<clus scale="   40.798">  2  9  1 -1</clus>
<clus scale="   88.436">  7  8 -1 -1</clus>
<clus scale="   88.585">  1  7  2 -1</clus>
<clus scale="   91.052">  5  6 -1 -1</clus>
<clus scale="   40.798">  2  5  1 -1</clus>
</clustering>
</event>
<event>
 9    1  0.1445593E-005  0.1673352E+03  0.7546771E-02  0.1180759E+00
          1   -1    0    0  502    0 -0.00000000000E+00  0.00000000000E+00  0.22313130876E+03  0.22313130876E+03  0.00000000000E+00 0. -1.
         21   -1    0    0  501  502  0.00000000000E+00 -0.00000000000E+00 -0.29277233155E+03  0.29277233155E+03  0.00000000000E+00 0.  1.
         23    2    1    2    0    0 -0.13127613031E+03 -0.26656995124E+02  0.80032857782E+02  0.18060977650E+03  0.90942923104E+02 0.  0.
         23    2    1    2    0    0  0.14174003607E+03  0.53397399362E+02  0.58583126758E+01  0.17713316807E+03  0.91653255914E+02 0.  0.
        -13    1    4    4    0    0  0.13729873756E+03  0.25805866883E+02 -0.17389570203E+02  0.14078097618E+03  0.00000000000E+00 0.  1.
         13    1    4    4    0    0  0.44412985066E+01  0.27591532479E+02  0.23247882879E+02  0.36352191892E+02  0.00000000000E+00 0. -1.
        -13    1    3    3    0    0 -0.12927859524E+03  0.11011303997E+01  0.81351021075E+02  0.15274867039E+03  0.00000000000E+00 0. -1.
         13    1    3    3    0    0 -0.19975350690E+01 -0.27758125524E+02 -0.13181632933E+01  0.27861106106E+02  0.00000000000E+00 0.  1.
          1    1    1    2  501    0 -0.10463905758E+02 -0.26740404238E+02 -0.15553219324E+03  0.15816069574E+03  0.00000000000E+00 0. -1.
<scales pt_clust_5="13000.00000" pt_clust_6="13000.00000" pt_clust_7="13000.00000" pt_clust_8="13000.00000" pt_clust_9="28.71485"></scales>
<clustering>
<clus scale="   28.715">  2  9  1 -1</clus>
<clus scale="   90.943">  7  8 -1 -1</clus>
<clus scale="   91.653">  5  6 -1 -1</clus>
<clus scale="  166.947">  1  7  2 -1</clus>
<clus scale="   28.715">  2  5  1 -1</clus>
</clustering>
</event>
<event>
 9    1  0.1445593E-005  0.1143507E+03  0.7546771E-02  0.1253951E+00
         -4   -1    0    0    0  501 -0.00000000000E+00  0.00000000000E+00  0.50170485983E+03  0.50170485983E+03  0.00000000000E+00 0.  1.
         21   -1    0    0  501  502  0.00000000000E+00 -0.00000000000E+00 -0.61558503424E+02  0.61558503424E+02  0.00000000000E+00 0.  1.
         23    2    1    2    0    0 -0.69203107506E+02  0.49146397369E+01  0.29236863730E+03  0.31309823384E+03  0.87965107766E+02 0.  0.
         23    2    1    2    0    0  0.62344799554E+02  0.59914182850E+02  0.13341897182E+03  0.18341195533E+03  0.91448017906E+02 0.  0.
        -13    1    4    4    0    0  0.37575752958E+02  0.16378896852E+00  0.28301207297E+01  0.37682537342E+02  0.00000000000E+00 0. -1.
         13    1    4    4    0    0  0.24769046596E+02  0.59750393882E+02  0.13058885109E+03  0.14572941799E+03  0.00000000000E+00 0.  1.
        -13    1    3    3    0    0  0.14905963118E+02 -0.18758873709E+02  0.78293999692E+02  0.81878162333E+02  0.00000000000E+00 0. -1.
         13    1    3    3    0    0 -0.84109070624E+02  0.23673513446E+02  0.21407463761E+03  0.23122007151E+03  0.00000000000E+00 0.  1.
         -4    1    1    2    0  502  0.68583079521E+01 -0.64828822587E+02  0.14358747279E+02  0.66753174077E+02  0.00000000000E+00 0.  1.
<scales pt_clust_5="13000.00000" pt_clust_6="13000.00000" pt_clust_7="13000.00000" pt_clust_8="13000.00000" pt_clust_9="65.19059"></scales>
<clustering>
<clus scale="   65.191">  2  9  1 -1</clus>
<clus scale="   87.965">  7  8 -1 -1</clus>
<clus scale="   91.448">  5  6 -1 -1</clus>
<clus scale="  111.585">  1  7  2 -1</clus>
<clus scale="   65.191">  2  5  1 -1</clus>
</clustering>
</event>
<event>
 9    1  0.1445593E-005  0.9664487E+02  0.7546771E-02  0.1288115E+00
         21   -1    0    0  501  502  0.00000000000E+00  0.00000000000E+00  0.11128129922E+03  0.11128129922E+03  0.00000000000E+00 0.  1.
         -2   -1    0    0    0  501 -0.00000000000E+00 -0.00000000000E+00 -0.33986077742E+03  0.33986077742E+03  0.00000000000E+00 0.  1.
         23    2    1    2    0    0  0.22336461749E+02  0.28931352265E+02 -0.16683465413E+03  0.19352886260E+03  0.91014714055E+02 0.  0.
         23    2    1    2    0    0 -0.22987055740E+02 -0.68878486783E+01 -0.14389681361E+03  0.17255271376E+03  0.92153669853E+02 0.  0.
        -11    1    3    3    0    0 -0.35122785491E+02  0.13128817812E+02 -0.51448420990E+02  0.63662515974E+02  0.00000000000E+00 0. -1.
         11    1    3    3    0    0  0.57459247240E+02  0.15802534453E+02 -0.11538623314E+03  0.12986634663E+03  0.00000000000E+00 0.  1.
        -13    1    4    4    0    0  0.18083201203E+02 -0.12213400977E+02  0.10093532063E+01  0.21844636025E+02  0.00000000000E+00 0.  1.
         13    1    4    4    0    0 -0.41070256942E+02  0.53255522992E+01 -0.14490616682E+03  0.15070807774E+03  0.00000000000E+00 0. -1.
         -2    1    1    2    0  502  0.65059399058E+00 -0.22043503587E+02  0.82151989533E+02  0.85060500275E+02  0.00000000000E+00 0.  1.
<scales pt_clust_5="13000.00000" pt_clust_6="13000.00000" pt_clust_7="13000.00000" pt_clust_8="13000.00000" pt_clust_9="22.05310"></scales>
<clustering>
<clus scale="   22.053">  1  9  2 -1</clus>
<clus scale="   91.015">  5  6 -1 -1</clus>
<clus scale="   92.154">  7  8 -1 -1</clus>
<clus scale="   95.559">  2  5  1 -1</clus>
<clus scale="   22.053">  1  5  2 -1</clus>
</clustering>
</event>
<event>
 9    1  0.1445593E-005  0.1994291E+03  0.7546771E-02  0.1151633E+00
          2   -1    0    0  502    0 -0.00000000000E+00  0.00000000000E+00  0.79332775655E+03  0.79332775655E+03  0.00000000000E+00 0. -1.
         21   -1    0    0  501  502  0.00000000000E+00 -0.00000000000E+00 -0.65106250720E+02  0.65106250720E+02  0.00000000000E+00 0.  1.
         23    2    1    2    0    0  0.11745884105E+03  0.13240633953E+03  0.48744421319E+03  0.52778369721E+03  0.98110916747E+02 0.  0.
         23    2    1    2    0    0 -0.13565440376E+03 -0.10224668078E+03  0.21726571367E+03  0.28830083705E+03  0.84002864929E+02 0.  0.
        -11    1    3    3    0    0  0.57355622897E+02  0.75050720530E+02  0.38220450069E+03  0.39370364295E+03  0.00000000000E+00 0. -1.
         11    1    3    3    0    0  0.60103218151E+02  0.57355618996E+02  0.10523971250E+03  0.13408005426E+03  0.00000000000E+00 0.  1.
        -13    1    4    4    0    0 -0.10883750731E+03 -0.37936294251E+02  0.10358973028E+03  0.15496966684E+03  0.00000000000E+00 0.  1.
         13    1    4    4    0    0 -0.26816896445E+02 -0.64310386525E+02  0.11367598339E+03  0.13333117021E+03  0.00000000000E+00 0. -1.
          2    1    1    2  501    0  0.18195562711E+02 -0.30159658750E+02  0.23511578963E+02  0.42349473003E+02  0.00000000000E+00 0. -1.
<scales pt_clust_5="13000.00000" pt_clust_6="13000.00000" pt_clust_7="13000.00000" pt_clust_8="13000.00000" pt_clust_9="35.22334"></scales>
<clustering>
<clus scale="   35.223">  2  9  1 -1</clus>
<clus scale="   84.003">  7  8 -1 -1</clus>
<clus scale="   98.111">  5  6 -1 -1</clus>
<clus scale="  192.880">  2  7  1 -1</clus>
<clus scale="   35.223">  2  5  1 -1</clus>
</clustering>
</event>
<event>
 9    1  0.1445593E-005  0.1009354E+03  0.7546771E-02  0.1278369E+00
         -1   -1    0    0    0  501 -0.00000000000E+00  0.00000000000E+00  0.29323758004E+03  0.29323758004E+03  0.00000000000E+00 0.  1.
         21   -1    0    0  501  502  0.00000000000E+00 -0.00000000000E+00 -0.66480855487E+02  0.66480855487E+02  0.00000000000E+00 0. -1.
         23    2    1    2    0    0 -0.20429377214E+02  0.52292189934E+02  0.17844493342E+03  0.20774762785E+03  0.90358453022E+02 0.  0.
         23    2    1    2    0    0 -0.16978726468E+02 -0.27951301973E+02  0.47941716234E+02  0.10733918208E+03  0.90298058781E+02 0.  0.
        -11    1    4    4    0    0 -0.38824891640E+02 -0.93301193316E+00  0.59211894880E+02  0.70811660180E+02  0.00000000000E+00 0.  1.
         11    1    4    4    0    0  0.21846165172E+02 -0.27018290040E+02 -0.11270178646E+02  0.36527521900E+02  0.00000000000E+00 0. -1.
        -11    1    3    3    0    0 -0.21231414442E+01  0.72509218184E+02  0.15735674735E+03  0.17327215699E+03  0.00000000000E+00 0. -1.
         11    1    3    3    0    0 -0.18306235770E+02 -0.20217028250E+02  0.21088186071E+02  0.34475470861E+02  0.00000000000E+00 0.  1.
         -1    1    1    2    0  502  0.37408103682E+02 -0.24340887960E+02  0.37007489637E+00  0.44631625594E+02  0.00000000000E+00 0.  1.
<scales pt_clust_5="13000.00000" pt_clust_6="13000.00000" pt_clust_7="13000.00000" pt_clust_8="13000.00000" pt_clust_9="44.63009"></scales>
<clustering>
<clus scale="   44.630">  2  9  1 -1</clus>
<clus scale="   90.298">  5  6 -1 -1</clus>
<clus scale="   90.358">  7  8 -1 -1</clus>
<clus scale="  100.881">  2  5  1 -1</clus>
<clus scale="   44.630">  2  5  1 -1</clus>
</clustering>
</event>
<event>
 9    1  0.1445593E-005  0.2541011E+03  0.7546771E-02  0.1110934E+00
          2   -1    0    0  502    0 -0.00000000000E+00  0.00000000000E+00  0.13148350107E+04  0.13148350107E+04  0.00000000000E+00 0. -1.
         21   -1    0    0  501  502  0.00000000000E+00 -0.00000000000E+00 -0.11418599194E+03  0.11418599194E+03  0.00000000000E+00 0. -1.
         23    2    1    2    0    0 -0.22191021938E+03  0.10185714524E+03  0.10641014967E+04  0.10956719287E+04  0.92552453042E+02 0.  0.
         23    2    1    2    0    0  0.18874166289E+03 -0.91008172958E+02  0.17066602637E+03  0.28454409799E+03  0.89064854395E+02 0.  0.
        -13    1    4    4    0    0  0.15999529951E+03 -0.35779047216E+02  0.10875024867E+03  0.19673650569E+03  0.00000000000E+00 0.  1.
         13    1    4    4    0    0  0.28746363384E+02 -0.55229125741E+02  0.61915777699E+02  0.87807592303E+02  0.00000000000E+00 0. -1.
        -13    1    3    3    0    0 -0.46110393905E+02  0.29790026515E+02  0.11118839065E+03  0.12400190451E+03  0.00000000000E+00 0.  1.
         13    1    3    3    0    0 -0.17579982548E+03  0.72067118726E+02  0.95291310609E+03  0.97167002423E+03  0.00000000000E+00 0. -1.
          2    1    1    2  501    0  0.33168556489E+02 -0.10848972283E+02 -0.34118504316E+02  0.48804975935E+02  0.00000000000E+00 0. -1.
<scales pt_clust_5="13000.00000" pt_clust_6="13000.00000" pt_clust_7="13000.00000" pt_clust_8="13000.00000" pt_clust_9="34.89776"></scales>
<clustering>
<clus scale="   34.898">  2  9  1 -1</clus>
<clus scale="   89.065">  5  6 -1 -1</clus>
<clus scale="   92.552">  7  8 -1 -1</clus>
<clus scale="  252.852">  2  5  1 -1</clus>
<clus scale="   34.898">  2  5  1 -1</clus>
</clustering>
</event>
<event>
 9    1  0.1445593E-005  0.1096228E+03  0.7546771E-02  0.1264524E+00
          2   -1    0    0  502    0 -0.00000000000E+00  0.00000000000E+00  0.37477893401E+03  0.37477893401E+03  0.00000000000E+00 0. -1.
         21   -1    0    0  501  502  0.00000000000E+00 -0.00000000000E+00 -0.85490284903E+02  0.85490284903E+02  0.00000000000E+00 0. -1.
         23    2    1    2    0    0 -0.26130452721E+02  0.17862145255E+02  0.13844993671E+03  0.17087026887E+03  0.95007405051E+02 0.  0.
         23    2    1    2    0    0  0.23351557149E+02 -0.11448450379E+03  0.11729073241E+03  0.18708047962E+03  0.87120566563E+02 0.  0.
        -13    1    4    4    0    0  0.46306606088E+02 -0.11034303140E+03  0.83095171286E+02  0.14568697209E+03  0.00000000000E+00 0. -1.
         13    1    4    4    0    0 -0.22955048939E+02 -0.41414723861E+01  0.34195561121E+02  0.41393507531E+02  0.00000000000E+00 0.  1.
        -13    1    3    3    0    0 -0.58546771682E+02  0.17849557916E+02  0.11687035366E+03  0.13192805144E+03  0.00000000000E+00 0.  1.
         13    1    3    3    0    0  0.32416318961E+02  0.12587338677E-01  0.21579583052E+02  0.38942217426E+02  0.00000000000E+00 0. -1.
          2    1    1    2  501    0  0.27788955719E+01  0.96622358530E+02  0.33547979986E+02  0.10231847042E+03  0.00000000000E+00 0. -1.
<scales pt_clust_5="13000.00000" pt_clust_6="13000.00000" pt_clust_7="13000.00000" pt_clust_8="13000.00000" pt_clust_9="96.66231"></scales>
<clustering>
<clus scale="   87.121">  5  6 -1 -1</clus>
<clus scale="   95.007">  7  8 -1 -1</clus>
<clus scale="   96.662">  2  9  1 -1</clus>
<clus scale="  102.863">  2  5  1 -1</clus>
<clus scale="   96.662">  2  5  1 -1</clus>
</clustering>
</event>
<event>
 9    1  0.1445593E-005  0.1048282E+03  0.7546771E-02  0.1270648E+00
          2   -1    0    0  502    0 -0.00000000000E+00  0.00000000000E+00  0.57839729098E+03  0.57839729098E+03  0.00000000000E+00 0. -1.
         21   -1    0    0  501  502  0.00000000000E+00 -0.00000000000E+00 -0.15851194328E+03  0.15851194328E+03  0.00000000000E+00 0. -1.
         23    2    1    2    0    0  0.33722615797E+02 -0.26150649578E+02  0.36515700896E+03  0.37890415936E+03  0.91693235823E+02 0.  0.
         23    2    1    2    0    0 -0.39302238662E+02  0.57076325579E+02  0.18829963003E+03  0.22078692929E+03  0.92128956216E+02 0.  0.
        -11    1    3    3    0    0 -0.40121332840E+01  0.31048917861E+02  0.14446307703E+03  0.14781648467E+03  0.00000000000E+00 0.  1.
         11    1    3    3    0    0  0.37734749081E+02 -0.57199567440E+02  0.22069393193E+03  0.23108767469E+03  0.00000000000E+00 0. -1.
        -13    1    4    4    0    0 -0.64418767993E+01  0.47132281380E+02  0.24655590881E+02  0.53580293825E+02  0.00000000000E+00 0.  1.
         13    1    4    4    0    0 -0.32860361863E+02  0.99440441992E+01  0.16364403915E+03  0.16720663547E+03  0.00000000000E+00 0. -1.
          2    1    1    2  501    0  0.55796228650E+01 -0.30925676000E+02 -0.13357129129E+03  0.13721814560E+03  0.00000000000E+00 0. -1.
<scales pt_clust_5="13000.00000" pt_clust_6="13000.00000" pt_clust_7="13000.00000" pt_clust_8="13000.00000" pt_clust_9="31.42498"></scales>
<clustering>
<clus scale="   31.425">  2  9  1 -1</clus>
<clus scale="   91.693">  5  6 -1 -1</clus>
<clus scale="   92.129">  7  8 -1 -1</clus>
<clus scale="  104.445">  1  5  2 -1</clus>
<clus scale="   31.425">  2  5  1 -1</clus>
</clustering>
</event>
<event>
 9    1  0.1445593E-005  0.1312928E+03  0.7546771E-02  0.1242530E+00
          1   -1    0    0  502    0 -0.00000000000E+00  0.00000000000E+00  0.51574558036E+03  0.51574558036E+03  0.00000000000E+00 0. -1.
         21   -1    0    0  501  502  0.00000000000E+00 -0.00000000000E+00 -0.36884024661E+03  0.36884024661E+03  0.00000000000E+00 0. -1.
         23    2    1    2    0    0 -0.30772831836E+02 -0.10919227803E+01 -0.33656045431E+03  0.34908760919E+03  0.87413156959E+02 0.  0.
         23    2    1    2    0    0 -0.71876280916E+01  0.89645472651E+02  0.32965903965E+03  0.35400650014E+03  0.92507010305E+02 0.  0.
        -11    1    4    4    0    0  0.27198551117E+02  0.89627994147E+02  0.25920949417E+03  0.27561295395E+03  0.00000000000E+00 0. -1.
         11    1    4    4    0    0 -0.34386179208E+02  0.17478503465E-01  0.70449545472E+02  0.78393546184E+02  0.00000000000E+00 0.  1.
        -13    1    3    3    0    0 -0.28197227728E+02  0.40818102899E+02 -0.15549767625E+03  0.16321987776E+03  0.00000000000E+00 0. -1.
         13    1    3    3    0    0 -0.25756041083E+01 -0.41910025680E+02 -0.18106277806E+03  0.18586773143E+03  0.00000000000E+00 0.  1.
          1    1    1    2  501    0  0.37960459927E+02 -0.88553549870E+02  0.15380674842E+03  0.18149171764E+03  0.00000000000E+00 0. -1.
<scales pt_clust_5="13000.00000" pt_clust_6="13000.00000" pt_clust_7="13000.00000" pt_clust_8="13000.00000" pt_clust_9="93.16786"></scales>
<clustering>
<clus scale="   87.413">  7  8 -1 -1</clus>
<clus scale="   92.507">  5  6 -1 -1</clus>
<clus scale="   92.678">  1  7  2 -1</clus>
<clus scale="   93.168">  2  9  1 -1</clus>
<clus scale="   93.168">  2  5  1 -1</clus>
</clustering>
</event>
<event>
 9    1  0.1445593E-005  0.9535011E+02  0.7546771E-02  0.1290490E+00
         21   -1    0    0  501  502  0.00000000000E+00  0.00000000000E+00  0.36964565858E+02  0.36964565858E+02  0.00000000000E+00 0.  1.
          2   -1    0    0  502    0 -0.00000000000E+00 -0.00000000000E+00 -0.56540185705E+03  0.56540185705E+03  0.00000000000E+00 0. -1.
         23    2    1    2    0    0 -0.18354727345E+02 -0.18808055278E+02 -0.44339740557E+03  0.45346621627E+03  0.91322018571E+02 0.  0.
         23    2    1    2    0    0  0.80145193276E+01  0.37711139895E+02 -0.59416429877E+02  0.11542173603E+03  0.91134529219E+02 0.  0.
        -11    1    3    3    0    0 -0.22074574503E+02 -0.53484764297E+02 -0.32205096523E+03  0.32720747403E+03  0.00000000000E+00 0.  1.
         11    1    3    3    0    0  0.37198471580E+01  0.34676709019E+02 -0.12134644034E+03  0.12625874225E+03  0.00000000000E+00 0. -1.
        -11    1    4    4    0    0 -0.40761289714E+02  0.25226927297E+02 -0.35688873063E+02  0.59762666109E+02  0.00000000000E+00 0.  1.
         11    1    4    4    0    0  0.48775809041E+02  0.12484212598E+02 -0.23727556814E+02  0.55659069918E+02  0.00000000000E+00 0. -1.
          2    1    1    2  501    0  0.10340208018E+02 -0.18903084617E+02 -0.25623455747E+02  0.33478470609E+02  0.00000000000E+00 0. -1.
<scales pt_clust_5="13000.00000" pt_clust_6="13000.00000" pt_clust_7="13000.00000" pt_clust_8="13000.00000" pt_clust_9="21.54638"></scales>
<clustering>
<clus scale="   21.546">  1  9  2 -1</clus>
<clus scale="   91.135">  7  8 -1 -1</clus>
<clus scale="   91.322">  5  6 -1 -1</clus>
<clus scale="   95.171">  1  7  2 -1</clus>
<clus scale="   21.546">  1  5  2 -1</clus>
</clustering>
</event>
<event>
 9    1  0.1445593E-005  0.1998428E+03  0.7546771E-02  0.1150464E+00
         -4   -1    0    0    0  501 -0.00000000000E+00  0.00000000000E+00  0.48204243201E+03  0.48204243201E+03  0.00000000000E+00 0.  1.
         21   -1    0    0  501  502  0.00000000000E+00 -0.00000000000E+00 -0.33183736696E+03  0.33183736696E+03  0.00000000000E+00 0.  1.
         23    2    1    2    0    0  0.57066875355E+02 -0.17457297447E+03  0.32331837074E+03  0.38288905867E+03  0.91306684931E+02 0.  0.
         23    2    1    2    0    0 -0.75469022129E+02  0.14759801230E+03  0.59896652572E+02  0.19570383406E+03  0.85039021288E+02 0.  0.
        -11    1    3    3    0    0  0.72717353357E+02 -0.93865022087E+02  0.15211649800E+03  0.19297120203E+03  0.00000000000E+00 0.  1.
         11    1    3    3    0    0 -0.15650478002E+02 -0.80707952385E+02  0.17120187274E+03  0.18991785664E+03  0.00000000000E+00 0. -1.
        -13    1    4    4    0    0  0.13512112287E+02  0.33636638993E+02  0.32209315184E+02  0.48491655425E+02  0.00000000000E+00 0. -1.
         13    1    4    4    0    0 -0.88981134415E+02  0.11396137330E+03  0.27687337388E+02  0.14721217864E+03  0.00000000000E+00 0.  1.
         -4    1    1    2    0  502  0.18402146774E+02  0.26974962175E+02 -0.23300995828E+03  0.23528690623E+03  0.00000000000E+00 0.  1.
<scales pt_clust_5="13000.00000" pt_clust_6="13000.00000" pt_clust_7="13000.00000" pt_clust_8="13000.00000" pt_clust_9="32.65406"></scales>
<clustering>
<clus scale="   32.654">  2  9  1 -1</clus>
<clus scale="   85.039">  7  8 -1 -1</clus>
<clus scale="   91.307">  5  6 -1 -1</clus>
<clus scale="  197.058">  2  7  1 -1</clus>
<clus scale="   32.654">  2  5  1 -1</clus>
</clustering>
</event>
<event>
 9    1  0.1445593E-005  0.1069198E+03  0.7546771E-02  0.1277290E+00
         21   -1    0    0  501  502  0.00000000000E+00  0.00000000000E+00  0.55213014553E+02  0.55213014553E+02  0.00000000000E+00 0. -1.
         -3   -1    0    0    0  501 -0.00000000000E+00 -0.00000000000E+00 -0.24326565423E+03  0.24326565423E+03  0.00000000000E+00 0.  1.
         23    2    1    2    0    0  0.30023997513E+02  0.24805825562E+02 -0.12631751711E+03  0.15477586313E+03  0.80515112068E+02 0.  0.
         23    2    1    2    0    0 -0.10936092667E+02 -0.14726711859E+02 -0.64277961886E+02  0.12196797931E+03  0.10201988741E+03 0.  0.
        -11    1    3    3    0    0  0.15350728449E+02  0.48771300689E+02 -0.42870838662E+02  0.66724758841E+02  0.00000000000E+00 0. -1.
         11    1    3    3    0    0  0.14673269065E+02 -0.23965475127E+02 -0.83446678449E+02  0.88051104293E+02  0.00000000000E+00 0.  1.
        -11    1    4    4    0    0 -0.41520305667E+02 -0.44510453460E+02 -0.40351344132E+02  0.73029769432E+02  0.00000000000E+00 0.  1.
         11    1    4    4    0    0  0.30584213000E+02  0.29783741602E+02 -0.23926617754E+02  0.48938209875E+02  0.00000000000E+00 0. -1.
         -3    1    1    2    0  502 -0.19087904846E+02 -0.10079113704E+02  0.25428393173E+01  0.21734826346E+02  0.00000000000E+00 0.  1.
<scales pt_clust_5="13000.00000" pt_clust_6="13000.00000" pt_clust_7="13000.00000" pt_clust_8="13000.00000" pt_clust_9="21.58557"></scales>
<clustering>
<clus scale="   21.586">  1  9  2 -1</clus>
<clus scale="   80.515">  5  6 -1 -1</clus>
<clus scale="   86.640">  2  5  1 -1</clus>
<clus scale="  102.020">  7  8 -1 -1</clus>
<clus scale="   21.586">  1  5  2 -1</clus>
</clustering>
</event>
<event>
 9    1  0.1445593E-005  0.9414578E+02  0.7546771E-02  0.1293403E+00
          2   -1    0    0  502    0 -0.00000000000E+00  0.00000000000E+00  0.17502497112E+03  0.17502497112E+03  0.00000000000E+00 0. -1.
         21   -1    0    0  501  502  0.00000000000E+00 -0.00000000000E+00 -0.15049662532E+03  0.15049662532E+03  0.00000000000E+00 0.  1.
         23    2    1    2    0    0  0.19019660062E+02  0.85287849986E+01  0.13236647710E+03  0.16217540733E+03  0.91353658055E+02 0.  0.
         23    2    1    2    0    0 -0.26962349632E+02 -0.29904630788E+02 -0.93362958102E+02  0.13633612172E+03  0.90827533823E+02 0.  0.
        -11    1    3    3    0    0  0.47546025533E+02 -0.92397322140E+01  0.36675548960E+02  0.60754366813E+02  0.00000000000E+00 0.  1.
         11    1    3    3    0    0 -0.28526365471E+02  0.17768517213E+02  0.95690928141E+02  0.10142104052E+03  0.00000000000E+00 0. -1.
        -13    1    4    4    0    0 -0.50181699570E+02 -0.34904004631E+02 -0.94512205114E+02  0.11255687196E+03  0.00000000000E+00 0.  1.
         13    1    4    4    0    0  0.23219349938E+02  0.49993738434E+01  0.11492470114E+01  0.23779249758E+02  0.00000000000E+00 0. -1.
          2    1    1    2  501    0  0.79426895699E+01  0.21375845789E+02 -0.14475173200E+02  0.27010067382E+02  0.00000000000E+00 0. -1.
<scales pt_clust_5="13000.00000" pt_clust_6="13000.00000" pt_clust_7="13000.00000" pt_clust_8="13000.00000" pt_clust_9="22.80380"></scales>
<clustering>
<clus scale="   22.804">  2  9  1 -1</clus>
<clus scale="   90.828">  7  8 -1 -1</clus>
<clus scale="   91.354">  5  6 -1 -1</clus>
<clus scale="   93.635">  2  7  1 -1</clus>
<clus scale="   22.804">  2  5  1 -1</clus>
</clustering>
</event>
<event>
 9    1  0.1445593E-005  0.1608220E+03  0.7546771E-02  0.1207023E+00
         -1   -1    0    0    0  501 -0.00000000000E+00  0.00000000000E+00  0.29062253289E+03  0.29062253289E+03  0.00000000000E+00 0.  1.
         21   -1    0    0  501  502  0.00000000000E+00 -0.00000000000E+00 -0.24625020819E+03  0.24625020819E+03  0.00000000000E+00 0.  1.
         23    2    1    2    0    0 -0.22834916164E+02 -0.22547398771E+02  0.14039612286E+03  0.17571739633E+03  0.10067628059E+03 0.  0.
         23    2    1    2    0    0  0.15822649610E+02  0.15220887541E+03  0.31073834070E+02  0.17945482597E+03  0.88433892855E+02 0.  0.
        -11    1    3    3    0    0 -0.17038323726E+02  0.24710705808E+02  0.12038558348E+03  0.12407099647E+03  0.00000000000E+00 0.  1.
         11    1    3    3    0    0 -0.57965924386E+01 -0.47258104580E+02  0.20010539382E+02  0.51646399862E+02  0.00000000000E+00 0. -1.
        -13    1    4    4    0    0  0.29808882573E+02  0.12494825987E+03 -0.92774945566E+01  0.12878939798E+03  0.00000000000E+00 0.  1.
         13    1    4    4    0    0 -0.13986232963E+02  0.27260615539E+02  0.40351328626E+02  0.50665427995E+02  0.00000000000E+00 0. -1.
         -1    1    1    2    0  502  0.70122665546E+01 -0.12966147664E+03 -0.12709763222E+03  0.18170051878E+03  0.00000000000E+00 0.  1.
<scales pt_clust_5="13000.00000" pt_clust_6="13000.00000" pt_clust_7="13000.00000" pt_clust_8="13000.00000" pt_clust_9="134.32489"></scales>
<clustering>
<clus scale="   88.434">  7  8 -1 -1</clus>
<clus scale="  100.676">  5  6 -1 -1</clus>
<clus scale="  105.667">  1  5  2 -1</clus>
<clus scale="  134.325">  2  9  1 -1</clus>
<clus scale="  134.325">  2  5  1 -1</clus>
</clustering>
</event>
<event>
 9    1  0.1445593E-005  0.9917426E+02  0.7546771E-02  0.1286442E+00
         21   -1    0    0  501  502  0.00000000000E+00  0.00000000000E+00  0.75951644976E+02  0.75951644976E+02  0.00000000000E+00 0.  1.
          3   -1    0    0  502    0 -0.00000000000E+00 -0.00000000000E+00 -0.26967216701E+03  0.26967216701E+03  0.00000000000E+00 0. -1.
         23    2    1    2    0    0 -0.16306591072E+02 -0.26714106630E+01 -0.55399538870E+02  0.10755219337E+03  0.90693572228E+02 0.  0.
         23    2    1    2    0    0 -0.40361719990E+01  0.69737119055E+01 -0.79821400946E+00  0.98985854284E+02  0.98654137574E+02 0.  0.
        -11    1    4    4    0    0 -0.17033032084E+02  0.48754211444E+02 -0.13584246692E+02  0.53400646754E+02  0.00000000000E+00 0. -1.
         11    1    4    4    0    0  0.12996860085E+02 -0.41780499539E+02  0.12786032683E+02  0.45585207530E+02  0.00000000000E+00 0.  1.
        -13    1    3    3    0    0  0.31304797867E+02  0.61941883592E+01 -0.49318084699E+02  0.58742078762E+02  0.00000000000E+00 0.  1.
         13    1    3    3    0    0 -0.47611388939E+02 -0.88655990223E+01 -0.60814541705E+01  0.48810114603E+02  0.00000000000E+00 0. -1.
          3    1    1    2  501    0  0.20342763071E+02 -0.43023012425E+01 -0.13752276915E+03  0.13908576434E+03  0.00000000000E+00 0. -1.
<scales pt_clust_5="13000.00000" pt_clust_6="13000.00000" pt_clust_7="13000.00000" pt_clust_8="13000.00000" pt_clust_9="20.79274"></scales>
<clustering>
<clus scale="   20.793">  1  9  2 -1</clus>
<clus scale="   90.694">  7  8 -1 -1</clus>
<clus scale="   91.259">  2  7  1 -1</clus>
<clus scale="   98.654">  5  6 -1 -1</clus>
<clus scale="   20.793">  1  5  2 -1</clus>
</clustering>
</event>
<event>
 9    1  0.1445593E-005  0.1352707E+03  0.7546771E-02  0.1219879E+00
         21   -1    0    0  501  502  0.00000000000E+00  0.00000000000E+00  0.19225510701E+03  0.19225510701E+03  0.00000000000E+00 0. -1.
         -1   -1    0    0    0  501 -0.00000000000E+00 -0.00000000000E+00 -0.11984820608E+03  0.11984820608E+03  0.00000000000E+00 0.  1.
         23    2    1    2    0    0  0.86262730044E+00  0.89922765177E+02  0.28169251804E+02  0.13030542607E+03  0.89995274842E+02 0.  0.
         23    2    1    2    0    0 -0.16098231118E+02 -0.11392211974E+03  0.46195572732E+02  0.15330356991E+03  0.90169569118E+02 0.  0.
        -11    1    4    4    0    0  0.26393362205E+02 -0.88008918175E+02  0.11420504251E+02  0.92588374886E+02  0.00000000000E+00 0.  1.
         11    1    4    4    0    0 -0.42491593324E+02 -0.25913201566E+02  0.34775068481E+02  0.60715195021E+02  0.00000000000E+00 0. -1.
        -11    1    3    3    0    0  0.42916545288E+02  0.41431603492E+02 -0.13239847994E+01  0.59667081068E+02  0.00000000000E+00 0.  1.
         11    1    3    3    0    0 -0.42053917988E+02  0.48491161685E+02  0.29493236604E+02  0.70638345005E+02  0.00000000000E+00 0. -1.
         -1    1    1    2    0  502  0.15235603818E+02  0.23999354563E+02 -0.19579236045E+01  0.28494317117E+02  0.00000000000E+00 0.  1.
<scales pt_clust_5="13000.00000" pt_clust_6="13000.00000" pt_clust_7="13000.00000" pt_clust_8="13000.00000" pt_clust_9="28.42698"></scales>
<clustering>
<clus scale="   28.427">  1  9  2 -1</clus>
<clus scale="   89.995">  7  8 -1 -1</clus>
<clus scale="   90.170">  5  6 -1 -1</clus>
<clus scale="  135.155">  2  7  1 -1</clus>
<clus scale="   28.427">  1  5  2 -1</clus>
</clustering>
</event>
<event>
 9    1  0.1445593E-005  0.9106058E+02  0.7546771E-02  0.1300774E+00
         21   -1    0    0  501  502  0.00000000000E+00  0.00000000000E+00  0.24801486359E+03  0.24801486359E+03  0.00000000000E+00 0.  1.
         -2   -1    0    0    0  501 -0.00000000000E+00 -0.00000000000E+00 -0.17232565483E+03  0.17232565483E+03  0.00000000000E+00 0.  1.
         23    2    1    2    0    0 -0.66466646877E+01 -0.10694064144E+02 -0.11138322104E+03  0.14284621128E+03  0.88545338611E+02 0.  0.
         23    2    1    2    0    0 -0.41165135164E+02  0.75523877124E+02  0.10506120261E+03  0.16253903653E+03  0.89345720276E+02 0.  0.
        -13    1    4    4    0    0 -0.65128342557E+02  0.38791295857E+02  0.86218837719E+02  0.11480485014E+03  0.00000000000E+00 0.  1.
         13    1    4    4    0    0  0.23963207393E+02  0.36732581267E+02  0.18842364896E+02  0.47734186386E+02  0.00000000000E+00 0. -1.
        -13    1    3    3    0    0  0.33638998329E+02 -0.16458558111E+02 -0.88639768782E+02  0.96226165638E+02  0.00000000000E+00 0. -1.
         13    1    3    3    0    0 -0.40285663016E+02  0.57644939668E+01 -0.22743452255E+02  0.46620045644E+02  0.00000000000E+00 0.  1.
         -2    1    1    2    0  502  0.47811799851E+02 -0.64829812980E+02  0.82011227184E+02  0.11495527061E+03  0.00000000000E+00 0.  1.
<scales pt_clust_5="13000.00000" pt_clust_6="13000.00000" pt_clust_7="13000.00000" pt_clust_8="13000.00000" pt_clust_9="80.55354"></scales>
<clustering>
<clus scale="   80.554">  1  9  2 -1</clus>
<clus scale="   88.545">  7  8 -1 -1</clus>
<clus scale="   89.346">  5  6 -1 -1</clus>
<clus scale="   90.275">  2  7  1 -1</clus>
<clus scale="   80.554">  1  5  2 -1</clus>
</clustering>
</event>
<event>
 9    1  0.1445593E-005  0.1020499E+03  0.7546771E-02  0.1276433E+00
         -1   -1    0    0    0  501 -0.00000000000E+00  0.00000000000E+00  0.71242941937E+02  0.71242941937E+02  0.00000000000E+00 0.  1.
         21   -1    0    0  501  502  0.00000000000E+00 -0.00000000000E+00 -0.30328748951E+03  0.30328748951E+03  0.00000000000E+00 0. -1.
         23    2    1    2    0    0  0.33323605598E+02 -0.17134919113E+02 -0.53191556992E+01  0.99465978586E+02  0.91984342883E+02 0.  0.
         23    2    1    2    0    0 -0.55189101075E+02  0.25931010787E+02 -0.10761021653E+03  0.15364000672E+03  0.91142957861E+02 0.  0.
        -11    1    4    4    0    0  0.11452802283E+01 -0.26816414982E+02 -0.87650009939E+01  0.28235740148E+02  0.00000000000E+00 0.  1.
         11    1    4    4    0    0 -0.56334381303E+02  0.52747425769E+02 -0.98845215531E+02  0.12540426658E+03  0.00000000000E+00 0. -1.
        -13    1    3    3    0    0  0.21919994179E+02 -0.50719701800E+02  0.16695764946E+02  0.57721078148E+02  0.00000000000E+00 0. -1.
         13    1    3    3    0    0  0.11403611418E+02  0.33584782686E+02 -0.22014920645E+02  0.41744900437E+02  0.00000000000E+00 0.  1.
         -1    1    1    2    0  502  0.21865495477E+02 -0.87960916742E+01 -0.11911517535E+03  0.12142444614E+03  0.00000000000E+00 0.  1.
<scales pt_clust_5="13000.00000" pt_clust_6="13000.00000" pt_clust_7="13000.00000" pt_clust_8="13000.00000" pt_clust_9="23.56843"></scales>
<clustering>
<clus scale="   23.568">  2  9  1 -1</clus>
<clus scale="   91.143">  5  6 -1 -1</clus>
<clus scale="   91.984">  7  8 -1 -1</clus>
<clus scale="  101.292">  2  5  1 -1</clus>
<clus scale="   23.568">  2  5  1 -1</clus>
</clustering>
</event>
<event>
 9    1  0.1445593E-005  0.1323468E+03  0.7546771E-02  0.1229167E+00
         21   -1    0    0  501  502  0.00000000000E+00  0.00000000000E+00  0.70236533783E+02  0.70236533783E+02  0.00000000000E+00 0. -1.
          1   -1    0    0  502    0 -0.00000000000E+00 -0.00000000000E+00 -0.49854934859E+03  0.49854934859E+03  0.00000000000E+00 0. -1.
         23    2    1    2    0    0 -0.70330537220E+02  0.62980926083E+02 -0.37945022632E+03  0.39708835495E+03  0.69164339568E+02 0.  0.
         23    2    1    2    0    0  0.91138757245E+02 -0.63405183620E+02 -0.47652291850E+02  0.15084982172E+03  0.90324068845E+02 0.  0.
        -11    1    4    4    0    0  0.15900541523E+01 -0.30959397182E+02  0.17361482624E+02  0.35530741971E+02  0.00000000000E+00 0.  1.
         11    1    4    4    0    0  0.89548703092E+02 -0.32445786438E+02 -0.65013774474E+02  0.11531907975E+03  0.00000000000E+00 0. -1.
        -11    1    3    3    0    0 -0.17217422873E+02  0.25137144600E+02 -0.34502175213E+02  0.46029509919E+02  0.00000000000E+00 0.  1.
         11    1    3    3    0    0 -0.53113114347E+02  0.37843781483E+02 -0.34494805111E+03  0.35105884503E+03  0.00000000000E+00 0. -1.
          1    1    1    2  501    0 -0.20808220024E+02  0.42425753725E+00 -0.12102966380E+01  0.20847705701E+02  0.00000000000E+00 0. -1.
<scales pt_clust_5="13000.00000" pt_clust_6="13000.00000" pt_clust_7="13000.00000" pt_clust_8="13000.00000" pt_clust_9="20.81254"></scales>
<clustering>
<clus scale="   20.813">  1  9  2 -1</clus>
<clus scale="   69.164">  7  8 -1 -1</clus>
<clus scale="   90.324">  5  6 -1 -1</clus>
<clus scale="  118.916">  2  7  1 -1</clus>
<clus scale="   20.813">  1  5  2 -1</clus>
</clustering>
</event>
<event>
 9    1  0.1445593E-005  0.1005311E+03  0.7546771E-02  0.1295174E+00
         21   -1    0    0  501  502  0.00000000000E+00  0.00000000000E+00  0.52620139789E+03  0.52620139789E+03  0.00000000000E+00 0. -1.
          1   -1    0    0  502    0 -0.00000000000E+00 -0.00000000000E+00 -0.49041551853E+02  0.49041551853E+02  0.00000000000E+00 0. -1.
         23    2    1    2    0    0 -0.33826927174E+02  0.59704487299E+01  0.52596804593E+02  0.96583226230E+02  0.73362037019E+02 0.  0.
         23    2    1    2    0    0 -0.22999727116E+02 -0.79102848184E+01  0.81985271344E+02  0.13139532832E+03  0.99757643986E+02 0.  0.
        -11    1    4    4    0    0 -0.58287470119E+02 -0.24555559256E+02  0.44896825035E+02  0.77563712917E+02  0.00000000000E+00 0. -1.
         11    1    4    4    0    0  0.35287743003E+02  0.16645274437E+02  0.37088446308E+02  0.53831615403E+02  0.00000000000E+00 0.  1.
        -13    1    3    3    0    0 -0.31917877237E+02 -0.20406106537E+02  0.19229475042E+00  0.37883994623E+02  0.00000000000E+00 0. -1.
         13    1    3    3    0    0 -0.19090499367E+01  0.26376555267E+02  0.52404509843E+02  0.58699231607E+02  0.00000000000E+00 0.  1.
          1    1    1    2  501    0  0.56826654290E+02  0.19398360885E+01  0.34257777010E+03  0.34726439520E+03  0.00000000000E+00 0. -1.
<scales pt_clust_5="13000.00000" pt_clust_6="13000.00000" pt_clust_7="13000.00000" pt_clust_8="13000.00000" pt_clust_9="56.85975"></scales>
<clustering>
<clus scale="   56.860">  1  9  2 -1</clus>
<clus scale="   73.362">  7  8 -1 -1</clus>
<clus scale="   74.410">  2  7  1 -1</clus>
<clus scale="   99.758">  5  6 -1 -1</clus>
<clus scale="   56.860">  1  5  2 -1</clus>
</clustering>
</event>
<event>
 9    1  0.1445593E-005  0.8980420E+02  0.7546771E-02  0.1305026E+00
         -2   -1    0    0    0  501 -0.00000000000E+00  0.00000000000E+00  0.17873562295E+02  0.17873562295E+02  0.00000000000E+00 0. -1.
         21   -1    0    0  501  502  0.00000000000E+00 -0.00000000000E+00 -0.70319437606E+03  0.70319437606E+03  0.00000000000E+00 0. -1.
         23    2    1    2    0    0  0.13979314608E+02 -0.20445436595E+02 -0.23804181048E+03  0.25455292008E+03  0.86717059855E+02 0.  0.
         23    2    1    2    0    0  0.10858088088E+02 -0.11972506611E+02 -0.33150920660E+03  0.34375319425E+03  0.89479972632E+02 0.  0.
        -11    1    3    3    0    0 -0.11762927758E+02 -0.41203119452E+02 -0.61590783215E+02  0.75029914694E+02  0.00000000000E+00 0.  1.
         11    1    3    3    0    0  0.25742242365E+02  0.20757682857E+02 -0.17645102727E+03  0.17952300539E+03  0.00000000000E+00 0. -1.
        -11    1    4    4    0    0  0.44343414148E+02  0.10230056343E+01 -0.25971308672E+03  0.26347347558E+03  0.00000000000E+00 0. -1.
         11    1    4    4    0    0 -0.33485326060E+02 -0.12995512245E+02 -0.71796119882E+02  0.80279718672E+02  0.00000000000E+00 0.  1.
         -2    1    1    2    0  502 -0.24837402695E+02  0.32417943205E+02 -0.11576979668E+03  0.12276182402E+03  0.00000000000E+00 0. -1.
<scales pt_clust_5="13000.00000" pt_clust_6="13000.00000" pt_clust_7="13000.00000" pt_clust_8="13000.00000" pt_clust_9="40.83897"></scales>
<clustering>
<clus scale="   40.839">  2  9  1 -1</clus>
<clus scale="   86.717">  5  6 -1 -1</clus>
<clus scale="   87.052">  1  5  2 -1</clus>
<clus scale="   89.480">  7  8 -1 -1</clus>
<clus scale="   40.839">  2  5  1 -1</clus>
</clustering>
</event>
<event>
 9    1  0.1445593E-005  0.1027450E+03  0.7546771E-02  0.1296201E+00
         21   -1    0    0  501  502  0.00000000000E+00  0.00000000000E+00  0.10663394096E+03  0.10663394096E+03  0.00000000000E+00 0.  1.
         -1   -1    0    0    0  501 -0.00000000000E+00 -0.00000000000E+00 -0.23548834678E+03  0.23548834678E+03  0.00000000000E+00 0.  1.
         23    2    1    2    0    0  0.22681321757E+01 -0.26911624605E+01 -0.12960482982E+03  0.14651610557E+03  0.68243464875E+02 0.  0.
         23    2    1    2    0    0  0.20558293429E+02  0.55191796087E+01 -0.66759633625E+02  0.12428541894E+03  0.10264946131E+03 0.  0.
        -11    1    4    4    0    0  0.39270235820E+02  0.15739863974E+02 -0.85823154819E+02  0.95684422151E+02  0.00000000000E+00 0.  1.
         11    1    4    4    0    0 -0.18711942392E+02 -0.10220684365E+02  0.19063521194E+02  0.28600996788E+02  0.00000000000E+00 0. -1.
        -13    1    3    3    0    0 -0.21375196783E+02 -0.37766591232E+00 -0.83424176167E+01  0.22948586030E+02  0.00000000000E+00 0. -1.
         13    1    3    3    0    0  0.23643328959E+02 -0.23134965481E+01 -0.12126241221E+03  0.12356751954E+03  0.00000000000E+00 0.  1.
         -1    1    1    2    0  502 -0.22826425605E+02 -0.28280171483E+01  0.67510057630E+02  0.71320763233E+02  0.00000000000E+00 0.  1.
<scales pt_clust_5="13000.00000" pt_clust_6="13000.00000" pt_clust_7="13000.00000" pt_clust_8="13000.00000" pt_clust_9="23.00094"></scales>
<clustering>
<clus scale="   23.001">  1  9  2 -1</clus>
<clus scale="   68.243">  7  8 -1 -1</clus>
<clus scale="   68.387">  2  7  1 -1</clus>
<clus scale="  102.649">  5  6 -1 -1</clus>
<clus scale="   23.001">  1  5  2 -1</clus>
</clustering>
</event>
<event>
 9    1  0.1445593E-005  0.1052137E+03  0.7546771E-02  0.1271502E+00
         21   -1    0    0  501  502  0.00000000000E+00  0.00000000000E+00  0.23700011293E+03  0.23700011293E+03  0.00000000000E+00 0.  1.
         -1   -1    0    0    0  501 -0.00000000000E+00 -0.00000000000E+00 -0.87774615979E+02  0.87774615979E+02  0.00000000000E+00 0.  1.
         23    2    1    2    0    0  0.51326518637E+02 -0.55401566908E+02  0.12282731508E+02  0.11895888287E+03  0.91085702441E+02 0.  0.
         23    2    1    2    0    0 -0.19662719368E+02  0.19036042259E+02  0.44146969878E+02  0.10124000159E+03  0.86899882251E+02 0.  0.
        -11    1    4    4    0    0  0.16856023366E+02  0.20675515457E+02 -0.15816514479E+02  0.31012329700E+02  0.00000000000E+00 0. -1.
         11    1    4    4    0    0 -0.36518742735E+02 -0.16394731974E+01  0.59963484357E+02  0.70227671893E+02  0.00000000000E+00 0.  1.
        -13    1    3    3    0    0  0.74537100546E+02 -0.56737441324E+02  0.24237948690E+01  0.93705877016E+02  0.00000000000E+00 0.  1.
         13    1    3    3    0    0 -0.23210581909E+02  0.13358744158E+01  0.98589366389E+01  0.25253005854E+02  0.00000000000E+00 0. -1.
         -1    1    1    2    0  502 -0.31663799269E+02  0.36365524649E+02  0.92795795563E+02  0.10457584444E+03  0.00000000000E+00 0.  1.
<scales pt_clust_5="13000.00000" pt_clust_6="13000.00000" pt_clust_7="13000.00000" pt_clust_8="13000.00000" pt_clust_9="48.21875"></scales>
<clustering>
<clus scale="   48.219">  1  9  2 -1</clus>
<clus scale="   86.900">  5  6 -1 -1</clus>
<clus scale="   91.086">  7  8 -1 -1</clus>
<clus scale="  101.612">  1  5  2 -1</clus>
<clus scale="   48.219">  1  5  2 -1</clus>
</clustering>
</event>
<event>
 9    1  0.1445593E-005  0.3017418E+03  0.7546771E-02  0.1084397E+00
         21   -1    0    0  501  502  0.00000000000E+00  0.00000000000E+00  0.20339118520E+03  0.20339118520E+03  0.00000000000E+00 0.  1.
          1   -1    0    0  502    0 -0.00000000000E+00 -0.00000000000E+00 -0.11511218724E+04  0.11511218724E+04  0.00000000000E+00 0. -1.
         23    2    1    2    0    0  0.22025826831E+03  0.15996643842E+03 -0.64971899026E+03  0.71035238161E+03  0.91448201624E+02 0.  0.
         23    2    1    2    0    0 -0.18242614177E+03 -0.28673824433E+03 -0.35530705881E+03  0.49999022459E+03  0.90824009386E+02 0.  0.
        -11    1    4    4    0    0 -0.73428637887E+02 -0.16905518846E+03 -0.13977114774E+03  0.23131665602E+03  0.00000000000E+00 0.  1.
         11    1    4    4    0    0 -0.10899750388E+03 -0.11768305587E+03 -0.21553591107E+03  0.26867356857E+03  0.00000000000E+00 0. -1.
        -11    1    3    3    0    0  0.57524643063E+02  0.31478922834E+01 -0.91563685112E+02  0.10817995293E+03  0.00000000000E+00 0.  1.
         11    1    3    3    0    0  0.16273362525E+03  0.15681854613E+03 -0.55815530515E+03  0.60217242868E+03  0.00000000000E+00 0. -1.
          1    1    1    2  501    0 -0.37832126550E+02  0.12677180592E+03  0.57295361849E+02  0.14417045142E+03  0.00000000000E+00 0. -1.
<scales pt_clust_5="13000.00000" pt_clust_6="13000.00000" pt_clust_7="13000.00000" pt_clust_8="13000.00000" pt_clust_9="132.29649"></scales>
<clustering>
<clus scale="   90.824">  5  6 -1 -1</clus>
<clus scale="   91.448">  7  8 -1 -1</clus>
<clus scale="  132.296">  1  9  2 -1</clus>
<clus scale="  301.553">  1  5  2 -1</clus>
<clus scale="  132.296">  1  5  2 -1</clus>
</clustering>
</event>
<event>
 9    1  0.1445593E-005  0.1175605E+03  0.7546771E-02  0.1251874E+00
          1   -1    0    0  502    0 -0.00000000000E+00  0.00000000000E+00  0.34123892963E+03  0.34123892963E+03  0.00000000000E+00 0. -1.
         21   -1    0    0  501  502  0.00000000000E+00 -0.00000000000E+00 -0.53107345513E+02  0.53107345513E+02  0.00000000000E+00 0.  1.
         23    2    1    2    0    0  0.28015827728E+02  0.43432530099E+02  0.14534469937E+03  0.17808916684E+03  0.88991001989E+02 0.  0.
         23    2    1    2    0    0 -0.17343288662E+02 -0.74839885677E+02  0.98392552244E+02  0.16083886372E+03  0.10142113979E+03 0.  0.
        -11    1    4    4    0    0  0.36848373787E+02 -0.49141100333E+02  0.73800672635E+02  0.96016611448E+02  0.00000000000E+00 0. -1.
         11    1    4    4    0    0 -0.54191662450E+02 -0.25698785344E+02  0.24591879610E+02  0.64822252275E+02  0.00000000000E+00 0.  1.
        -13    1    3    3    0    0  0.87967291627E+01  0.58886501539E+02  0.44659448067E+02  0.74427607842E+02  0.00000000000E+00 0.  1.
         13    1    3    3    0    0  0.19219098565E+02 -0.15453971439E+02  0.10068525131E+03  0.10366155900E+03  0.00000000000E+00 0. -1.
          1    1    1    2  501    0 -0.10672539065E+02  0.31407355577E+02  0.44394332499E+02  0.55418244582E+02  0.00000000000E+00 0. -1.
<scales pt_clust_5="13000.00000" pt_clust_6="13000.00000" pt_clust_7="13000.00000" pt_clust_8="13000.00000" pt_clust_9="33.17116"></scales>
<clustering>
<clus scale="   33.171">  2  9  1 -1</clus>
<clus scale="   88.991">  7  8 -1 -1</clus>
<clus scale="  101.421">  5  6 -1 -1</clus>
<clus scale="  107.022">  1  7  2 -1</clus>
<clus scale="   33.171">  2  5  1 -1</clus>
</clustering>
</event>
<event>
 9    1  0.1445593E-005  0.1081034E+03  0.7546771E-02  0.1265479E+00
         -1   -1    0    0    0  501 -0.00000000000E+00  0.00000000000E+00  0.33681978562E+03  0.33681978562E+03  0.00000000000E+00 0.  1.
         21   -1    0    0  501  502  0.00000000000E+00 -0.00000000000E+00 -0.12290866365E+03  0.12290866365E+03  0.00000000000E+00 0. -1.
         23    2    1    2    0    0 -0.24653084800E+02  0.43577169375E+02  0.22791165131E+03  0.25114409901E+03  0.92859535770E+02 0.  0.
         23    2    1    2    0    0  0.42990937050E+02 -0.29641427972E+02  0.64392504607E+02  0.12687786651E+03  0.96045632076E+02 0.  0.
        -11    1    3    3    0    0 -0.40584937418E+02 -0.15410611716E+02  0.78162786794E+02  0.89409425331E+02  0.00000000000E+00 0.  1.
         11    1    3    3    0    0  0.15931852618E+02  0.58987781091E+02  0.14974886452E+03  0.16173467368E+03  0.00000000000E+00 0. -1.
        -13    1    4    4    0    0  0.15477982249E+02  0.34934005927E+02  0.30717742605E+02  0.49025834163E+02  0.00000000000E+00 0. -1.
         13    1    4    4    0    0  0.27512954801E+02 -0.64575433899E+02  0.33674762002E+02  0.77852032350E+02  0.00000000000E+00 0.  1.
         -1    1    1    2    0  502 -0.18337852250E+02 -0.13935741403E+02 -0.78393033950E+02  0.81706483742E+02  0.00000000000E+00 0.  1.
<scales pt_clust_5="13000.00000" pt_clust_6="13000.00000" pt_clust_7="13000.00000" pt_clust_8="13000.00000" pt_clust_9="23.03219"></scales>
<clustering>
<clus scale="   23.032">  2  9  1 -1</clus>
<clus scale="   92.860">  5  6 -1 -1</clus>
<clus scale="   96.046">  7  8 -1 -1</clus>
<clus scale="  105.283">  1  5  2 -1</clus>
<clus scale="   23.032">  2  5  1 -1</clus>
</clustering>
</event>
<event>
 9    1  0.1445593E-005  0.9877015E+02  0.7546771E-02  0.1283596E+00
         21   -1    0    0  501  502  0.00000000000E+00  0.00000000000E+00  0.86230635924E+02  0.86230635924E+02  0.00000000000E+00 0.  1.
          4   -1    0    0  502    0 -0.00000000000E+00 -0.00000000000E+00 -0.24351138631E+03  0.24351138631E+03  0.00000000000E+00 0. -1.
         23    2    1    2    0    0 -0.33657716027E+01 -0.32708725899E+02 -0.14557992637E+03  0.17496818339E+03  0.91319007161E+02 0.  0.
         23    2    1    2    0    0 -0.14442209519E+02  0.48700470022E+02 -0.45907544922E+02  0.11302506848E+03  0.89926916040E+02 0.  0.
        -11    1    4    4    0    0 -0.18806375612E+02  0.70082332406E+02 -0.53245557167E+02  0.90001680191E+02  0.00000000000E+00 0. -1.
         11    1    4    4    0    0  0.43641660932E+01 -0.21381862384E+02  0.73380122455E+01  0.23023388291E+02  0.00000000000E+00 0.  1.
        -13    1    3    3    0    0 -0.17670709491E+02 -0.61552688872E+02 -0.85727629312E+02  0.10700567232E+03  0.00000000000E+00 0.  1.
         13    1    3    3    0    0  0.14304937888E+02  0.28843962973E+02 -0.59852297053E+02  0.67962511067E+02  0.00000000000E+00 0. -1.
          4    1    1    2  501    0  0.17807981121E+02 -0.15991744123E+02  0.34206720903E+02  0.41748770361E+02  0.00000000000E+00 0. -1.
<scales pt_clust_5="13000.00000" pt_clust_6="13000.00000" pt_clust_7="13000.00000" pt_clust_8="13000.00000" pt_clust_9="23.93450"></scales>
<clustering>
<clus scale="   23.934">  1  9  2 -1</clus>
<clus scale="   89.927">  5  6 -1 -1</clus>
<clus scale="   91.319">  7  8 -1 -1</clus>
<clus scale="   97.485">  1  5  2 -1</clus>
<clus scale="   23.934">  1  5  2 -1</clus>
</clustering>
</event>
<event>
 9    1  0.1445593E-005  0.9635736E+02  0.7546771E-02  0.1288932E+00
          3   -1    0    0  502    0 -0.00000000000E+00  0.00000000000E+00  0.60934559251E+03  0.60934559251E+03  0.00000000000E+00 0. -1.
         21   -1    0    0  501  502  0.00000000000E+00 -0.00000000000E+00 -0.22762110265E+02  0.22762110265E+02  0.00000000000E+00 0.  1.
         23    2    1    2    0    0  0.14123329396E+02 -0.36125020372E+02  0.39192610424E+03  0.40391742280E+03  0.89658952265E+02 0.  0.
         23    2    1    2    0    0 -0.54903677803E+00  0.17490787062E+02  0.17413337471E+03  0.19732394262E+03  0.91148653685E+02 0.  0.
        -11    1    4    4    0    0  0.70368937218E+01  0.46902706297E+02  0.47595773820E+02  0.67191810637E+02  0.00000000000E+00 0. -1.
         11    1    4    4    0    0 -0.75859304998E+01 -0.29411919234E+02  0.12653760089E+03  0.13013213198E+03  0.00000000000E+00 0.  1.
        -13    1    3    3    0    0  0.56755373165E+01 -0.59679606513E+02  0.34995587098E+03  0.35505348723E+03  0.00000000000E+00 0.  1.
         13    1    3    3    0    0  0.84477920797E+01  0.23554586141E+02  0.41970233258E+02  0.48863935566E+02  0.00000000000E+00 0. -1.
          3    1    1    2  501    0 -0.13574292618E+02  0.18634233309E+02  0.20524003297E+02  0.30866337367E+02  0.00000000000E+00 0. -1.
<scales pt_clust_5="13000.00000" pt_clust_6="13000.00000" pt_clust_7="13000.00000" pt_clust_8="13000.00000" pt_clust_9="23.05420"></scales>
<clustering>
<clus scale="   23.054">  2  9  1 -1</clus>
<clus scale="   89.659">  7  8 -1 -1</clus>
<clus scale="   91.149">  5  6 -1 -1</clus>
<clus scale="   94.949">  1  7  2 -1</clus>
<clus scale="   23.054">  2  5  1 -1</clus>
</clustering>
</event>
<event>
 9    1  0.1445593E-005  0.1015307E+03  0.7546771E-02  0.1278016E+00
         -2   -1    0    0    0  501 -0.00000000000E+00  0.00000000000E+00  0.46015883056E+02  0.46015883056E+02  0.00000000000E+00 0.  1.
         21   -1    0    0  501  502  0.00000000000E+00 -0.00000000000E+00 -0.40851617093E+03  0.40851617093E+03  0.00000000000E+00 0.  1.
         23    2    1    2    0    0 -0.30660390463E+02  0.56783518929E+01 -0.74418246723E+02  0.12274143591E+03  0.92493683144E+02 0.  0.
         23    2    1    2    0    0  0.51126368297E+02 -0.28964242289E+02 -0.12231516393E+03  0.16314973772E+03  0.90575961080E+02 0.  0.
        -11    1    3    3    0    0 -0.50429416814E+02  0.34409243814E+02 -0.36083537714E+02  0.70916456722E+02  0.00000000000E+00 0. -1.
         11    1    3    3    0    0  0.19769026352E+02 -0.28730891921E+02 -0.38334709009E+02  0.51824979192E+02  0.00000000000E+00 0.  1.
        -11    1    4    4    0    0  0.55493922268E+01 -0.36369748904E+02 -0.10907751971E+03  0.11511498467E+03  0.00000000000E+00 0. -1.
         11    1    4    4    0    0  0.45576976070E+02  0.74055066157E+01 -0.13237644210E+02  0.48034753046E+02  0.00000000000E+00 0.  1.
         -2    1    1    2    0  502 -0.20465977834E+02  0.23285890396E+02 -0.16576687723E+03  0.16864088035E+03  0.00000000000E+00 0.  1.
<scales pt_clust_5="13000.00000" pt_clust_6="13000.00000" pt_clust_7="13000.00000" pt_clust_8="13000.00000" pt_clust_9="31.00143"></scales>
<clustering>
<clus scale="   31.001">  2  9  1 -1</clus>
<clus scale="   90.576">  7  8 -1 -1</clus>
<clus scale="   92.494">  5  6 -1 -1</clus>
<clus scale="   99.787">  2  7  1 -1</clus>
<clus scale="   31.001">  2  5  1 -1</clus>
</clustering>
</event>
<event>
 9    1  0.1445593E-005  0.1125649E+03  0.7546771E-02  0.1256564E+00
          3   -1    0    0  502    0 -0.00000000000E+00  0.00000000000E+00  0.56212936651E+02  0.56212936651E+02  0.00000000000E+00 0. -1.
         21   -1    0    0  501  502  0.00000000000E+00 -0.00000000000E+00 -0.44396491874E+03  0.44396491874E+03  0.00000000000E+00 0. -1.
         23    2    1    2    0    0  0.30101268313E+02 -0.34262195899E+02 -0.92415094184E+02  0.13853069666E+03  0.92575481966E+02 0.  0.
         23    2    1    2    0    0 -0.47016134451E+02  0.69221890280E+02 -0.90270423055E+02  0.15293552050E+03  0.90765286096E+02 0.  0.
        -11    1    4    4    0    0  0.18597393945E+02  0.35024294954E+02 -0.48902764747E+01  0.39955964543E+02  0.00000000000E+00 0. -1.
         11    1    4    4    0    0 -0.65613528395E+02  0.34197595326E+02 -0.85380146580E+02  0.11297955596E+03  0.00000000000E+00 0.  1.
        -11    1    3    3    0    0  0.18492280619E+02 -0.65942901659E+02 -0.70550686835E+02  0.98325124636E+02  0.00000000000E+00 0. -1.
         11    1    3    3    0    0  0.11608987695E+02  0.31680705761E+02 -0.21864407349E+02  0.40205572021E+02  0.00000000000E+00 0.  1.
          3    1    1    2  501    0  0.16914866137E+02 -0.34959694381E+02 -0.20506646485E+03  0.20871163824E+03  0.00000000000E+00 0. -1.
<scales pt_clust_5="13000.00000" pt_clust_6="13000.00000" pt_clust_7="13000.00000" pt_clust_8="13000.00000" pt_clust_9="38.83675"></scales>
<clustering>
<clus scale="   38.837">  2  9  1 -1</clus>
<clus scale="   90.765">  5  6 -1 -1</clus>
<clus scale="   92.575">  7  8 -1 -1</clus>
<clus scale="  111.081">  2  5  1 -1</clus>
<clus scale="   38.837">  2  5  1 -1</clus>
</clustering>
</event>
<event>
 9    1  0.1445593E-005  0.1013921E+03  0.7546771E-02  0.1277469E+00
         21   -1    0    0  501  502  0.00000000000E+00  0.00000000000E+00  0.97747292479E+02  0.97747292479E+02  0.00000000000E+00 0.  1.
         -2   -1    0    0    0  501 -0.00000000000E+00 -0.00000000000E+00 -0.19276114672E+03  0.19276114672E+03  0.00000000000E+00 0.  1.
         23    2    1    2    0    0  0.47856559677E+02  0.23477918048E+02 -0.11380927194E+03  0.15456141112E+03  0.89973421011E+02 0.  0.
         23    2    1    2    0    0 -0.20975705493E+02 -0.28947470463E+02 -0.87638622187E+01  0.97062452277E+02  0.89813017396E+02 0.  0.
        -11    1    3    3    0    0  0.87916979236E+01 -0.21648103944E+02 -0.85251060524E+02  0.88395009346E+02  0.00000000000E+00 0.  1.
         11    1    3    3    0    0  0.39064861754E+02  0.45126021992E+02 -0.28558211413E+02  0.66166401774E+02  0.00000000000E+00 0. -1.
        -13    1    4    4    0    0  0.35043112369E+02 -0.18418958242E+02 -0.16820479481E+01  0.39624576118E+02  0.00000000000E+00 0.  1.
         13    1    4    4    0    0 -0.56018817862E+02 -0.10528512222E+02 -0.70818142706E+01  0.57437876159E+02  0.00000000000E+00 0. -1.
         -2    1    1    2    0  502 -0.26880854184E+02  0.54695524158E+01  0.27559279920E+02  0.38884575798E+02  0.00000000000E+00 0.  1.
<scales pt_clust_5="13000.00000" pt_clust_6="13000.00000" pt_clust_7="13000.00000" pt_clust_8="13000.00000" pt_clust_9="27.43167"></scales>
<clustering>
<clus scale="   27.432">  1  9  2 -1</clus>
<clus scale="   89.813">  7  8 -1 -1</clus>
<clus scale="   89.973">  5  6 -1 -1</clus>
<clus scale="  101.250">  1  7  2 -1</clus>
<clus scale="   27.432">  1  5  2 -1</clus>
</clustering>
</event>
<event>
 9    1  0.1445593E-005  0.1458976E+03  0.7546771E-02  0.1226751E+00
         21   -1    0    0  501  502  0.00000000000E+00  0.00000000000E+00  0.42107627566E+02  0.42107627566E+02  0.00000000000E+00 0. -1.
          1   -1    0    0  502    0 -0.00000000000E+00 -0.00000000000E+00 -0.77576235197E+03  0.77576235197E+03  0.00000000000E+00 0. -1.
         23    2    1    2    0    0 -0.17353275896E+02 -0.11537080565E+02 -0.25288490195E+03  0.26955470272E+03  0.90965508358E+02 0.  0.
         23    2    1    2    0    0  0.33362436572E+02  0.12010594539E+03 -0.29681811223E+03  0.33411508230E+03  0.89405850958E+02 0.  0.
        -11    1    4    4    0    0  0.16953269606E+02  0.21570413937E+02 -0.81022041290E+01  0.28606674388E+02  0.00000000000E+00 0.  1.
         11    1    4    4    0    0  0.16409166965E+02  0.98535531449E+02 -0.28871590810E+03  0.30550840792E+03  0.00000000000E+00 0. -1.
        -13    1    3    3    0    0 -0.52764340116E+02 -0.15237333647E+02 -0.18387359718E+03  0.19190036911E+03  0.00000000000E+00 0.  1.
         13    1    3    3    0    0  0.35411064220E+02  0.37002530821E+01 -0.69011304770E+02  0.77654333608E+02  0.00000000000E+00 0. -1.
          1    1    1    2  501    0 -0.16009160676E+02 -0.10856886482E+03 -0.18395171022E+03  0.21420019451E+03  0.00000000000E+00 0. -1.
<scales pt_clust_5="13000.00000" pt_clust_6="13000.00000" pt_clust_7="13000.00000" pt_clust_8="13000.00000" pt_clust_9="115.29396"></scales>
<clustering>
<clus scale="   89.406">  5  6 -1 -1</clus>
<clus scale="   90.966">  7  8 -1 -1</clus>
<clus scale="   93.322">  2  7  1 -1</clus>
<clus scale="  115.294">  1  9  2 -1</clus>
<clus scale="  115.294">  1  5  2 -1</clus>
</clustering>
</event>
<event>
 9    1  0.1445593E-005  0.9539354E+02  0.7546771E-02  0.1292131E+00
         21   -1    0    0  501  502  0.00000000000E+00  0.00000000000E+00  0.44847331349E+02  0.44847331349E+02  0.00000000000E+00 0. -1.
          4   -1    0    0  502    0 -0.00000000000E+00 -0.00000000000E+00 -0.31718832857E+03  0.31718832857E+03  0.00000000000E+00 0. -1.
         23    2    1    2    0    0  0.11326502891E+02 -0.10366279973E+02 -0.15867082183E+03  0.18570724155E+03  0.95262796700E+02 0.  0.
         23    2    1    2    0    0  0.24092394831E+02 -0.52039715477E+01 -0.89417759143E+02  0.13066540552E+03  0.92034709440E+02 0.  0.
        -11    1    3    3    0    0  0.48045836557E+02  0.16278043249E+02 -0.92116116399E+02  0.10516062002E+03  0.00000000000E+00 0.  1.
         11    1    3    3    0    0 -0.36719333665E+02 -0.26644323221E+02 -0.66554705435E+02  0.80546621532E+02  0.00000000000E+00 0. -1.
        -11    1    4    4    0    0 -0.20592952241E+01 -0.31555670301E+02 -0.88003554647E+02  0.93512708524E+02  0.00000000000E+00 0.  1.
         11    1    4    4    0    0  0.26151690055E+02  0.26351698753E+02 -0.14142044953E+01  0.37152696998E+02  0.00000000000E+00 0. -1.
          4    1    1    2  501    0 -0.35418897722E+02  0.15570251520E+02 -0.24252416243E+02  0.45663012843E+02  0.00000000000E+00 0. -1.
<scales pt_clust_5="13000.00000" pt_clust_6="13000.00000" pt_clust_7="13000.00000" pt_clust_8="13000.00000" pt_clust_9="38.69019"></scales>
<clustering>
<clus scale="   38.690">  1  9  2 -1</clus>
<clus scale="   92.035">  7  8 -1 -1</clus>
<clus scale="   92.170">  1  7  2 -1</clus>
<clus scale="   95.263">  5  6 -1 -1</clus>
<clus scale="   38.690">  1  5  2 -1</clus>
</clustering>
</event>
<event>
 9    1  0.1445593E-005  0.1521231E+03  0.7546771E-02  0.1201077E+00
         21   -1    0    0  501  502  0.00000000000E+00  0.00000000000E+00  0.79314890461E+02  0.79314890461E+02  0.00000000000E+00 0. -1.
          2   -1    0    0  502    0 -0.00000000000E+00 -0.00000000000E+00 -0.77934873260E+03  0.77934873260E+03  0.00000000000E+00 0. -1.
         23    2    1    2    0    0  0.14999469307E+03 -0.44123079738E+01 -0.52836602465E+03  0.55710632366E+03  0.93160739863E+02 0.  0.
         23    2    1    2    0    0 -0.87946160666E+02  0.64146530150E+01 -0.20163150906E+03  0.23262361698E+03  0.75384393493E+02 0.  0.
        -11    1    3    3    0    0  0.12346907349E+03 -0.36897654670E+02 -0.45165930172E+03  0.46968305681E+03  0.00000000000E+00 0. -1.
         11    1    3    3    0    0  0.26525619579E+02  0.32485346696E+02 -0.76706722933E+02  0.87423266853E+02  0.00000000000E+00 0.  1.
        -13    1    4    4    0    0 -0.55920499973E+02 -0.29587031083E+02 -0.14542399450E+03  0.15858951069E+03  0.00000000000E+00 0.  1.
         13    1    4    4    0    0 -0.32025660693E+02  0.36001684098E+02 -0.56207514556E+02  0.74034106284E+02  0.00000000000E+00 0. -1.
          2    1    1    2  501    0 -0.62048532399E+02 -0.20023450412E+01  0.29963691573E+02  0.68933682415E+02  0.00000000000E+00 0. -1.
<scales pt_clust_5="13000.00000" pt_clust_6="13000.00000" pt_clust_7="13000.00000" pt_clust_8="13000.00000" pt_clust_9="62.08083"></scales>
<clustering>
<clus scale="   62.081">  1  9  2 -1</clus>
<clus scale="   75.384">  7  8 -1 -1</clus>
<clus scale="   93.161">  5  6 -1 -1</clus>
<clus scale="  141.934">  1  7  2 -1</clus>
<clus scale="   62.081">  1  5  2 -1</clus>
</clustering>
</event>
<event>
 9    1  0.1445593E-005  0.1031961E+03  0.7546771E-02  0.1274442E+00
         21   -1    0    0  501  502  0.00000000000E+00  0.00000000000E+00  0.97212881783E+02  0.97212881783E+02  0.00000000000E+00 0. -1.
          1   -1    0    0  502    0 -0.00000000000E+00 -0.00000000000E+00 -0.19584223743E+03  0.19584223743E+03  0.00000000000E+00 0. -1.
         23    2    1    2    0    0 -0.31838160228E+02  0.66898481965E+01 -0.62328489499E+02  0.11681449097E+03  0.93286452290E+02 0.  0.
         23    2    1    2    0    0  0.57348047907E+02  0.12269067398E+02 -0.70395291484E+02  0.12962920595E+03  0.91700083747E+02 0.  0.
        -13    1    3    3    0    0  0.21281485050E+02  0.29732912236E+02 -0.80300876831E+01  0.37435677958E+02  0.00000000000E+00 0. -1.
         13    1    3    3    0    0 -0.53119645278E+02 -0.23043064040E+02 -0.54298401816E+02  0.79378813008E+02  0.00000000000E+00 0.  1.
        -13    1    4    4    0    0  0.34914010052E+02  0.13335434383E+02  0.15784741473E+02  0.40570678716E+02  0.00000000000E+00 0.  1.
         13    1    4    4    0    0  0.22434037854E+02 -0.10663669842E+01 -0.86180032957E+02  0.89058527236E+02  0.00000000000E+00 0. -1.
          1    1    1    2  501    0 -0.25509887679E+02 -0.18958915595E+02  0.34094425333E+02  0.46611422298E+02  0.00000000000E+00 0. -1.
<scales pt_clust_5="13000.00000" pt_clust_6="13000.00000" pt_clust_7="13000.00000" pt_clust_8="13000.00000" pt_clust_9="31.78356"></scales>
<clustering>
<clus scale="   31.784">  1  9  2 -1</clus>
<clus scale="   91.700">  7  8 -1 -1</clus>
<clus scale="   93.286">  5  6 -1 -1</clus>
<clus scale="  101.764">  1  7  2 -1</clus>
<clus scale="   31.784">  1  5  2 -1</clus>
</clustering>
</event>
<event>
 9    1  0.1445593E-005  0.1534920E+03  0.7546771E-02  0.1196443E+00
         21   -1    0    0  501  502  0.00000000000E+00  0.00000000000E+00  0.72450935724E+03  0.72450935724E+03  0.00000000000E+00 0. -1.
         -1   -1    0    0    0  501 -0.00000000000E+00 -0.00000000000E+00 -0.91597647949E+02  0.91597647949E+02  0.00000000000E+00 0.  1.
         23    2    1    2    0    0  0.12574542784E+02 -0.12510316255E+03  0.39718278792E+01  0.15425762680E+03  0.89278886654E+02 0.  0.
         23    2    1    2    0    0 -0.53017885320E+02  0.10971100663E+03  0.37987371933E+03  0.40905195849E+03  0.90399452225E+02 0.  0.
        -11    1    3    3    0    0  0.78463017892E+01 -0.88510470183E+02 -0.39497392605E+02  0.97240484400E+02  0.00000000000E+00 0.  1.
         11    1    3    3    0    0  0.47282409949E+01 -0.36592692365E+02  0.43469220485E+02  0.57017142396E+02  0.00000000000E+00 0. -1.
        -13    1    4    4    0    0 -0.71866058788E+01  0.10063663404E+03  0.21176339600E+03  0.23457006480E+03  0.00000000000E+00 0. -1.
         13    1    4    4    0    0 -0.45831279441E+02  0.90743725857E+01  0.16811032333E+03  0.17448189368E+03  0.00000000000E+00 0.  1.
         -1    1    1    2    0  502  0.40443342536E+02  0.15392155922E+02  0.24906616208E+03  0.25279741991E+03  0.00000000000E+00 0.  1.
<scales pt_clust_5="13000.00000" pt_clust_6="13000.00000" pt_clust_7="13000.00000" pt_clust_8="13000.00000" pt_clust_9="43.27335"></scales>
<clustering>
<clus scale="   43.273">  1  9  2 -1</clus>
<clus scale="   89.279">  5  6 -1 -1</clus>
<clus scale="   90.399">  7  8 -1 -1</clus>
<clus scale="  152.835">  2  5  1 -1</clus>
<clus scale="   43.273">  1  5  2 -1</clus>
</clustering>
</event>
<event>
 9    1  0.1445593E-005  0.1106303E+03  0.7546771E-02  0.1259549E+00
         21   -1    0    0  501  502  0.00000000000E+00  0.00000000000E+00  0.16524468288E+02  0.16524468288E+02  0.00000000000E+00 0.  1.
          1   -1    0    0  502    0 -0.00000000000E+00 -0.00000000000E+00 -0.10434081042E+04  0.10434081042E+04  0.00000000000E+00 0. -1.
         23    2    1    2    0    0  0.23727522674E+02  0.49493361291E+02 -0.46882810242E+03  0.48067174730E+03  0.90735609824E+02 0.  0.
         23    2    1    2    0    0 -0.54629209925E+02 -0.54772940758E+02 -0.37642450231E+03  0.39494419620E+03  0.91110298830E+02 0.  0.
        -13    1    3    3    0    0 -0.28624195680E+02 -0.65044434199E+01 -0.13524757071E+03  0.13839637909E+03  0.00000000000E+00 0.  1.
         13    1    3    3    0    0  0.52351718354E+02  0.55997804711E+02 -0.33358053171E+03  0.34227536821E+03  0.00000000000E+00 0. -1.
        -13    1    4    4    0    0 -0.10770110301E+02  0.23127316837E+02 -0.13740368773E+03  0.13975207140E+03  0.00000000000E+00 0. -1.
         13    1    4    4    0    0 -0.43859099624E+02 -0.77900257595E+02 -0.23902081459E+03  0.25519212480E+03  0.00000000000E+00 0.  1.
          1    1    1    2  501    0  0.30901687251E+02  0.52795794665E+01 -0.18163103116E+03  0.18431662897E+03  0.00000000000E+00 0. -1.
<scales pt_clust_5="13000.00000" pt_clust_6="13000.00000" pt_clust_7="13000.00000" pt_clust_8="13000.00000" pt_clust_9="31.34947"></scales>
<clustering>
<clus scale="   31.349">  1  9  2 -1</clus>
<clus scale="   90.736">  5  6 -1 -1</clus>
<clus scale="   91.110">  7  8 -1 -1</clus>
<clus scale="  110.322">  2  5  1 -1</clus>
<clus scale="   31.349">  1  5  2 -1</clus>
</clustering>
</event>
<event>
 9    1  0.1445593E-005  0.3480785E+03  0.7546771E-02  0.1064402E+00
          3   -1    0    0  502    0 -0.00000000000E+00  0.00000000000E+00  0.36118713534E+03  0.36118713534E+03  0.00000000000E+00 0. -1.
         21   -1    0    0  501  502  0.00000000000E+00 -0.00000000000E+00 -0.47128307268E+03  0.47128307268E+03  0.00000000000E+00 0. -1.
         23    2    1    2    0    0 -0.31047304830E+03  0.41668217026E+02  0.82915633344E+02  0.33594811220E+03  0.88636210475E+02 0.  0.
         23    2    1    2    0    0  0.36166673260E+03  0.13427497805E+02 -0.17313851351E+03  0.41873218962E+03  0.11990237111E+03 0.  0.
        -13    1    4    4    0    0  0.92466075251E+02 -0.34594324119E+02 -0.88221977156E+02  0.13240037608E+03  0.00000000000E+00 0.  1.
         13    1    4    4    0    0  0.26920065735E+03  0.48021821924E+02 -0.84916536352E+02  0.28633181354E+03  0.00000000000E+00 0. -1.
        -13    1    3    3    0    0 -0.28162263735E+03  0.51599963281E+02  0.97062417341E+02  0.30231602495E+03  0.00000000000E+00 0. -1.
         13    1    3    3    0    0 -0.28850410946E+02 -0.99317462552E+01 -0.14146783997E+02  0.33632087251E+02  0.00000000000E+00 0.  1.
          3    1    1    2  501    0 -0.51193684302E+02 -0.55095714831E+02 -0.19873057173E+02  0.77789906200E+02  0.00000000000E+00 0. -1.
<scales pt_clust_5="13000.00000" pt_clust_6="13000.00000" pt_clust_7="13000.00000" pt_clust_8="13000.00000" pt_clust_9="75.20858"></scales>
<clustering>
<clus scale="   75.209">  2  9  1 -1</clus>
<clus scale="   88.636">  7  8 -1 -1</clus>
<clus scale="  119.902">  5  6 -1 -1</clus>
<clus scale="  338.583">  1  7  2 -1</clus>
<clus scale="   75.209">  2  5  1 -1</clus>
</clustering>
</event>
<event>
 9    1  0.1445593E-005  0.1280067E+03  0.7546771E-02  0.1234411E+00
         21   -1    0    0  501  502  0.00000000000E+00  0.00000000000E+00  0.25571462993E+02  0.25571462993E+02  0.00000000000E+00 0.  1.
          1   -1    0    0  502    0 -0.00000000000E+00 -0.00000000000E+00 -0.96070026355E+03  0.96070026355E+03  0.00000000000E+00 0. -1.
         23    2    1    2    0    0  0.59100215671E+02  0.35947758094E+02 -0.41133913213E+03  0.42714222732E+03  0.92008281870E+02 0.  0.
         23    2    1    2    0    0 -0.87476389737E+02  0.44282070792E+01 -0.45110408071E+03  0.47127381938E+03  0.10455808637E+03 0.  0.
        -11    1    3    3    0    0  0.50947557284E+02 -0.14959565933E+02 -0.11924149718E+03  0.13052960145E+03  0.00000000000E+00 0. -1.
         11    1    3    3    0    0  0.81526583865E+01  0.50907324027E+02 -0.29209763495E+03  0.29661262587E+03  0.00000000000E+00 0.  1.
        -13    1    4    4    0    0 -0.18487857631E+02  0.50260416352E+02 -0.18098191254E+03  0.18873887516E+03  0.00000000000E+00 0. -1.
         13    1    4    4    0    0 -0.68988532106E+02 -0.45832209273E+02 -0.27012216817E+03  0.28253494422E+03  0.00000000000E+00 0.  1.
          1    1    1    2  501    0  0.28376174066E+02 -0.40375965173E+02 -0.72685587717E+02  0.87855679840E+02  0.00000000000E+00 0. -1.
<scales pt_clust_5="13000.00000" pt_clust_6="13000.00000" pt_clust_7="13000.00000" pt_clust_8="13000.00000" pt_clust_9="49.35003"></scales>
<clustering>
<clus scale="   49.350">  1  9  2 -1</clus>
<clus scale="   92.008">  5  6 -1 -1</clus>
<clus scale="  104.558">  7  8 -1 -1</clus>
<clus scale="  117.978">  2  5  1 -1</clus>
<clus scale="   49.350">  1  5  2 -1</clus>
</clustering>
</event>
<event>
 9    1  0.1445593E-005  0.1008332E+03  0.7546771E-02  0.1278758E+00
         21   -1    0    0  501  502  0.00000000000E+00  0.00000000000E+00  0.11281948693E+03  0.11281948693E+03  0.00000000000E+00 0. -1.
         -4   -1    0    0    0  501 -0.00000000000E+00 -0.00000000000E+00 -0.15813728744E+03  0.15813728744E+03  0.00000000000E+00 0.  1.
         23    2    1    2    0    0 -0.18965765633E+02  0.21501824822E+02 -0.52379187455E+02  0.11004481065E+03  0.92435125012E+02 0.  0.
         23    2    1    2    0    0  0.42573567151E+02 -0.37548882988E+02 -0.31803399976E+02  0.11269051589E+03  0.92006895874E+02 0.  0.
        -11    1    4    4    0    0  0.54784858528E+02 -0.84609333865E+01  0.13905654092E+02  0.57151862029E+02  0.00000000000E+00 0. -1.
         11    1    4    4    0    0 -0.12211291376E+02 -0.29087949601E+02 -0.45709054068E+02  0.55538653863E+02  0.00000000000E+00 0.  1.
        -13    1    3    3    0    0  0.24445917527E+02 -0.13545966412E+02 -0.46084996423E+02  0.53897337458E+02  0.00000000000E+00 0. -1.
         13    1    3    3    0    0 -0.43411683160E+02  0.35047791234E+02 -0.62941910319E+01  0.56147473193E+02  0.00000000000E+00 0.  1.
         -4    1    1    2    0  502 -0.23607801518E+02  0.16047058165E+02  0.38864786917E+02  0.48221447825E+02  0.00000000000E+00 0.  1.
<scales pt_clust_5="13000.00000" pt_clust_6="13000.00000" pt_clust_7="13000.00000" pt_clust_8="13000.00000" pt_clust_9="28.54534"></scales>
<clustering>
<clus scale="   28.545">  1  9  2 -1</clus>
<clus scale="   92.007">  5  6 -1 -1</clus>
<clus scale="   92.435">  7  8 -1 -1</clus>
<clus scale="  100.441">  1  5  2 -1</clus>
<clus scale="   28.545">  1  5  2 -1</clus>
</clustering>
</event>
<event>
 9    1  0.1445593E-005  0.2454730E+03  0.7546771E-02  0.1154941E+00
         -3   -1    0    0    0  501 -0.00000000000E+00  0.00000000000E+00  0.71168333543E+03  0.71168333543E+03  0.00000000000E+00 0.  1.
         21   -1    0    0  501  502  0.00000000000E+00 -0.00000000000E+00 -0.26883541148E+03  0.26883541148E+03  0.00000000000E+00 0.  1.
         23    2    1    2    0    0  0.26338603754E+02  0.39740570333E+02  0.83946410261E+02  0.12728280177E+03  0.82951050942E+02 0.  0.
         23    2    1    2    0    0 -0.22597333102E+03  0.65707375081E+02  0.51812371992E+03  0.57696614136E+03  0.95164771059E+02 0.  0.
        -11    1    3    3    0    0 -0.27870319237E+02  0.41508497024E+01  0.12591457965E+02  0.30863069538E+02  0.00000000000E+00 0.  1.
         11    1    3    3    0    0  0.54208922991E+02  0.35589720630E+02  0.71354952295E+02  0.96419732230E+02  0.00000000000E+00 0. -1.
        -11    1    4    4    0    0 -0.69615850850E+02 -0.16696256099E+02  0.20850396353E+03  0.22045188696E+03  0.00000000000E+00 0. -1.
         11    1    4    4    0    0 -0.15635748017E+03  0.82403631179E+02  0.30961975640E+03  0.35651425440E+03  0.00000000000E+00 0.  1.
         -3    1    1    2    0  502  0.19963472727E+03 -0.10544794541E+03 -0.15922220623E+03  0.27626980378E+03  0.00000000000E+00 0.  1.
<scales pt_clust_5="13000.00000" pt_clust_6="13000.00000" pt_clust_7="13000.00000" pt_clust_8="13000.00000" pt_clust_9="226.27562"></scales>
<clustering>
<clus scale="   82.951">  5  6 -1 -1</clus>
<clus scale="   95.165">  7  8 -1 -1</clus>
<clus scale="   95.676">  1  5  2 -1</clus>
<clus scale="  226.276">  2  9  1 -1</clus>
<clus scale="  226.276">  2  5  1 -1</clus>
</clustering>
</event>
<event>
 9    1  0.1445593E-005  0.1264198E+03  0.7546771E-02  0.1243481E+00
          1   -1    0    0  502    0 -0.00000000000E+00  0.00000000000E+00  0.54245273986E+03  0.54245273986E+03  0.00000000000E+00 0. -1.
         21   -1    0    0  501  502  0.00000000000E+00 -0.00000000000E+00 -0.74473436790E+02  0.74473436790E+02  0.00000000000E+00 0.  1.
         23    2    1    2    0    0  0.37972615260E+02 -0.34197708102E+01  0.31524271691E+03  0.33854165778E+03  0.11738342789E+03 0.  0.
         23    2    1    2    0    0 -0.37983004096E+02  0.63958428093E+02  0.17779258084E+03  0.21286557503E+03  0.90377885049E+02 0.  0.
        -13    1    4    4    0    0  0.24595679017E+02  0.23607124100E+02  0.97843781908E+02  0.10361297888E+03  0.00000000000E+00 0. -1.
         13    1    4    4    0    0 -0.62578683114E+02  0.40351303992E+02  0.79948798935E+02  0.10925259615E+03  0.00000000000E+00 0.  1.
        -13    1    3    3    0    0  0.44550252299E+01 -0.47742518013E+02  0.57466055252E+02  0.74843455173E+02  0.00000000000E+00 0.  1.
         13    1    3    3    0    0  0.33517590030E+02  0.44322747203E+02  0.25777666166E+03  0.26369820260E+03  0.00000000000E+00 0. -1.
          1    1    1    2  501    0  0.10388836636E-01 -0.60538657282E+02 -0.25055994678E+02  0.65518943847E+02  0.00000000000E+00 0. -1.
<scales pt_clust_5="13000.00000" pt_clust_6="13000.00000" pt_clust_7="13000.00000" pt_clust_8="13000.00000" pt_clust_9="60.53866"></scales>
<clustering>
<clus scale="   60.539">  2  9  1 -1</clus>
<clus scale="   90.378">  5  6 -1 -1</clus>
<clus scale="  101.839">  2  5  1 -1</clus>
<clus scale="  117.383">  7  8 -1 -1</clus>
<clus scale="   60.539">  2  5  1 -1</clus>
</clustering>
</event>
<event>
 9    1  0.1445593E-005  0.9825677E+02  0.7546771E-02  0.1285918E+00
         21   -1    0    0  501  502  0.00000000000E+00  0.00000000000E+00  0.39212923499E+03  0.39212923499E+03  0.00000000000E+00 0.  1.
          1   -1    0    0  502    0 -0.00000000000E+00 -0.00000000000E+00 -0.71621539573E+02  0.71621539573E+02  0.00000000000E+00 0. -1.
         23    2    1    2    0    0  0.16049310324E+02 -0.24613889704E+02 -0.23494003393E+02  0.97717077025E+02  0.90184449982E+02 0.  0.
         23    2    1    2    0    0  0.39224762193E+01  0.33711737389E+02  0.30906991233E+03  0.32477993654E+03  0.93839913733E+02 0.  0.
        -11    1    4    4    0    0  0.30413347632E+02  0.48165241973E+02  0.26698201837E+03  0.27299131925E+03  0.00000000000E+00 0.  1.
         11    1    4    4    0    0 -0.26490871413E+02 -0.14453504584E+02  0.42087893959E+02  0.51788617290E+02  0.00000000000E+00 0. -1.
        -13    1    3    3    0    0  0.13807074851E+02  0.33427818970E+02 -0.14382151753E+02  0.38921725117E+02  0.00000000000E+00 0.  1.
         13    1    3    3    0    0  0.22422354734E+01 -0.58041708674E+02 -0.91118516401E+01  0.58795351908E+02  0.00000000000E+00 0. -1.
          1    1    1    2  501    0 -0.19971786543E+02 -0.90978476857E+01  0.34931786474E+02  0.41253760999E+02  0.00000000000E+00 0. -1.
<scales pt_clust_5="13000.00000" pt_clust_6="13000.00000" pt_clust_7="13000.00000" pt_clust_8="13000.00000" pt_clust_9="21.94637"></scales>
<clustering>
<clus scale="   21.946">  1  9  2 -1</clus>
<clus scale="   90.184">  7  8 -1 -1</clus>
<clus scale="   93.840">  5  6 -1 -1</clus>
<clus scale="   94.772">  2  7  1 -1</clus>
<clus scale="   21.946">  1  5  2 -1</clus>
</clustering>
</event>
<event>
 9    1  0.1445593E-005  0.1789523E+03  0.7546771E-02  0.1173841E+00
         21   -1    0    0  501  502  0.00000000000E+00  0.00000000000E+00  0.29896213585E+03  0.29896213585E+03  0.00000000000E+00 0. -1.
          3   -1    0    0  502    0 -0.00000000000E+00 -0.00000000000E+00 -0.29940607288E+03  0.29940607288E+03  0.00000000000E+00 0. -1.
         23    2    1    2    0    0  0.10380166876E+03  0.14893005498E+03 -0.16842476566E+03  0.27646129169E+03  0.12291865766E+03 0.  0.
         23    2    1    2    0    0 -0.59146801774E+02 -0.47535412635E+02 -0.12565563097E+01  0.11962932782E+03  0.92475064353E+02 0.  0.
        -11    1    3    3    0    0  0.51900299741E+02  0.24503762572E+02  0.40626501888E+01  0.57537645241E+02  0.00000000000E+00 0.  1.
         11    1    3    3    0    0  0.51901369024E+02  0.12442629240E+03 -0.17248741585E+03  0.21892364645E+03  0.00000000000E+00 0. -1.
        -11    1    4    4    0    0 -0.49912449155E+01 -0.62824156294E+02 -0.50852245377E+01  0.63226945589E+02  0.00000000000E+00 0.  1.
         11    1    4    4    0    0 -0.54155556858E+02  0.15288743659E+02  0.38286682281E+01  0.56402382234E+02  0.00000000000E+00 0. -1.
          3    1    1    2  501    0 -0.44654866991E+02 -0.10139464234E+03  0.16923738493E+03  0.20227758922E+03  0.00000000000E+00 0. -1.
<scales pt_clust_5="13000.00000" pt_clust_6="13000.00000" pt_clust_7="13000.00000" pt_clust_8="13000.00000" pt_clust_9="110.79229"></scales>
<clustering>
<clus scale="   92.475">  7  8 -1 -1</clus>
<clus scale="  110.792">  1  9  2 -1</clus>
<clus scale="  122.919">  5  6 -1 -1</clus>
<clus scale="  159.582">  1  7  2 -1</clus>
<clus scale="  110.792">  1  5  2 -1</clus>
</clustering>
</event>
<event>
 9    1  0.1445593E-005  0.9612366E+02  0.7546771E-02  0.1290125E+00
         21   -1    0    0  501  502  0.00000000000E+00  0.00000000000E+00  0.63317739292E+02  0.63317739292E+02  0.00000000000E+00 0. -1.
          1   -1    0    0  502    0 -0.00000000000E+00 -0.00000000000E+00 -0.73957328841E+03  0.73957328841E+03  0.00000000000E+00 0. -1.
         23    2    1    2    0    0  0.16354276334E+02 -0.15663370025E+02 -0.47370994448E+03  0.48355947925E+03  0.94423805036E+02 0.  0.
         23    2    1    2    0    0 -0.18646326741E+02 -0.12860036455E+02 -0.24811973213E+03  0.26551854528E+03  0.91780337653E+02 0.  0.
        -11    1    3    3    0    0 -0.37456489943E+02  0.80173718942E+01 -0.18439300573E+03  0.18832962447E+03  0.00000000000E+00 0.  1.
         11    1    3    3    0    0  0.53810766277E+02 -0.23680741919E+02 -0.28931693875E+03  0.29522985478E+03  0.00000000000E+00 0. -1.
        -13    1    4    4    0    0  0.21079202563E+02 -0.40827217602E+02 -0.12176711757E+03  0.13014770608E+03  0.00000000000E+00 0. -1.
         13    1    4    4    0    0 -0.39725529304E+02  0.27967181147E+02 -0.12635261456E+03  0.13537083920E+03  0.00000000000E+00 0.  1.
          1    1    1    2  501    0  0.22920504074E+01  0.28523406480E+02  0.45574127497E+02  0.53813003163E+02  0.00000000000E+00 0. -1.
<scales pt_clust_5="13000.00000" pt_clust_6="13000.00000" pt_clust_7="13000.00000" pt_clust_8="13000.00000" pt_clust_9="28.61535"></scales>
<clustering>
<clus scale="   28.615">  1  9  2 -1</clus>
<clus scale="   91.780">  7  8 -1 -1</clus>
<clus scale="   93.528">  1  7  2 -1</clus>
<clus scale="   94.424">  5  6 -1 -1</clus>
<clus scale="   28.615">  1  5  2 -1</clus>
</clustering>
</event>
<event>
 9    1  0.1445593E-005  0.1032919E+03  0.7546771E-02  0.1273973E+00
          1   -1    0    0  502    0 -0.00000000000E+00  0.00000000000E+00  0.22465765959E+03  0.22465765959E+03  0.00000000000E+00 0. -1.
         21   -1    0    0  501  502  0.00000000000E+00 -0.00000000000E+00 -0.16764470581E+03  0.16764470581E+03  0.00000000000E+00 0. -1.
         23    2    1    2    0    0 -0.35104833270E+02 -0.57924085176E+02  0.92935197189E+02  0.14702385965E+03  0.91605215285E+02 0.  0.
         23    2    1    2    0    0  0.44142390056E+02 -0.13936409568E+02  0.64116897108E+02  0.12177369705E+03  0.92601742360E+02 0.  0.
        -11    1    4    4    0    0 -0.18882595007E+02 -0.29297726530E+02  0.74594518417E+01  0.35644811626E+02  0.00000000000E+00 0. -1.
         11    1    4    4    0    0  0.63024985063E+02  0.15361316962E+02  0.56657445267E+02  0.86128885429E+02  0.00000000000E+00 0.  1.
        -13    1    3    3    0    0  0.24196891661E+02 -0.72045394340E+01 -0.54777955559E+00  0.25252623962E+02  0.00000000000E+00 0.  1.
         13    1    3    3    0    0 -0.59301724931E+02 -0.50719545742E+02  0.93482976744E+02  0.12177123569E+03  0.00000000000E+00 0. -1.
          1    1    1    2  501    0 -0.90375567862E+01  0.71860494744E+02 -0.10003914052E+03  0.12350480870E+03  0.00000000000E+00 0. -1.
<scales pt_clust_5="13000.00000" pt_clust_6="13000.00000" pt_clust_7="13000.00000" pt_clust_8="13000.00000" pt_clust_9="72.42657"></scales>
<clustering>
<clus scale="   72.427">  2  9  1 -1</clus>
<clus scale="   91.605">  7  8 -1 -1</clus>
<clus scale="   92.602">  5  6 -1 -1</clus>
<clus scale="  102.399">  1  7  2 -1</clus>
<clus scale="   72.427">  2  5  1 -1</clus>
</clustering>
</event>
<event>
 9    1  0.1445593E-005  0.1399344E+03  0.7546771E-02  0.1230740E+00
         21   -1    0    0  501  502  0.00000000000E+00  0.00000000000E+00  0.65753390941E+03  0.65753390941E+03  0.00000000000E+00 0.  1.
         -1   -1    0    0    0  501 -0.00000000000E+00 -0.00000000000E+00 -0.18798662330E+03  0.18798662330E+03  0.00000000000E+00 0.  1.
         23    2    1    2    0    0  0.25250953539E+02  0.19423166084E+02 -0.14196721254E+03  0.17215964020E+03  0.92029246679E+02 0.  0.
         23    2    1    2    0    0 -0.89766845690E+02  0.65297688518E+02  0.18630677396E+03  0.23502137492E+03  0.90570182371E+02 0.  0.
        -11    1    4    4    0    0 -0.49379796549E+02  0.71509455992E+02  0.69505796718E+02  0.11127902939E+03  0.00000000000E+00 0.  1.
         11    1    4    4    0    0 -0.40387049142E+02 -0.62117674748E+01  0.11680097724E+03  0.12374234554E+03  0.00000000000E+00 0. -1.
        -11    1    3    3    0    0  0.30403934536E+01  0.47632109811E+02 -0.12216434354E+03  0.13115711460E+03  0.00000000000E+00 0.  1.
         11    1    3    3    0    0  0.22210560085E+02 -0.28208943727E+02 -0.19802868999E+02  0.41002525606E+02  0.00000000000E+00 0. -1.
         -1    1    1    2    0  502  0.64515892151E+02 -0.84720854601E+02  0.42520772469E+03  0.43833951759E+03  0.00000000000E+00 0.  1.
<scales pt_clust_5="13000.00000" pt_clust_6="13000.00000" pt_clust_7="13000.00000" pt_clust_8="13000.00000" pt_clust_9="106.67093"></scales>
<clustering>
<clus scale="   90.570">  5  6 -1 -1</clus>
<clus scale="   92.029">  7  8 -1 -1</clus>
<clus scale="   97.387">  2  7  1 -1</clus>
<clus scale="  106.671">  1  9  2 -1</clus>
<clus scale="  106.671">  1  5  2 -1</clus>
</clustering>
</event>
<event>
 9    1  0.1445593E-005  0.1012908E+03  0.7546771E-02  0.1278963E+00
         21   -1    0    0  501  502  0.00000000000E+00  0.00000000000E+00  0.49592466948E+02  0.49592466948E+02  0.00000000000E+00 0. -1.
          1   -1    0    0  502    0 -0.00000000000E+00 -0.00000000000E+00 -0.76041150972E+03  0.76041150972E+03  0.00000000000E+00 0. -1.
         23    2    1    2    0    0  0.13701098030E+02  0.47685454115E+02 -0.42071524638E+03  0.43288481284E+03  0.89029882780E+02 0.  0.
         23    2    1    2    0    0 -0.43783699237E+02 -0.13984755783E+02 -0.31086319179E+03  0.32740344739E+03  0.91894002175E+02 0.  0.
        -11    1    4    4    0    0 -0.67799192488E+02 -0.29725969295E+02 -0.22521123682E+03  0.23706637245E+03  0.00000000000E+00 0. -1.
         11    1    4    4    0    0  0.24015493251E+02  0.15741213512E+02 -0.85651954971E+02  0.90337074943E+02  0.00000000000E+00 0.  1.
        -13    1    3    3    0    0  0.17093204531E+02  0.72423382070E+02 -0.35184369253E+03  0.35962662288E+03  0.00000000000E+00 0.  1.
         13    1    3    3    0    0 -0.33921065012E+01 -0.24737927955E+02 -0.68871553845E+02  0.73258189952E+02  0.00000000000E+00 0. -1.
          1    1    1    2  501    0  0.30082601207E+02 -0.33700698332E+02  0.20759395406E+02  0.49715716439E+02  0.00000000000E+00 0. -1.
<scales pt_clust_5="13000.00000" pt_clust_6="13000.00000" pt_clust_7="13000.00000" pt_clust_8="13000.00000" pt_clust_9="45.17411"></scales>
<clustering>
<clus scale="   45.174">  1  9  2 -1</clus>
<clus scale="   89.030">  7  8 -1 -1</clus>
<clus scale="   91.894">  5  6 -1 -1</clus>
<clus scale="   98.700">  2  7  1 -1</clus>
<clus scale="   45.174">  1  5  2 -1</clus>
</clustering>
</event>
<event>
 9    1  0.1445593E-005  0.1629791E+03  0.7546771E-02  0.1185458E+00
         21   -1    0    0  501  502  0.00000000000E+00  0.00000000000E+00  0.44749811371E+03  0.44749811371E+03  0.00000000000E+00 0.  1.
          1   -1    0    0  502    0 -0.00000000000E+00 -0.00000000000E+00 -0.14013127255E+03  0.14013127255E+03  0.00000000000E+00 0. -1.
         23    2    1    2    0    0 -0.13259353860E+03 -0.63952606067E+02 -0.50847437274E+02  0.18049206695E+03  0.91219197825E+02 0.  0.
         23    2    1    2    0    0  0.78114772682E+02  0.54411125061E+02  0.19823010338E+03  0.23786265474E+03  0.90669622208E+02 0.  0.
        -11    1    3    3    0    0 -0.60401300613E+02  0.65885690503E+01  0.11522114665E+02  0.61842424631E+02  0.00000000000E+00 0. -1.
         11    1    3    3    0    0 -0.72192237990E+02 -0.70541175117E+02 -0.62369551938E+02  0.11864964232E+03  0.00000000000E+00 0.  1.
        -13    1    4    4    0    0  0.92983808092E+01 -0.18543549627E+02  0.80869956098E+02  0.83488160345E+02  0.00000000000E+00 0.  1.
         13    1    4    4    0    0  0.68816391873E+02  0.72954674688E+02  0.11736014729E+03  0.15437449440E+03  0.00000000000E+00 0. -1.
          1    1    1    2  501    0  0.54478765921E+02  0.95414810064E+01  0.15998417506E+03  0.16927466457E+03  0.00000000000E+00 0. -1.
<scales pt_clust_5="13000.00000" pt_clust_6="13000.00000" pt_clust_7="13000.00000" pt_clust_8="13000.00000" pt_clust_9="55.30801"></scales>
<clustering>
<clus scale="   55.308">  1  9  2 -1</clus>
<clus scale="   90.670">  7  8 -1 -1</clus>
<clus scale="   91.219">  5  6 -1 -1</clus>
<clus scale="  162.672">  1  7  2 -1</clus>
<clus scale="   55.308">  1  5  2 -1</clus>
</clustering>
</event>
<event>
 9    1  0.1445593E-005  0.2154814E+03  0.7546771E-02  0.1137378E+00
         21   -1    0    0  501  502  0.00000000000E+00  0.00000000000E+00  0.58555725584E+02  0.58555725584E+02  0.00000000000E+00 0. -1.
          1   -1    0    0  502    0 -0.00000000000E+00 -0.00000000000E+00 -0.12097784511E+04  0.12097784511E+04  0.00000000000E+00 0. -1.
         23    2    1    2    0    0  0.15052405976E+03 -0.74786989221E+02 -0.48211746381E+03  0.51866002488E+03  0.91216150836E+02 0.  0.
         23    2    1    2    0    0 -0.19084995210E+03  0.14159393663E+03 -0.56520624780E+03  0.61973435457E+03  0.90222062566E+02 0.  0.
        -11    1    3    3    0    0  0.10441999454E+03 -0.21071951884E+01 -0.28658130891E+03  0.30501937995E+03  0.00000000000E+00 0. -1.
         11    1    3    3    0    0  0.46104065217E+02 -0.72679794032E+02 -0.19553615490E+03  0.21364064492E+03  0.00000000000E+00 0.  1.
        -13    1    4    4    0    0 -0.27829611405E+02  0.13492725590E+02 -0.17652079985E+03  0.17920974777E+03  0.00000000000E+00 0.  1.
         13    1    4    4    0    0 -0.16302034069E+03  0.12810121104E+03 -0.38868544794E+03  0.44052460680E+03  0.00000000000E+00 0. -1.
          1    1    1    2  501    0  0.40325892338E+02 -0.66806947406E+02 -0.10389901389E+03  0.12993979722E+03  0.00000000000E+00 0. -1.
<scales pt_clust_5="13000.00000" pt_clust_6="13000.00000" pt_clust_7="13000.00000" pt_clust_8="13000.00000" pt_clust_9="78.03426"></scales>
<clustering>
<clus scale="   78.034">  1  9  2 -1</clus>
<clus scale="   90.222">  7  8 -1 -1</clus>
<clus scale="   91.216">  5  6 -1 -1</clus>
<clus scale="  215.062">  1  7  2 -1</clus>
<clus scale="   78.034">  1  5  2 -1</clus>
</clustering>
</event>
<event>
 9    1  0.1445593E-005  0.9604361E+02  0.7546771E-02  0.1290644E+00
          4   -1    0    0  502    0 -0.00000000000E+00  0.00000000000E+00  0.15556733108E+03  0.15556733108E+03  0.00000000000E+00 0. -1.
         21   -1    0    0  501  502  0.00000000000E+00 -0.00000000000E+00 -0.16472058156E+03  0.16472058156E+03  0.00000000000E+00 0.  1.
         23    2    1    2    0    0 -0.14672165185E+02 -0.20320763381E+02  0.10918379839E+03  0.14593882126E+03  0.93535190515E+02 0.  0.
         23    2    1    2    0    0 -0.27301686139E+01 -0.23601436785E-01 -0.11665877826E+03  0.14752464369E+03  0.90259600998E+02 0.  0.
        -11    1    3    3    0    0 -0.44212891685E+02  0.29381305827E+01  0.96621589783E+02  0.10629743183E+03  0.00000000000E+00 0. -1.
         11    1    3    3    0    0  0.29540726500E+02 -0.23258893964E+02  0.12562208606E+02  0.39641389426E+02  0.00000000000E+00 0.  1.
        -11    1    4    4    0    0 -0.91920863917E+01  0.42373784336E+02 -0.36766417903E+02  0.56848936108E+02  0.00000000000E+00 0.  1.
         11    1    4    4    0    0  0.64619177778E+01 -0.42397385772E+02 -0.79892360354E+02  0.90675707577E+02  0.00000000000E+00 0. -1.
          4    1    1    2  501    0  0.17402333799E+02  0.20344364818E+02 -0.16782706126E+01  0.26824447688E+02  0.00000000000E+00 0. -1.
<scales pt_clust_5="13000.00000" pt_clust_6="13000.00000" pt_clust_7="13000.00000" pt_clust_8="13000.00000" pt_clust_9="26.77190"></scales>
<clustering>
<clus scale="   26.772">  2  9  1 -1</clus>
<clus scale="   90.260">  7  8 -1 -1</clus>
<clus scale="   92.857">  2  7  1 -1</clus>
<clus scale="   93.535">  5  6 -1 -1</clus>
<clus scale="   26.772">  2  5  1 -1</clus>
</clustering>
</event>
<event>
 9    1  0.1445593E-005  0.1101947E+03  0.7546771E-02  0.1260516E+00
          2   -1    0    0  502    0 -0.00000000000E+00  0.00000000000E+00  0.11465600270E+03  0.11465600270E+03  0.00000000000E+00 0. -1.
         21   -1    0    0  501  502  0.00000000000E+00 -0.00000000000E+00 -0.22535087600E+03  0.22535087600E+03  0.00000000000E+00 0.  1.
         23    2    1    2    0    0 -0.13119471672E+02  0.64460038142E+02  0.43188737372E+02  0.12195352794E+03  0.93167477625E+02 0.  0.
         23    2    1    2    0    0 -0.29330159124E+01 -0.30620342488E+02 -0.15204823811E+03  0.18055433808E+03  0.92385033041E+02 0.  0.
        -11    1    3    3    0    0  0.37441377062E+02  0.15354237405E+02  0.29688442572E+02  0.50189769325E+02  0.00000000000E+00 0.  1.
         11    1    3    3    0    0 -0.50560848735E+02  0.49105800738E+02  0.13500294800E+02  0.71763758615E+02  0.00000000000E+00 0. -1.
        -13    1    4    4    0    0  0.39038547860E+02  0.61616042566E+01 -0.45443929934E+02  0.60225612109E+02  0.00000000000E+00 0.  1.
         13    1    4    4    0    0 -0.41971563772E+02 -0.36781946744E+02 -0.10660430817E+03  0.12032872597E+03  0.00000000000E+00 0. -1.
          2    1    1    2  501    0  0.16052487585E+02 -0.33839695655E+02 -0.18353725611E+01  0.37499012682E+02  0.00000000000E+00 0. -1.
<scales pt_clust_5="13000.00000" pt_clust_6="13000.00000" pt_clust_7="13000.00000" pt_clust_8="13000.00000" pt_clust_9="37.45409"></scales>
<clustering>
<clus scale="   37.454">  2  9  1 -1</clus>
<clus scale="   92.385">  7  8 -1 -1</clus>
<clus scale="   93.167">  5  6 -1 -1</clus>
<clus scale="  109.534">  2  7  1 -1</clus>
<clus scale="   37.454">  2  5  1 -1</clus>
</clustering>
</event>
<event>
 9    1  0.1445593E-005  0.1872894E+03  0.7546771E-02  0.1160935E+00
         21   -1    0    0  501  502  0.00000000000E+00  0.00000000000E+00  0.17925744337E+03  0.17925744337E+03  0.00000000000E+00 0.  1.
          1   -1    0    0  502    0 -0.00000000000E+00 -0.00000000000E+00 -0.31194542081E+03  0.31194542081E+03  0.00000000000E+00 0. -1.
         23    2    1    2    0    0  0.13895845773E+03  0.14991527010E+02 -0.84219568095E+02  0.18744240025E+03  0.92236212556E+02 0.  0.
         23    2    1    2    0    0 -0.19228153106E+03 -0.44077865268E+02 -0.83958209152E+02  0.23341210848E+03  0.92288602280E+02 0.  0.
        -13    1    4    4    0    0 -0.44727815273E+02  0.18370038525E+02  0.74861049671E+01  0.48929311686E+02  0.00000000000E+00 0. -1.
         13    1    4    4    0    0 -0.14755371578E+03 -0.62447903793E+02 -0.91444314119E+02  0.18448279680E+03  0.00000000000E+00 0.  1.
        -13    1    3    3    0    0  0.54038503237E+02  0.40782545343E+02 -0.70315727666E+02  0.97609822221E+02  0.00000000000E+00 0. -1.
         13    1    3    3    0    0  0.84919954492E+02 -0.25791018333E+02 -0.13903840429E+02  0.89832578034E+02  0.00000000000E+00 0.  1.
          1    1    1    2  501    0  0.53323073329E+02  0.29086338258E+02  0.35489799811E+02  0.70348355440E+02  0.00000000000E+00 0. -1.
<scales pt_clust_5="13000.00000" pt_clust_6="13000.00000" pt_clust_7="13000.00000" pt_clust_8="13000.00000" pt_clust_9="60.74015"></scales>
<clustering>
<clus scale="   60.740">  1  9  2 -1</clus>
<clus scale="   92.236">  7  8 -1 -1</clus>
<clus scale="   92.289">  5  6 -1 -1</clus>
<clus scale="  187.264">  2  7  1 -1</clus>
<clus scale="   60.740">  1  5  2 -1</clus>
</clustering>
</event>
<event>
 9    1  0.1445593E-005  0.1085594E+03  0.7546771E-02  0.1265520E+00
         -2   -1    0    0    0  501 -0.00000000000E+00  0.00000000000E+00  0.87491550780E+02  0.87491550780E+02  0.00000000000E+00 0.  1.
         21   -1    0    0  501  502  0.00000000000E+00 -0.00000000000E+00 -0.31650394535E+03  0.31650394535E+03  0.00000000000E+00 0.  1.
         23    2    1    2    0    0  0.73757635790E+02  0.21596267990E+02 -0.30052496415E+02  0.12261661532E+03  0.90692304988E+02 0.  0.
         23    2    1    2    0    0 -0.23940661378E+02  0.35250034895E+02 -0.54516404839E+02  0.11835386477E+03  0.96020199348E+02 0.  0.
        -11    1    4    4    0    0  0.69539611811E+01 -0.21223548205E+02  0.12363817568E+02  0.25527643044E+02  0.00000000000E+00 0.  1.
         11    1    4    4    0    0 -0.30894622559E+02  0.56473583100E+02 -0.66880222407E+02  0.92826221729E+02  0.00000000000E+00 0. -1.
        -13    1    3    3    0    0  0.36142841050E+02  0.34322620098E+02  0.24181479107E+02  0.55399378529E+02  0.00000000000E+00 0.  1.
         13    1    3    3    0    0  0.37614794740E+02 -0.12726352108E+02 -0.54233975522E+02  0.67217236794E+02  0.00000000000E+00 0. -1.
         -2    1    1    2    0  502 -0.49816974412E+02 -0.56846302886E+02 -0.14444349331E+03  0.16302501603E+03  0.00000000000E+00 0.  1.
<scales pt_clust_5="13000.00000" pt_clust_6="13000.00000" pt_clust_7="13000.00000" pt_clust_8="13000.00000" pt_clust_9="75.58593"></scales>
<clustering>
<clus scale="   75.586">  2  9  1 -1</clus>
<clus scale="   90.692">  7  8 -1 -1</clus>
<clus scale="   96.020">  5  6 -1 -1</clus>
<clus scale="  103.877">  1  7  2 -1</clus>
<clus scale="   75.586">  2  5  1 -1</clus>
</clustering>
</event>
<event>
 9    1  0.1445593E-005  0.1303849E+03  0.7546771E-02  0.1227055E+00
         -1   -1    0    0    0  501 -0.00000000000E+00  0.00000000000E+00  0.12875160780E+03  0.12875160780E+03  0.00000000000E+00 0.  1.
         21   -1    0    0  501  502  0.00000000000E+00 -0.00000000000E+00 -0.34308491497E+03  0.34308491497E+03  0.00000000000E+00 0.  1.
         23    2    1    2    0    0 -0.63683528675E+02  0.91354115442E+02  0.53442473442E+02  0.15225849368E+03  0.89024629720E+02 0.  0.
         23    2    1    2    0    0  0.59739196755E+01 -0.41770728063E+02 -0.16177891177E+03  0.18910102929E+03  0.88353276930E+02 0.  0.
        -11    1    3    3    0    0 -0.61768752805E+02  0.49099098647E+02 -0.61896165302E+01  0.79148036386E+02  0.00000000000E+00 0. -1.
         11    1    3    3    0    0 -0.19147758696E+01  0.42255016796E+02  0.59632089972E+02  0.73110457292E+02  0.00000000000E+00 0.  1.
        -11    1    4    4    0    0 -0.20437497888E+02  0.97457921109E+01 -0.10710513126E+03  0.10947228382E+03  0.00000000000E+00 0. -1.
         11    1    4    4    0    0  0.26411417563E+02 -0.51516520174E+02 -0.54673780517E+02  0.79628745466E+02  0.00000000000E+00 0.  1.
         -1    1    1    2    0  502  0.57709608999E+02 -0.49583387379E+02 -0.10599686884E+03  0.13047699980E+03  0.00000000000E+00 0.  1.
<scales pt_clust_5="13000.00000" pt_clust_6="13000.00000" pt_clust_7="13000.00000" pt_clust_8="13000.00000" pt_clust_9="76.08490"></scales>
<clustering>
<clus scale="   76.085">  2  9  1 -1</clus>
<clus scale="   88.353">  7  8 -1 -1</clus>
<clus scale="   89.025">  5  6 -1 -1</clus>
<clus scale="  129.927">  2  7  1 -1</clus>
<clus scale="   76.085">  2  5  1 -1</clus>
</clustering>
</event>
<event>
 9    1  0.1445593E-005  0.1012932E+03  0.7546771E-02  0.1279082E+00
         21   -1    0    0  501  502  0.00000000000E+00  0.00000000000E+00  0.24595804678E+03  0.24595804678E+03  0.00000000000E+00 0.  1.
          3   -1    0    0  502    0 -0.00000000000E+00 -0.00000000000E+00 -0.13827193097E+03  0.13827193097E+03  0.00000000000E+00 0. -1.
         23    2    1    2    0    0  0.44023440517E+02  0.18144753999E+02 -0.99782021616E+02  0.14063931103E+03  0.86923348734E+02 0.  0.
         23    2    1    2    0    0 -0.21732385533E+02 -0.34879343399E+02  0.17205307703E+03  0.19852222858E+03  0.90110758217E+02 0.  0.
        -13    1    4    4    0    0  0.35378252506E+02 -0.13483921375E+02  0.71983477412E+02  0.81333006254E+02  0.00000000000E+00 0.  1.
         13    1    4    4    0    0 -0.57110638038E+02 -0.21395422024E+02  0.10006959962E+03  0.11718922232E+03  0.00000000000E+00 0. -1.
        -13    1    3    3    0    0  0.65523080174E+02 -0.23883404858E+01 -0.85250959969E+02  0.10754861404E+03  0.00000000000E+00 0.  1.
         13    1    3    3    0    0 -0.21499639657E+02  0.20533094485E+02 -0.14531061647E+02  0.33090696988E+02  0.00000000000E+00 0. -1.
          3    1    1    2  501    0 -0.22291054984E+02  0.16734589399E+02  0.35415060394E+02  0.45068438151E+02  0.00000000000E+00 0. -1.
<scales pt_clust_5="13000.00000" pt_clust_6="13000.00000" pt_clust_7="13000.00000" pt_clust_8="13000.00000" pt_clust_9="27.87360"></scales>
<clustering>
<clus scale="   27.874">  1  9  2 -1</clus>
<clus scale="   86.923">  7  8 -1 -1</clus>
<clus scale="   90.111">  5  6 -1 -1</clus>
<clus scale="   98.468">  2  7  1 -1</clus>
<clus scale="   27.874">  1  5  2 -1</clus>
</clustering>
</event>
<event>
 9    1  0.1445593E-005  0.1262497E+03  0.7546771E-02  0.1239050E+00
         21   -1    0    0  501  502  0.00000000000E+00  0.00000000000E+00  0.65579042914E+02  0.65579042914E+02  0.00000000000E+00 0.  1.
          3   -1    0    0  502    0 -0.00000000000E+00 -0.00000000000E+00 -0.57445576353E+03  0.57445576353E+03  0.00000000000E+00 0. -1.
         23    2    1    2    0    0  0.22748974164E+02 -0.34263022550E+02 -0.28890449228E+03  0.31157860782E+03  0.10919685275E+03 0.  0.
         23    2    1    2    0    0 -0.60732597219E+02  0.78819721056E+02 -0.23194557816E+03  0.26869487243E+03  0.92180184695E+02 0.  0.
        -11    1    4    4    0    0 -0.10460204366E+02  0.74338536256E+02 -0.18546078264E+03  0.20007832403E+03  0.00000000000E+00 0. -1.
         11    1    4    4    0    0 -0.50272392853E+02  0.44811848003E+01 -0.46484795522E+02  0.68616548406E+02  0.00000000000E+00 0.  1.
        -13    1    3    3    0    0 -0.38649565416E+02  0.10825007996E+02 -0.11181397694E+03  0.11879955869E+03  0.00000000000E+00 0.  1.
         13    1    3    3    0    0  0.61398539579E+02 -0.45088030546E+02 -0.17709051534E+03  0.19277904913E+03  0.00000000000E+00 0. -1.
          3    1    1    2  501    0  0.37983623055E+02 -0.44556698506E+02  0.11973349827E+02  0.59761326192E+02  0.00000000000E+00 0. -1.
<scales pt_clust_5="13000.00000" pt_clust_6="13000.00000" pt_clust_7="13000.00000" pt_clust_8="13000.00000" pt_clust_9="58.54959"></scales>
<clustering>
<clus scale="   58.550">  1  9  2 -1</clus>
<clus scale="   92.180">  5  6 -1 -1</clus>
<clus scale="  109.197">  7  8 -1 -1</clus>
<clus scale="  111.858">  1  5  2 -1</clus>
<clus scale="   58.550">  1  5  2 -1</clus>
</clustering>
</event>
<event>
 9    1  0.1445593E-005  0.9807672E+02  0.7546771E-02  0.1284905E+00
         21   -1    0    0  501  502  0.00000000000E+00  0.00000000000E+00  0.92742090195E+02  0.92742090195E+02  0.00000000000E+00 0. -1.
          1   -1    0    0  502    0 -0.00000000000E+00 -0.00000000000E+00 -0.26160645982E+03  0.26160645982E+03  0.00000000000E+00 0. -1.
         23    2    1    2    0    0  0.29579339837E+01  0.32552892610E+02 -0.19275680708E+03  0.21559719748E+03  0.90876425416E+02 0.  0.
         23    2    1    2    0    0  0.19609901466E+02 -0.41848968080E+02 -0.23941589509E+01  0.10288062120E+03  0.91884742239E+02 0.  0.
        -11    1    3    3    0    0 -0.24328903981E+02  0.42062770623E+02 -0.17513583374E+03  0.18175184319E+03  0.00000000000E+00 0. -1.
         11    1    3    3    0    0  0.27286837964E+02 -0.95098780127E+01 -0.17620973332E+02  0.33845354291E+02  0.00000000000E+00 0.  1.
        -13    1    4    4    0    0 -0.33721762409E+02 -0.35319882036E+02 -0.49962190623E+01  0.49087814496E+02  0.00000000000E+00 0.  1.
         13    1    4    4    0    0  0.53331663875E+02 -0.65290860435E+01  0.26020601114E+01  0.53792806703E+02  0.00000000000E+00 0. -1.
          1    1    1    2  501    0 -0.22567835449E+02  0.92960754697E+01  0.26286596403E+02  0.35870731335E+02  0.00000000000E+00 0. -1.
<scales pt_clust_5="13000.00000" pt_clust_6="13000.00000" pt_clust_7="13000.00000" pt_clust_8="13000.00000" pt_clust_9="24.40746"></scales>
<clustering>
<clus scale="   24.407">  1  9  2 -1</clus>
<clus scale="   90.876">  5  6 -1 -1</clus>
<clus scale="   91.885">  7  8 -1 -1</clus>
<clus scale="   97.133">  2  5  1 -1</clus>
<clus scale="   24.407">  1  5  2 -1</clus>
</clustering>
</event>
<event>
 9    1  0.1445593E-005  0.1438740E+03  0.7546771E-02  0.1221568E+00
         -2   -1    0    0    0  501 -0.00000000000E+00  0.00000000000E+00  0.13998609945E+03  0.13998609945E+03  0.00000000000E+00 0.  1.
         21   -1    0    0  501  502  0.00000000000E+00 -0.00000000000E+00 -0.43366400790E+03  0.43366400790E+03  0.00000000000E+00 0.  1.
         23    2    1    2    0    0 -0.54432328087E+02 -0.18728382309E+02 -0.24112995690E+03  0.26438353702E+03  0.91876917050E+02 0.  0.
         23    2    1    2    0    0 -0.15681019189E+02  0.10714293264E+03  0.55355384606E+02  0.15313795627E+03  0.93067248093E+02 0.  0.
        -11    1    4    4    0    0 -0.38532845650E+02  0.10733865313E+03  0.27885630205E+02  0.11740517460E+03  0.00000000000E+00 0.  1.
         11    1    4    4    0    0  0.22851826461E+02 -0.19572049317E+00  0.27469754401E+02  0.35732781671E+02  0.00000000000E+00 0. -1.
        -11    1    3    3    0    0  0.25515864061E+02 -0.37310161240E+01 -0.42058815586E+02  0.49334812948E+02  0.00000000000E+00 0. -1.
         11    1    3    3    0    0 -0.79948192148E+02 -0.14997366185E+02 -0.19907114131E+03  0.21504872407E+03  0.00000000000E+00 0.  1.
         -2    1    1    2    0  502  0.70113347276E+02 -0.88414550329E+02 -0.10790333615E+03  0.15612861406E+03  0.00000000000E+00 0.  1.
<scales pt_clust_5="13000.00000" pt_clust_6="13000.00000" pt_clust_7="13000.00000" pt_clust_8="13000.00000" pt_clust_9="109.71877"></scales>
<clustering>
<clus scale="   91.877">  7  8 -1 -1</clus>
<clus scale="   93.067">  5  6 -1 -1</clus>
<clus scale="  108.421">  1  7  2 -1</clus>
<clus scale="  109.719">  2  9  1 -1</clus>
<clus scale="  109.719">  2  5  1 -1</clus>
</clustering>
</event>
<event>
 9    1  0.1445593E-005  0.1134849E+03  0.7546771E-02  0.1254427E+00
         21   -1    0    0  501  502  0.00000000000E+00  0.00000000000E+00  0.15451634239E+03  0.15451634239E+03  0.00000000000E+00 0. -1.
          1   -1    0    0  502    0 -0.00000000000E+00 -0.00000000000E+00 -0.20581172036E+03  0.20581172036E+03  0.00000000000E+00 0. -1.
         23    2    1    2    0    0  0.57414919240E+02 -0.31533934231E+02 -0.94251651770E+02  0.14567679892E+03  0.89707825322E+02 0.  0.
         23    2    1    2    0    0 -0.47005268559E+02  0.66220869433E+02 -0.37579574598E+02  0.12634742938E+03  0.89200614709E+02 0.  0.
        -11    1    3    3    0    0  0.68545678754E+02  0.55821239718E+01 -0.41852586339E+02  0.80506578409E+02  0.00000000000E+00 0.  1.
         11    1    3    3    0    0 -0.11130759514E+02 -0.37116058203E+02 -0.52399065431E+02  0.65170220515E+02  0.00000000000E+00 0. -1.
        -13    1    4    4    0    0 -0.13696793910E+02  0.43045921083E+02  0.25101704524E+02  0.51678322876E+02  0.00000000000E+00 0.  1.
         13    1    4    4    0    0 -0.33308474649E+02  0.23174948349E+02 -0.62681279121E+02  0.74669106508E+02  0.00000000000E+00 0. -1.
          1    1    1    2  501    0 -0.10409650681E+02 -0.34686935202E+02  0.80535848390E+02  0.88303834440E+02  0.00000000000E+00 0. -1.
<scales pt_clust_5="13000.00000" pt_clust_6="13000.00000" pt_clust_7="13000.00000" pt_clust_8="13000.00000" pt_clust_9="36.21525"></scales>
<clustering>
<clus scale="   36.215">  1  9  2 -1</clus>
<clus scale="   89.201">  7  8 -1 -1</clus>
<clus scale="   89.708">  5  6 -1 -1</clus>
<clus scale="  113.084">  1  7  2 -1</clus>
<clus scale="   36.215">  1  5  2 -1</clus>
</clustering>
</event>
<event>
 9    1  0.1445593E-005  0.1020786E+03  0.7546771E-02  0.1278008E+00
         21   -1    0    0  501  502  0.00000000000E+00  0.00000000000E+00  0.25309337512E+03  0.25309337512E+03  0.00000000000E+00 0. -1.
          1   -1    0    0  502    0 -0.00000000000E+00 -0.00000000000E+00 -0.18284022296E+03  0.18284022296E+03  0.00000000000E+00 0. -1.
         23    2    1    2    0    0  0.38991630565E+02 -0.97225042056E+01 -0.13514094463E+03  0.16883742071E+03  0.92887703029E+02 0.  0.
         23    2    1    2    0    0  0.16954552752E+02 -0.15937479940E+02  0.81642014761E+02  0.12888261789E+03  0.96973452522E+02 0.  0.
        -13    1    4    4    0    0 -0.15907217077E+02  0.33204701664E+02  0.14888021871E+02  0.39714543469E+02  0.00000000000E+00 0.  1.
         13    1    4    4    0    0  0.32861769829E+02 -0.49142181604E+02  0.66753992890E+02  0.89168074420E+02  0.00000000000E+00 0. -1.
        -13    1    3    3    0    0  0.14028158498E+02  0.24412831011E+02 -0.98450981924E+00  0.28173477037E+02  0.00000000000E+00 0.  1.
         13    1    3    3    0    0  0.24963472068E+02 -0.34135335216E+02 -0.13415643482E+03  0.14066394368E+03  0.00000000000E+00 0. -1.
          1    1    1    2  501    0 -0.55946183317E+02  0.25659984145E+02  0.12375208204E+03  0.13821355948E+03  0.00000000000E+00 0. -1.
<scales pt_clust_5="13000.00000" pt_clust_6="13000.00000" pt_clust_7="13000.00000" pt_clust_8="13000.00000" pt_clust_9="61.55006"></scales>
<clustering>
<clus scale="   61.550">  1  9  2 -1</clus>
<clus scale="   92.888">  7  8 -1 -1</clus>
<clus scale="   96.973">  5  6 -1 -1</clus>
<clus scale="   98.205">  2  7  1 -1</clus>
<clus scale="   61.550">  1  5  2 -1</clus>
</clustering>
</event>
<event>
 9    1  0.1445593E-005  0.9397543E+02  0.7546771E-02  0.1293540E+00
         21   -1    0    0  501  502  0.00000000000E+00  0.00000000000E+00  0.59970225403E+02  0.59970225403E+02  0.00000000000E+00 0. -1.
          2   -1    0    0  502    0 -0.00000000000E+00 -0.00000000000E+00 -0.29985165391E+03  0.29985165391E+03  0.00000000000E+00 0. -1.
         23    2    1    2    0    0 -0.69437635327E+01  0.16723833776E+02 -0.18160405448E+03  0.20418077127E+03  0.91552456471E+02 0.  0.
         23    2    1    2    0    0 -0.21705985695E+02 -0.31092189276E+02 -0.70262596005E+02  0.12142264348E+03  0.91480882724E+02 0.  0.
        -13    1    3    3    0    0  0.30032276206E+02  0.10116661765E+02 -0.15486382401E+03  0.15807304781E+03  0.00000000000E+00 0.  1.
         13    1    3    3    0    0 -0.36976039738E+02  0.66071720115E+01 -0.26740230472E+02  0.46107723457E+02  0.00000000000E+00 0. -1.
        -13    1    4    4    0    0  0.16774840449E+02 -0.21237215143E+02 -0.76561210730E+02  0.81203654891E+02  0.00000000000E+00 0.  1.
         13    1    4    4    0    0 -0.38480826144E+02 -0.98549741331E+01  0.62986147250E+01  0.40218988592E+02  0.00000000000E+00 0. -1.
          2    1    1    2  501    0  0.28649749228E+02  0.14368355500E+02  0.11985221980E+02  0.34218464555E+02  0.00000000000E+00 0. -1.
<scales pt_clust_5="13000.00000" pt_clust_6="13000.00000" pt_clust_7="13000.00000" pt_clust_8="13000.00000" pt_clust_9="32.05086"></scales>
<clustering>
<clus scale="   32.051">  1  9  2 -1</clus>
<clus scale="   91.481">  7  8 -1 -1</clus>
<clus scale="   91.552">  5  6 -1 -1</clus>
<clus scale="   93.906">  1  7  2 -1</clus>
<clus scale="   32.051">  1  5  2 -1</clus>
</clustering>
</event>
<event>
 9    1  0.1445593E-005  0.2210093E+03  0.7546771E-02  0.1143181E+00
         21   -1    0    0  501  502  0.00000000000E+00  0.00000000000E+00  0.14737608907E+03  0.14737608907E+03  0.00000000000E+00 0. -1.
          2   -1    0    0  502    0 -0.00000000000E+00 -0.00000000000E+00 -0.12954227778E+04  0.12954227778E+04  0.00000000000E+00 0. -1.
         23    2    1    2    0    0  0.13000960848E+03 -0.64917292666E+02  0.22449020451E+02  0.17474806090E+03  0.94425489589E+02 0.  0.
         23    2    1    2    0    0 -0.13579695369E+02  0.22038283259E+03 -0.91093025930E+03  0.94385999558E+03  0.11101690378E+03 0.  0.
        -11    1    4    4    0    0 -0.54430527729E+02  0.11696507058E+03 -0.59810886994E+03  0.61186414373E+03  0.00000000000E+00 0.  1.
         11    1    4    4    0    0  0.40850832360E+02  0.10341776201E+03 -0.31282138936E+03  0.33199585185E+03  0.00000000000E+00 0. -1.
        -13    1    3    3    0    0  0.29693846238E+02  0.23480255308E+02  0.15362604855E+02  0.40854088188E+02  0.00000000000E+00 0. -1.
         13    1    3    3    0    0  0.10031576224E+03 -0.88397547974E+02  0.70864155955E+01  0.13389397271E+03  0.00000000000E+00 0.  1.
          2    1    1    2  501    0 -0.11642991311E+03 -0.15546553992E+03 -0.25956544990E+03  0.32419081041E+03  0.00000000000E+00 0. -1.
<scales pt_clust_5="13000.00000" pt_clust_6="13000.00000" pt_clust_7="13000.00000" pt_clust_8="13000.00000" pt_clust_9="191.10299"></scales>
<clustering>
<clus scale="   94.425">  7  8 -1 -1</clus>
<clus scale="  111.017">  5  6 -1 -1</clus>
<clus scale="  173.300">  2  7  1 -1</clus>
<clus scale="  191.103">  1  9  2 -1</clus>
<clus scale="  191.103">  1  5  2 -1</clus>
</clustering>
</event>
<event>
 9    1  0.1445593E-005  0.8890189E+02  0.7546771E-02  0.1306830E+00
         21   -1    0    0  501  502  0.00000000000E+00  0.00000000000E+00  0.10841614870E+03  0.10841614870E+03  0.00000000000E+00 0. -1.
          1   -1    0    0  502    0 -0.00000000000E+00 -0.00000000000E+00 -0.41590370406E+03  0.41590370406E+03  0.00000000000E+00 0. -1.
         23    2    1    2    0    0  0.11308188154E+02 -0.69541447456E+01 -0.24049355424E+03  0.25602624381E+03  0.86810440829E+02 0.  0.
         23    2    1    2    0    0  0.14722928894E+02 -0.96953230665E+01 -0.15248987098E+03  0.17738504170E+03  0.88890541362E+02 0.  0.
        -11    1    3    3    0    0 -0.33524032247E+02 -0.98613343638E+01 -0.54941432812E+02  0.65112730652E+02  0.00000000000E+00 0. -1.
         11    1    3    3    0    0  0.44832220401E+02  0.29071896182E+01 -0.18555212143E+03  0.19091351316E+03  0.00000000000E+00 0.  1.
        -11    1    4    4    0    0 -0.32868776330E+02  0.23044395695E+01 -0.10105035590E+03  0.10628659994E+03  0.00000000000E+00 0. -1.
         11    1    4    4    0    0  0.47591705225E+02 -0.11999762636E+02 -0.51439515084E+02  0.71098441766E+02  0.00000000000E+00 0.  1.
          1    1    1    2  501    0 -0.26031117048E+02  0.16649467812E+02  0.85495869867E+02  0.90908567239E+02  0.00000000000E+00 0. -1.
<scales pt_clust_5="13000.00000" pt_clust_6="13000.00000" pt_clust_7="13000.00000" pt_clust_8="13000.00000" pt_clust_9="30.90022"></scales>
<clustering>
<clus scale="   30.900">  1  9  2 -1</clus>
<clus scale="   86.810">  5  6 -1 -1</clus>
<clus scale="   86.822">  2  5  1 -1</clus>
<clus scale="   88.891">  7  8 -1 -1</clus>
<clus scale="   30.900">  1  5  2 -1</clus>
</clustering>
</event>
<event>
 9    1  0.1445593E-005  0.1574937E+03  0.7546771E-02  0.1192564E+00
         21   -1    0    0  501  502  0.00000000000E+00  0.00000000000E+00  0.49518219493E+03  0.49518219493E+03  0.00000000000E+00 0. -1.
          2   -1    0    0  502    0 -0.00000000000E+00 -0.00000000000E+00 -0.16547412729E+03  0.16547412729E+03  0.00000000000E+00 0. -1.
         23    2    1    2    0    0 -0.39719298436E+02  0.10657365946E+03 -0.45683219979E+02  0.15180263448E+03  0.89562914692E+02 0.  0.
         23    2    1    2    0    0  0.78790739150E+02 -0.13303489314E+03  0.62047620501E+02  0.19197669569E+03  0.95388055381E+02 0.  0.
        -11    1    4    4    0    0  0.39398105074E+02 -0.91368983267E+02  0.84359253732E+02  0.13044916817E+03  0.00000000000E+00 0.  1.
         11    1    4    4    0    0  0.39392634075E+02 -0.41665909876E+02 -0.22311633230E+02  0.61527527519E+02  0.00000000000E+00 0. -1.
        -11    1    3    3    0    0 -0.66589502565E+02  0.55503287297E+02 -0.22089090839E+02  0.89457837481E+02  0.00000000000E+00 0.  1.
         11    1    3    3    0    0  0.26870204130E+02  0.51070372159E+02 -0.23594129140E+02  0.62344796995E+02  0.00000000000E+00 0. -1.
          2    1    1    2  501    0 -0.39071440714E+02  0.26461233687E+02  0.31334366712E+03  0.31687699205E+03  0.00000000000E+00 0. -1.
<scales pt_clust_5="13000.00000" pt_clust_6="13000.00000" pt_clust_7="13000.00000" pt_clust_8="13000.00000" pt_clust_9="47.18871"></scales>
<clustering>
<clus scale="   47.189">  1  9  2 -1</clus>
<clus scale="   89.563">  7  8 -1 -1</clus>
<clus scale="   95.388">  5  6 -1 -1</clus>
<clus scale="  154.035">  2  7  1 -1</clus>
<clus scale="   47.189">  1  5  2 -1</clus>
</clustering>
</event>
<event>
 9    1  0.1445593E-005  0.1446198E+03  0.7546771E-02  0.1207382E+00
         21   -1    0    0  501  502  0.00000000000E+00  0.00000000000E+00  0.30478833156E+03  0.30478833156E+03  0.00000000000E+00 0. -1.
         -4   -1    0    0    0  501 -0.00000000000E+00 -0.00000000000E+00 -0.16422972602E+03  0.16422972602E+03  0.00000000000E+00 0.  1.
         23    2    1    2    0    0 -0.37149513452E+02  0.84746274367E+02 -0.58117495365E+01  0.13029542517E+03  0.91548369831E+02 0.  0.
         23    2    1    2    0    0  0.52463933711E+02 -0.16676502272E+03  0.15985090955E+03  0.25420439829E+03  0.92219985264E+02 0.  0.
        -11    1    3    3    0    0  0.25886801915E+02  0.27650353686E+02  0.18054865428E+02  0.41960061225E+02  0.00000000000E+00 0.  1.
         11    1    3    3    0    0 -0.63036315367E+02  0.57095920681E+02 -0.23866614964E+02  0.88335363945E+02  0.00000000000E+00 0. -1.
        -13    1    4    4    0    0  0.28683737747E+02 -0.94933733025E+02  0.29470419022E+02  0.10345857178E+03  0.00000000000E+00 0.  1.
         13    1    4    4    0    0  0.23780195964E+02 -0.71831289692E+02  0.13038049053E+03  0.15074582651E+03  0.00000000000E+00 0. -1.
         -4    1    1    2    0  502 -0.15314420259E+02  0.82018748350E+02 -0.13480554475E+02  0.84518234114E+02  0.00000000000E+00 0.  1.
<scales pt_clust_5="13000.00000" pt_clust_6="13000.00000" pt_clust_7="13000.00000" pt_clust_8="13000.00000" pt_clust_9="83.43628"></scales>
<clustering>
<clus scale="   83.436">  1  9  2 -1</clus>
<clus scale="   91.548">  5  6 -1 -1</clus>
<clus scale="   92.220">  7  8 -1 -1</clus>
<clus scale="  144.192">  2  5  1 -1</clus>
<clus scale="   83.436">  1  5  2 -1</clus>
</clustering>
</event>
<event>
 9    1  0.1445593E-005  0.1300419E+03  0.7546771E-02  0.1228327E+00
          1   -1    0    0  502    0 -0.00000000000E+00  0.00000000000E+00  0.75195365685E+03  0.75195365685E+03  0.00000000000E+00 0. -1.
         21   -1    0    0  501  502  0.00000000000E+00 -0.00000000000E+00 -0.41071210601E+02  0.41071210601E+02  0.00000000000E+00 0.  1.
         23    2    1    2    0    0 -0.63516151459E+02 -0.54246407339E+02  0.42905645921E+03  0.44619118704E+03  0.89555323687E+02 0.  0.
         23    2    1    2    0    0  0.73219204046E+02  0.74844481694E+02  0.29046379000E+03  0.32248123625E+03  0.93070866282E+02 0.  0.
        -11    1    4    4    0    0  0.26978416149E+02  0.71983829787E+02  0.98180225349E+02  0.12469508145E+03  0.00000000000E+00 0.  1.
         11    1    4    4    0    0  0.46240787898E+02  0.28606519077E+01  0.19228356465E+03  0.19778615480E+03  0.00000000000E+00 0. -1.
        -13    1    3    3    0    0 -0.66004764216E+02 -0.11146561437E+02  0.34774907480E+03  0.35413315822E+03  0.00000000000E+00 0. -1.
         13    1    3    3    0    0  0.24886127570E+01 -0.43099845902E+02  0.81307384409E+02  0.92058028817E+02  0.00000000000E+00 0.  1.
          1    1    1    2  501    0 -0.97030525873E+01 -0.20598074356E+02 -0.86378029580E+01  0.24352444161E+02  0.00000000000E+00 0. -1.
<scales pt_clust_5="13000.00000" pt_clust_6="13000.00000" pt_clust_7="13000.00000" pt_clust_8="13000.00000" pt_clust_9="22.76906"></scales>
<clustering>
<clus scale="   22.769">  2  9  1 -1</clus>
<clus scale="   89.555">  7  8 -1 -1</clus>
<clus scale="   93.071">  5  6 -1 -1</clus>
<clus scale="  127.549">  1  7  2 -1</clus>
<clus scale="   22.769">  2  5  1 -1</clus>
</clustering>
</event>
<event>
 9    1  0.1445593E-005  0.9303411E+02  0.7546771E-02  0.1296413E+00
          1   -1    0    0  502    0 -0.00000000000E+00  0.00000000000E+00  0.40514994714E+03  0.40514994714E+03  0.00000000000E+00 0. -1.
         21   -1    0    0  501  502  0.00000000000E+00 -0.00000000000E+00 -0.62615645873E+02  0.62615645873E+02  0.00000000000E+00 0.  1.
         23    2    1    2    0    0  0.15336245822E+02  0.74816267751E+01  0.25492547993E+03  0.27144120280E+03  0.91663248269E+02 0.  0.
         23    2    1    2    0    0  0.37575310027E+02 -0.42280078968E+02  0.78396052542E+02  0.13232876438E+03  0.90362889655E+02 0.  0.
        -11    1    4    4    0    0 -0.19661672978E+02 -0.33418974583E+02  0.54030611899E+01  0.39148465062E+02  0.00000000000E+00 0. -1.
         11    1    4    4    0    0  0.57236983004E+02 -0.88611043850E+01  0.72992991352E+02  0.93180299317E+02  0.00000000000E+00 0.  1.
        -13    1    3    3    0    0  0.40459564233E+02 -0.24122929212E+02  0.18293501543E+03  0.18890238729E+03  0.00000000000E+00 0.  1.
         13    1    3    3    0    0 -0.25123318411E+02  0.31604555987E+02  0.71990464502E+02  0.82538815514E+02  0.00000000000E+00 0. -1.
          1    1    1    2  501    0 -0.52911555849E+02  0.34798452193E+02  0.92127687942E+01  0.63995625837E+02  0.00000000000E+00 0. -1.
<scales pt_clust_5="13000.00000" pt_clust_6="13000.00000" pt_clust_7="13000.00000" pt_clust_8="13000.00000" pt_clust_9="63.32902"></scales>
<clustering>
<clus scale="   63.329">  2  9  1 -1</clus>
<clus scale="   90.363">  5  6 -1 -1</clus>
<clus scale="   91.663">  7  8 -1 -1</clus>
<clus scale="   91.753">  2  5  1 -1</clus>
<clus scale="   63.329">  2  5  1 -1</clus>
</clustering>
</event>
<event>
 9    1  0.1445593E-005  0.9880910E+02  0.7546771E-02  0.1283323E+00
          1   -1    0    0  502    0 -0.00000000000E+00  0.00000000000E+00  0.15906867455E+03  0.15906867455E+03  0.00000000000E+00 0. -1.
         21   -1    0    0  501  502  0.00000000000E+00 -0.00000000000E+00 -0.10733969784E+03  0.10733969784E+03  0.00000000000E+00 0.  1.
         23    2    1    2    0    0  0.18260623139E+02  0.21235555120E+02  0.78831314465E+02  0.12408340372E+03  0.91640142841E+02 0.  0.
         23    2    1    2    0    0 -0.27641278028E+02 -0.40055887737E+02  0.40680912875E+01  0.10472447329E+03  0.92639902552E+02 0.  0.
        -11    1    4    4    0    0  0.13645824088E+02 -0.45033994146E+02 -0.25667281689E+02  0.53601105335E+02  0.00000000000E+00 0.  1.
         11    1    4    4    0    0 -0.41287102116E+02  0.49781064087E+01  0.29735372977E+02  0.51123367951E+02  0.00000000000E+00 0. -1.
        -13    1    3    3    0    0  0.35744704331E+02  0.36155692032E+02  0.10399671691E+02  0.51894808269E+02  0.00000000000E+00 0.  1.
         13    1    3    3    0    0 -0.17484081191E+02 -0.14920136911E+02  0.68431642774E+02  0.72188595452E+02  0.00000000000E+00 0. -1.
          1    1    1    2  501    0  0.93806548888E+01  0.18820332617E+02 -0.31170429046E+02  0.37600495380E+02  0.00000000000E+00 0. -1.
<scales pt_clust_5="13000.00000" pt_clust_6="13000.00000" pt_clust_7="13000.00000" pt_clust_8="13000.00000" pt_clust_9="21.02859"></scales>
<clustering>
<clus scale="   21.029">  2  9  1 -1</clus>
<clus scale="   91.640">  7  8 -1 -1</clus>
<clus scale="   92.640">  5  6 -1 -1</clus>
<clus scale="   97.872">  1  7  2 -1</clus>
<clus scale="   21.029">  2  5  1 -1</clus>
</clustering>
</event>
<event>
 9    1  0.1445593E-005  0.3219273E+03  0.7546771E-02  0.1124525E+00
          2   -1    0    0  502    0 -0.00000000000E+00  0.00000000000E+00  0.99918385574E+03  0.99918385574E+03  0.00000000000E+00 0. -1.
         21   -1    0    0  501  502  0.00000000000E+00 -0.00000000000E+00 -0.22528888289E+03  0.22528888289E+03  0.00000000000E+00 0. -1.
         23    2    1    2    0    0 -0.68378478486E+01 -0.27937894950E+01  0.25174393811E+03  0.26680818038E+03  0.88074021822E+02 0.  0.
         23    2    1    2    0    0 -0.20797546180E+03  0.22380674365E+03  0.56225334152E+03  0.64685966944E+03  0.94632767490E+02 0.  0.
        -11    1    3    3    0    0  0.11412478385E+02 -0.37716621673E+02  0.65485965833E+02  0.76427743225E+02  0.00000000000E+00 0. -1.
         11    1    3    3    0    0 -0.18250326234E+02  0.34922832178E+02  0.18625797227E+03  0.19038043715E+03  0.00000000000E+00 0.  1.
        -13    1    4    4    0    0 -0.65477641151E+01  0.37043241293E+02  0.30810970146E+02  0.48625002023E+02  0.00000000000E+00 0.  1.
         13    1    4    4    0    0 -0.20142769768E+03  0.18676350236E+03  0.53144237137E+03  0.59823466741E+03  0.00000000000E+00 0. -1.
          2    1    1    2  501    0  0.21481330965E+03 -0.22101295415E+03 -0.40102306771E+02  0.31080488882E+03  0.00000000000E+00 0. -1.
<scales pt_clust_5="13000.00000" pt_clust_6="13000.00000" pt_clust_7="13000.00000" pt_clust_8="13000.00000" pt_clust_9="307.70411"></scales>
<clustering>
<clus scale="   88.074">  5  6 -1 -1</clus>
<clus scale="   88.383">  1  5  2 -1</clus>
<clus scale="   94.633">  7  8 -1 -1</clus>
<clus scale="  307.704">  2  9  1 -1</clus>
<clus scale="  307.704">  2  5  1 -1</clus>
</clustering>
</event>
<event>
 9    1  0.1849794E-005  0.9776074E+02  0.7546771E-02  0.1288451E+00
         21   -1    0    0  501  502  0.00000000000E+00  0.00000000000E+00  0.52365757009E+03  0.52365757009E+03  0.00000000000E+00 0. -1.
          2   -1    0    0  502    0 -0.00000000000E+00 -0.00000000000E+00 -0.27825810720E+03  0.27825810720E+03  0.00000000000E+00 0. -1.
         23    2    1    2    0    0 -0.20501227194E+02  0.46382590502E+02 -0.21860669580E+03  0.23930216358E+03  0.83096287687E+02 0.  0.
         23    2    1    2    0    0 -0.43811727487E+02  0.10483508326E+02  0.10348179247E+02  0.10090422027E+03  0.89695069218E+02 0.  0.
        -11    1    4    4    0    0 -0.31755264290E+02  0.43254790990E+02 -0.17284275185E+02  0.56374816385E+02  0.00000000000E+00 0. -1.
         11    1    4    4    0    0 -0.12056463197E+02 -0.32771282664E+02  0.27632454432E+02  0.44529403883E+02  0.00000000000E+00 0.  1.
        -13    1    3    3    0    0  0.11334464587E+02  0.36496386153E+02 -0.19435986454E+03  0.19808132985E+03  0.00000000000E+00 0. -1.
         13    1    3    3    0    0 -0.31835691780E+02  0.98862043484E+01 -0.24246831260E+02  0.41220833734E+02  0.00000000000E+00 0.  1.
          2    1    1    2  501    0  0.64312954680E+02 -0.56866098828E+02  0.45365797944E+03  0.46170929344E+03  0.00000000000E+00 0. -1.
<scales pt_clust_5="13000.00000" pt_clust_6="13000.00000" pt_clust_7="13000.00000" pt_clust_8="13000.00000" pt_clust_9="85.84818"></scales>
<clustering>
<clus scale="   83.096">  7  8 -1 -1</clus>
<clus scale="   85.848">  1  9  2 -1</clus>
<clus scale="   89.695">  5  6 -1 -1</clus>
<clus scale="   91.744">  2  7  1 -1</clus>
<clus scale="   85.848">  1  5  2 -1</clus>
</clustering>
</event>
<event>
 9    1  0.1445593E-005  0.1070249E+03  0.7546771E-02  0.1266673E+00
         21   -1    0    0  501  502  0.00000000000E+00  0.00000000000E+00  0.21159808056E+03  0.21159808056E+03  0.00000000000E+00 0.  1.
          1   -1    0    0  502    0 -0.00000000000E+00 -0.00000000000E+00 -0.11889496673E+03  0.11889496673E+03  0.00000000000E+00 0. -1.
         23    2    1    2    0    0  0.45031616534E+02  0.94476030775E+01 -0.53364554416E+02  0.11696856334E+03  0.93363619527E+02 0.  0.
         23    2    1    2    0    0 -0.58174115721E+02 -0.30703474570E+02  0.73107808311E+02  0.13640329024E+03  0.94520764178E+02 0.  0.
        -11    1    4    4    0    0 -0.16762306194E+02 -0.50300643967E+02  0.73450191621E+02  0.90587307840E+02  0.00000000000E+00 0. -1.
         11    1    4    4    0    0 -0.41411809527E+02  0.19597169397E+02 -0.34238331090E+00  0.45815982397E+02  0.00000000000E+00 0.  1.
        -11    1    3    3    0    0  0.22092683963E+02  0.13390406820E+02 -0.78541623742E+02  0.82681172824E+02  0.00000000000E+00 0. -1.
         11    1    3    3    0    0  0.22938932571E+02 -0.39428037424E+01  0.25177069326E+02  0.34287390520E+02  0.00000000000E+00 0.  1.
          1    1    1    2  501    0  0.13142499188E+02  0.21255871493E+02  0.72959859935E+02  0.77121193712E+02  0.00000000000E+00 0. -1.
<scales pt_clust_5="13000.00000" pt_clust_6="13000.00000" pt_clust_7="13000.00000" pt_clust_8="13000.00000" pt_clust_9="24.99075"></scales>
<clustering>
<clus scale="   24.991">  1  9  2 -1</clus>
<clus scale="   93.364">  7  8 -1 -1</clus>
<clus scale="   94.521">  5  6 -1 -1</clus>
<clus scale="  106.004">  2  7  1 -1</clus>
<clus scale="   24.991">  1  5  2 -1</clus>
</clustering>
</event>
<event>
 9    1  0.1445593E-005  0.9652890E+02  0.7546771E-02  0.1290486E+00
         21   -1    0    0  501  502  0.00000000000E+00  0.00000000000E+00  0.23216541582E+03  0.23216541582E+03  0.00000000000E+00 0. -1.
         -1   -1    0    0    0  501 -0.00000000000E+00 -0.00000000000E+00 -0.83641583346E+02  0.83641583346E+02  0.00000000000E+00 0.  1.
         23    2    1    2    0    0 -0.29364640714E+01 -0.32154858171E+02 -0.22146569259E+02  0.93243319037E+02  0.84624395358E+02 0.  0.
         23    2    1    2    0    0 -0.30871181263E+01  0.52181614104E+02  0.17270380611E+03  0.20155203505E+03  0.89800707333E+02 0.  0.
        -11    1    4    4    0    0  0.22396440640E+02  0.67226962384E+02  0.95858495091E+02  0.11920535267E+03  0.00000000000E+00 0. -1.
         11    1    4    4    0    0 -0.25483558766E+02 -0.15045348280E+02  0.76845311019E+02  0.82346682374E+02  0.00000000000E+00 0.  1.
        -11    1    3    3    0    0  0.31436263897E+02  0.12815932246E+02 -0.72616550318E+01  0.34716256148E+02  0.00000000000E+00 0. -1.
         11    1    3    3    0    0 -0.34372727969E+02 -0.44970790417E+02 -0.14884914227E+02  0.58527062888E+02  0.00000000000E+00 0.  1.
         -1    1    1    2    0  502  0.60235821977E+01 -0.20026755932E+02 -0.20334043787E+01  0.21011645082E+02  0.00000000000E+00 0.  1.
<scales pt_clust_5="13000.00000" pt_clust_6="13000.00000" pt_clust_7="13000.00000" pt_clust_8="13000.00000" pt_clust_9="20.91303"></scales>
<clustering>
<clus scale="   20.913">  1  9  2 -1</clus>
<clus scale="   84.624">  7  8 -1 -1</clus>
<clus scale="   89.801">  5  6 -1 -1</clus>
<clus scale="   91.733">  2  7  1 -1</clus>
<clus scale="   20.913">  1  5  2 -1</clus>
</clustering>
</event>
<event>
 9    1  0.1445593E-005  0.1166733E+03  0.7546771E-02  0.1255305E+00
          1   -1    0    0  502    0 -0.00000000000E+00  0.00000000000E+00  0.42428585884E+03  0.42428585884E+03  0.00000000000E+00 0. -1.
         21   -1    0    0  501  502  0.00000000000E+00 -0.00000000000E+00 -0.55926251691E+02  0.55926251691E+02  0.00000000000E+00 0.  1.
         23    2    1    2    0    0  0.43085900308E+02 -0.49188380263E+02  0.21967010618E+03  0.25348506929E+03  0.10827665143E+03 0.  0.
         23    2    1    2    0    0  0.18228735558E+02  0.20855061724E+02  0.54870221183E+02  0.11112289439E+03  0.92576109687E+02 0.  0.
        -11    1    4    4    0    0 -0.97905554488E+01 -0.21270248352E+02  0.55808349384E+02  0.60521486283E+02  0.00000000000E+00 0. -1.
         11    1    4    4    0    0  0.28019291007E+02  0.42125310076E+02 -0.93812820088E+00  0.50601408104E+02  0.00000000000E+00 0.  1.
        -11    1    3    3    0    0  0.20254707838E+02 -0.80931004366E+02  0.11764096580E+03  0.14422023954E+03  0.00000000000E+00 0. -1.
         11    1    3    3    0    0  0.22831192469E+02  0.31742624103E+02  0.10202914038E+03  0.10926482975E+03  0.00000000000E+00 0.  1.
          1    1    1    2  501    0 -0.61314635866E+02  0.28333318539E+02  0.93819279790E+02  0.11560414686E+03  0.00000000000E+00 0. -1.
<scales pt_clust_5="13000.00000" pt_clust_6="13000.00000" pt_clust_7="13000.00000" pt_clust_8="13000.00000" pt_clust_9="67.54455"></scales>
<clustering>
<clus scale="   67.545">  2  9  1 -1</clus>
<clus scale="   92.576">  5  6 -1 -1</clus>
<clus scale="  102.270">  2  5  1 -1</clus>
<clus scale="  108.277">  7  8 -1 -1</clus>
<clus scale="   67.545">  2  5  1 -1</clus>
</clustering>
</event>
<event>
 9    1  0.1445593E-005  0.1229381E+03  0.7546771E-02  0.1238599E+00
         21   -1    0    0  501  502  0.00000000000E+00  0.00000000000E+00  0.15134613676E+03  0.15134613676E+03  0.00000000000E+00 0.  1.
          1   -1    0    0  502    0 -0.00000000000E+00 -0.00000000000E+00 -0.12105938617E+03  0.12105938617E+03  0.00000000000E+00 0. -1.
         23    2    1    2    0    0  0.22249106615E+02  0.76535540972E+02 -0.23387876233E+01  0.12059089560E+03  0.90465365730E+02 0.  0.
         23    2    1    2    0    0 -0.62229981263E+01 -0.89139989233E+02  0.35088027371E+02  0.13127753595E+03  0.89543053303E+02 0.  0.
        -11    1    3    3    0    0 -0.26956390037E+02  0.18544630317E+02 -0.25062735102E+02  0.41215178857E+02  0.00000000000E+00 0.  1.
         11    1    3    3    0    0  0.49205496651E+02  0.57990910655E+02  0.22723947479E+02  0.79375716742E+02  0.00000000000E+00 0. -1.
        -13    1    4    4    0    0 -0.21248317471E+02 -0.41100465939E+02 -0.25243299887E+02  0.52706389413E+02  0.00000000000E+00 0. -1.
         13    1    4    4    0    0  0.15025319345E+02 -0.48039523294E+02  0.60331327259E+02  0.78571146539E+02  0.00000000000E+00 0.  1.
          1    1    1    2  501    0 -0.16026108488E+02  0.12604448261E+02 -0.24624891598E+01  0.20537091374E+02  0.00000000000E+00 0. -1.
<scales pt_clust_5="13000.00000" pt_clust_6="13000.00000" pt_clust_7="13000.00000" pt_clust_8="13000.00000" pt_clust_9="20.38894"></scales>
<clustering>
<clus scale="   20.389">  1  9  2 -1</clus>
<clus scale="   89.543">  7  8 -1 -1</clus>
<clus scale="   90.465">  5  6 -1 -1</clus>
<clus scale="  122.261">  1  7  2 -1</clus>
<clus scale="   20.389">  1  5  2 -1</clus>
</clustering>
</event>
<event>
 9    1  0.1445593E-005  0.1131601E+03  0.7546771E-02  0.1255260E+00
         21   -1    0    0  501  502  0.00000000000E+00  0.00000000000E+00  0.55285781753E+02  0.55285781753E+02  0.00000000000E+00 0. -1.
          2   -1    0    0  502    0 -0.00000000000E+00 -0.00000000000E+00 -0.75129121863E+03  0.75129121863E+03  0.00000000000E+00 0. -1.
         23    2    1    2    0    0 -0.50648860800E+02  0.21304523779E+02 -0.43727310669E+03  0.44976205379E+03  0.89771628923E+02 0.  0.
         23    2    1    2    0    0  0.86225220615E+02 -0.45074971224E+02 -0.27922799890E+03  0.30937251848E+03  0.90975480869E+02 0.  0.
        -13    1    3    3    0    0  0.91340187458E+01  0.39807517629E+02 -0.21511621656E+03  0.21895902673E+03  0.00000000000E+00 0.  1.
         13    1    3    3    0    0 -0.59782879546E+02 -0.18502993850E+02 -0.22215689013E+03  0.23080302706E+03  0.00000000000E+00 0. -1.
        -13    1    4    4    0    0  0.28833744707E+02 -0.10386225774E+02 -0.10488553511E+02  0.32392410753E+02  0.00000000000E+00 0.  1.
         13    1    4    4    0    0  0.57391475908E+02 -0.34688745451E+02 -0.26873944539E+03  0.27698010772E+03  0.00000000000E+00 0. -1.
          2    1    1    2  501    0 -0.35576359815E+02  0.23770447445E+02  0.20495668714E+02  0.47442428115E+02  0.00000000000E+00 0. -1.
<scales pt_clust_5="13000.00000" pt_clust_6="13000.00000" pt_clust_7="13000.00000" pt_clust_8="13000.00000" pt_clust_9="42.78682"></scales>
<clustering>
<clus scale="   42.787">  1  9  2 -1</clus>
<clus scale="   89.772">  5  6 -1 -1</clus>
<clus scale="   90.975">  7  8 -1 -1</clus>
<clus scale="  112.195">  2  5  1 -1</clus>
<clus scale="   42.787">  1  5  2 -1</clus>
</clustering>
</event>
<event>
 9    1  0.1445593E-005  0.1332169E+03  0.7546771E-02  0.1223144E+00
          2   -1    0    0  502    0 -0.00000000000E+00  0.00000000000E+00  0.11222061763E+03  0.11222061763E+03  0.00000000000E+00 0. -1.
         21   -1    0    0  501  502  0.00000000000E+00 -0.00000000000E+00 -0.22930721577E+03  0.22930721577E+03  0.00000000000E+00 0. -1.
         23    2    1    2    0    0  0.34333900165E+02  0.73873249777E+02 -0.21961713290E+02  0.12466735401E+03  0.91779946461E+02 0.  0.
         23    2    1    2    0    0 -0.59439875529E+02 -0.10134356746E+03 -0.45765076875E+02  0.15504366132E+03  0.90224593018E+02 0.  0.
        -11    1    4    4    0    0  0.20667539661E+02 -0.46932215419E+02 -0.16895841688E+02  0.53993050536E+02  0.00000000000E+00 0.  1.
         11    1    4    4    0    0 -0.80107415191E+02 -0.54411352046E+02 -0.28869235186E+02  0.10105061079E+03  0.00000000000E+00 0. -1.
        -13    1    3    3    0    0 -0.19759708718E+02  0.59054559075E+02  0.49290898306E+01  0.62467455228E+02  0.00000000000E+00 0. -1.
         13    1    3    3    0    0  0.54093608883E+02  0.14818690702E+02 -0.26890803121E+02  0.62199898783E+02  0.00000000000E+00 0.  1.
          2    1    1    2  501    0  0.25105975364E+02  0.27470317688E+02 -0.49359807979E+02  0.61816818072E+02  0.00000000000E+00 0. -1.
<scales pt_clust_5="13000.00000" pt_clust_6="13000.00000" pt_clust_7="13000.00000" pt_clust_8="13000.00000" pt_clust_9="37.21463"></scales>
<clustering>
<clus scale="   37.215">  2  9  1 -1</clus>
<clus scale="   90.225">  5  6 -1 -1</clus>
<clus scale="   91.780">  7  8 -1 -1</clus>
<clus scale="  132.150">  2  5  1 -1</clus>
<clus scale="   37.215">  2  5  1 -1</clus>
</clustering>
</event>
<event>
 9    1  0.1445593E-005  0.1085760E+03  0.7546771E-02  0.1264333E+00
         21   -1    0    0  501  502  0.00000000000E+00  0.00000000000E+00  0.11056601387E+03  0.11056601387E+03  0.00000000000E+00 0. -1.
         -4   -1    0    0    0  501 -0.00000000000E+00 -0.00000000000E+00 -0.23617535261E+03  0.23617535261E+03  0.00000000000E+00 0.  1.
         23    2    1    2    0    0 -0.64900910282E+02  0.30510869687E+02 -0.13687509110E+03  0.17841685293E+03  0.89189357667E+02 0.  0.
         23    2    1    2    0    0  0.56520867593E+00 -0.27354960033E+02  0.31252279662E+02  0.10088191914E+03  0.91933907384E+02 0.  0.
        -11    1    3    3    0    0 -0.37136676428E+02 -0.13107264290E+02 -0.11626828220E+03  0.12275685952E+03  0.00000000000E+00 0.  1.
         11    1    3    3    0    0 -0.27764233854E+02  0.43618133978E+02 -0.20606808897E+02  0.55659993407E+02  0.00000000000E+00 0. -1.
        -11    1    4    4    0    0 -0.76189437396E+01  0.30754337054E+02  0.27710807398E+02  0.42092355576E+02  0.00000000000E+00 0. -1.
         11    1    4    4    0    0  0.81841524155E+01 -0.58109297087E+02  0.35414722648E+01  0.58789563568E+02  0.00000000000E+00 0.  1.
         -4    1    1    2    0  502  0.64335701606E+02 -0.31559096547E+01 -0.19986527304E+02  0.67442594408E+02  0.00000000000E+00 0.  1.
<scales pt_clust_5="13000.00000" pt_clust_6="13000.00000" pt_clust_7="13000.00000" pt_clust_8="13000.00000" pt_clust_9="64.41306"></scales>
<clustering>
<clus scale="   64.413">  1  9  2 -1</clus>
<clus scale="   89.189">  5  6 -1 -1</clus>
<clus scale="   91.934">  7  8 -1 -1</clus>
<clus scale="  106.262">  2  5  1 -1</clus>
<clus scale="   64.413">  1  5  2 -1</clus>
</clustering>
</event>
<event>
 9    1  0.1445593E-005  0.9897584E+02  0.7546771E-02  0.1283748E+00
          3   -1    0    0  502    0 -0.00000000000E+00  0.00000000000E+00  0.13243338818E+03  0.13243338818E+03  0.00000000000E+00 0. -1.
         21   -1    0    0  501  502  0.00000000000E+00 -0.00000000000E+00 -0.13148757736E+03  0.13148757736E+03  0.00000000000E+00 0. -1.
         23    2    1    2    0    0 -0.39434324453E+02 -0.17752349262E+02  0.42554391069E+02  0.11184893665E+03  0.93963272514E+02 0.  0.
         23    2    1    2    0    0  0.14316016206E+02  0.84120450608E+01  0.10433911872E+02  0.93534932300E+02  0.91456034362E+02 0.  0.
        -11    1    3    3    0    0 -0.42823643916E+02  0.71800908747E+01  0.64974305780E+02  0.78147799680E+02  0.00000000000E+00 0.  1.
         11    1    3    3    0    0  0.33893194623E+01 -0.24932440137E+02 -0.22419914711E+02  0.33701136973E+02  0.00000000000E+00 0. -1.
        -13    1    4    4    0    0  0.46770691563E+02  0.26399522957E+02 -0.36858874850E+01  0.53833244080E+02  0.00000000000E+00 0.  1.
         13    1    4    4    0    0 -0.32454675357E+02 -0.17987477897E+02  0.14119799357E+02  0.39701688220E+02  0.00000000000E+00 0. -1.
          3    1    1    2  501    0  0.25118308248E+02  0.93403042011E+01 -0.52042492115E+02  0.58537096591E+02  0.00000000000E+00 0. -1.
<scales pt_clust_5="13000.00000" pt_clust_6="13000.00000" pt_clust_7="13000.00000" pt_clust_8="13000.00000" pt_clust_9="26.79871"></scales>
<clustering>
<clus scale="   26.799">  2  9  1 -1</clus>
<clus scale="   91.456">  7  8 -1 -1</clus>
<clus scale="   93.963">  5  6 -1 -1</clus>
<clus scale="   96.599">  2  7  1 -1</clus>
<clus scale="   26.799">  2  5  1 -1</clus>
</clustering>
</event>
<event>
 9    1  0.1445593E-005  0.1441999E+03  0.7546771E-02  0.1207863E+00
         21   -1    0    0  501  502  0.00000000000E+00  0.00000000000E+00  0.53481084530E+02  0.53481084530E+02  0.00000000000E+00 0.  1.
         -1   -1    0    0    0  501 -0.00000000000E+00 -0.00000000000E+00 -0.80548326854E+03  0.80548326854E+03  0.00000000000E+00 0.  1.
         23    2    1    2    0    0 -0.59253789918E+02  0.10809704603E+03 -0.63741204018E+03  0.65554410842E+03  0.90818424024E+02 0.  0.
         23    2    1    2    0    0  0.34347697805E+02 -0.69318314462E+02 -0.98868789254E+02  0.15472461409E+03  0.90442664994E+02 0.  0.
        -13    1    3    3    0    0 -0.18460601992E+02  0.10996893681E+03 -0.49420081598E+03  0.50662452310E+03  0.00000000000E+00 0.  1.
         13    1    3    3    0    0 -0.40793187926E+02 -0.18718907862E+01 -0.14321122420E+03  0.14891958532E+03  0.00000000000E+00 0. -1.
        -13    1    4    4    0    0  0.58831730920E+02 -0.59586856012E+02 -0.45722587147E+02  0.95406084438E+02  0.00000000000E+00 0. -1.
         13    1    4    4    0    0 -0.24484033115E+02 -0.97314584497E+01 -0.53146202107E+02  0.59318529647E+02  0.00000000000E+00 0.  1.
         -1    1    1    2    0  502  0.24906092113E+02 -0.38778731565E+02 -0.15721354577E+02  0.48695630562E+02  0.00000000000E+00 0.  1.
<scales pt_clust_5="13000.00000" pt_clust_6="13000.00000" pt_clust_7="13000.00000" pt_clust_8="13000.00000" pt_clust_9="46.08800"></scales>
<clustering>
<clus scale="   46.088">  1  9  2 -1</clus>
<clus scale="   90.443">  7  8 -1 -1</clus>
<clus scale="   90.818">  5  6 -1 -1</clus>
<clus scale="  143.964">  1  7  2 -1</clus>
<clus scale="   46.088">  1  5  2 -1</clus>
</clustering>
</event>
<event>
 9    1  0.1445593E-005  0.1070438E+03  0.7546771E-02  0.1266924E+00
          1   -1    0    0  502    0 -0.00000000000E+00  0.00000000000E+00  0.67022446074E+03  0.67022446074E+03  0.00000000000E+00 0. -1.
         21   -1    0    0  501  502  0.00000000000E+00 -0.00000000000E+00 -0.48837349462E+02  0.48837349462E+02  0.00000000000E+00 0. -1.
         23    2    1    2    0    0  0.21298325242E+01 -0.42714604307E+02  0.39027178183E+03  0.40320846113E+03  0.91847296265E+02 0.  0.
         23    2    1    2    0    0  0.32389112651E+02  0.10621482786E+03  0.15797555061E+03  0.21302697495E+03  0.89964288399E+02 0.  0.
        -13    1    4    4    0    0  0.37793524330E+01  0.28937046723E+02  0.11778170542E+03  0.12134317579E+03  0.00000000000E+00 0.  1.
         13    1    4    4    0    0  0.28609760218E+02  0.77277781136E+02  0.40193845194E+02  0.91683799161E+02  0.00000000000E+00 0. -1.
        -13    1    3    3    0    0 -0.15485056298E+02  0.25944461794E+02  0.12912329297E+03  0.13261118676E+03  0.00000000000E+00 0. -1.
         13    1    3    3    0    0  0.17614888823E+02 -0.68659066101E+02  0.26114848885E+03  0.27059727437E+03  0.00000000000E+00 0.  1.
          1    1    1    2  501    0 -0.34518945176E+02 -0.63500223552E+02  0.73139778837E+02  0.10282637412E+03  0.00000000000E+00 0. -1.
<scales pt_clust_5="13000.00000" pt_clust_6="13000.00000" pt_clust_7="13000.00000" pt_clust_8="13000.00000" pt_clust_9="72.27611"></scales>
<clustering>
<clus scale="   72.276">  2  9  1 -1</clus>
<clus scale="   89.964">  5  6 -1 -1</clus>
<clus scale="   91.847">  7  8 -1 -1</clus>
<clus scale="  105.433">  2  5  1 -1</clus>
<clus scale="   72.276">  2  5  1 -1</clus>
</clustering>
</event>
<event>
 9    1  0.1445593E-005  0.1086477E+03  0.7546771E-02  0.1263675E+00
          1   -1    0    0  502    0 -0.00000000000E+00  0.00000000000E+00  0.70238306310E+03  0.70238306310E+03  0.00000000000E+00 0. -1.
         21   -1    0    0  501  502  0.00000000000E+00 -0.00000000000E+00 -0.47136657614E+02  0.47136657614E+02  0.00000000000E+00 0.  1.
         23    2    1    2    0    0 -0.50254524711E+02  0.15301516032E+02  0.52717338474E+03  0.53774594604E+03  0.92191492322E+02 0.  0.
         23    2    1    2    0    0  0.88284515229E+02  0.38587007750E+00  0.10580445838E+03  0.16499489983E+03  0.90743754789E+02 0.  0.
        -11    1    3    3    0    0 -0.74748870513E+02 -0.40648133681E+01  0.37709526592E+03  0.38445384109E+03  0.00000000000E+00 0. -1.
         11    1    3    3    0    0  0.24494345803E+02  0.19366329400E+02  0.15007811882E+03  0.15329210495E+03  0.00000000000E+00 0.  1.
        -13    1    4    4    0    0  0.69838653595E+02 -0.24529040411E+02  0.24482672777E+02  0.77964816590E+02  0.00000000000E+00 0.  1.
         13    1    4    4    0    0  0.18445861633E+02  0.24914910489E+02  0.81321785599E+02  0.87030083242E+02  0.00000000000E+00 0. -1.
          1    1    1    2  501    0 -0.38029990518E+02 -0.15687386109E+02  0.22268562374E+02  0.46778874847E+02  0.00000000000E+00 0. -1.
<scales pt_clust_5="13000.00000" pt_clust_6="13000.00000" pt_clust_7="13000.00000" pt_clust_8="13000.00000" pt_clust_9="41.13848"></scales>
<clustering>
<clus scale="   41.138">  2  9  1 -1</clus>
<clus scale="   90.744">  7  8 -1 -1</clus>
<clus scale="   92.191">  5  6 -1 -1</clus>
<clus scale="  107.422">  2  7  1 -1</clus>
<clus scale="   41.138">  2  5  1 -1</clus>
</clustering>
</event>
<event>
 9    1  0.1445593E-005  0.2226241E+03  0.7546771E-02  0.1158361E+00
          2   -1    0    0  502    0 -0.00000000000E+00  0.00000000000E+00  0.54892941128E+03  0.54892941128E+03  0.00000000000E+00 0. -1.
         21   -1    0    0  501  502  0.00000000000E+00 -0.00000000000E+00 -0.27172227553E+03  0.27172227553E+03  0.00000000000E+00 0. -1.
         23    2    1    2    0    0  0.38467038291E+02 -0.68134004706E+02  0.42583145776E+02  0.12581423808E+03  0.88847861922E+02 0.  0.
         23    2    1    2    0    0  0.10149879874E+03  0.21382803953E+03  0.37275170364E+03  0.45009993096E+03  0.87302225873E+02 0.  0.
        -11    1    3    3    0    0 -0.21656397982E+02 -0.22381037334E+02 -0.11175732495E+02  0.33087873949E+02  0.00000000000E+00 0.  1.
         11    1    3    3    0    0  0.60123436272E+02 -0.45752967372E+02  0.53758878271E+02  0.92726364134E+02  0.00000000000E+00 0. -1.
        -13    1    4    4    0    0  0.48204463800E+02  0.16870812779E+03  0.21446253183E+03  0.27709254821E+03  0.00000000000E+00 0. -1.
         13    1    4    4    0    0  0.53294334939E+02  0.45119911738E+02  0.15828917182E+03  0.17300738275E+03  0.00000000000E+00 0.  1.
          2    1    1    2  501    0 -0.13996583703E+03 -0.14569403482E+03 -0.13812771367E+03  0.24473751777E+03  0.00000000000E+00 0. -1.
<scales pt_clust_5="13000.00000" pt_clust_6="13000.00000" pt_clust_7="13000.00000" pt_clust_8="13000.00000" pt_clust_9="204.79213"></scales>
<clustering>
<clus scale="   87.302">  7  8 -1 -1</clus>
<clus scale="   88.848">  5  6 -1 -1</clus>
<clus scale="  118.389">  1  5  2 -1</clus>
<clus scale="  204.792">  2  9  1 -1</clus>
<clus scale="  204.792">  2  5  1 -1</clus>
</clustering>
</event>
<event>
 9    1  0.1445593E-005  0.1166996E+03  0.7546771E-02  0.1256303E+00
         -3   -1    0    0    0  501 -0.00000000000E+00  0.00000000000E+00  0.87061927138E+02  0.87061927138E+02  0.00000000000E+00 0.  1.
         21   -1    0    0  501  502  0.00000000000E+00 -0.00000000000E+00 -0.33076722839E+03  0.33076722839E+03  0.00000000000E+00 0. -1.
         23    2    1    2    0    0  0.44074676657E+02  0.43174096431E+01  0.31429386974E+02  0.10367271912E+03  0.88311999049E+02 0.  0.
         23    2    1    2    0    0 -0.65901612842E+02 -0.15524677607E+02 -0.21775989703E+03  0.25175543751E+03  0.10666484600E+03 0.  0.
        -13    1    4    4    0    0 -0.75905583034E+02  0.25911234781E+02 -0.11225290943E+03  0.13796291277E+03  0.00000000000E+00 0.  1.
         13    1    4    4    0    0  0.10003970192E+02 -0.41435912388E+02 -0.10550698760E+03  0.11379252474E+03  0.00000000000E+00 0. -1.
        -13    1    3    3    0    0  0.46169226618E+01  0.34826830176E+02  0.39811618232E+02  0.53096035833E+02  0.00000000000E+00 0.  1.
         13    1    3    3    0    0  0.39457753995E+02 -0.30509420532E+02 -0.83822312581E+01  0.50576683288E+02  0.00000000000E+00 0. -1.
         -3    1    1    2    0  502  0.21826936186E+02  0.11207267963E+02 -0.57374791197E+02  0.62400998897E+02  0.00000000000E+00 0.  1.
<scales pt_clust_5="13000.00000" pt_clust_6="13000.00000" pt_clust_7="13000.00000" pt_clust_8="13000.00000" pt_clust_9="24.53606"></scales>
<clustering>
<clus scale="   24.536">  2  9  1 -1</clus>
<clus scale="   88.312">  7  8 -1 -1</clus>
<clus scale="  100.202">  1  7  2 -1</clus>
<clus scale="  106.665">  5  6 -1 -1</clus>
<clus scale="   24.536">  2  5  1 -1</clus>
</clustering>
</event>
<event>
 9    1  0.1445593E-005  0.9878022E+02  0.7546771E-02  0.1283631E+00
         21   -1    0    0  501  502  0.00000000000E+00  0.00000000000E+00  0.65566647286E+02  0.65566647286E+02  0.00000000000E+00 0.  1.
          1   -1    0    0  502    0 -0.00000000000E+00 -0.00000000000E+00 -0.24422395910E+03  0.24422395910E+03  0.00000000000E+00 0. -1.
         23    2    1    2    0    0  0.29184346898E+02 -0.34369461450E+02 -0.12720566620E+03  0.16465259780E+03  0.94319724688E+02 0.  0.
         23    2    1    2    0    0 -0.19524471537E+01  0.13279555712E+01 -0.34794853856E+02  0.99194933084E+02  0.92862141795E+02 0.  0.
        -11    1    4    4    0    0  0.24683676346E+02 -0.35290816759E+02 -0.16846717638E+01  0.43099463389E+02  0.00000000000E+00 0.  1.
         11    1    4    4    0    0 -0.26636123500E+02  0.36618772330E+02 -0.33110182092E+02  0.56095469695E+02  0.00000000000E+00 0. -1.
        -13    1    3    3    0    0  0.23053417594E+02 -0.53509274656E+02 -0.13174053610E+03  0.14404954491E+03  0.00000000000E+00 0.  1.
         13    1    3    3    0    0  0.61309293042E+01  0.19139813206E+02  0.45348698944E+01  0.20603052896E+02  0.00000000000E+00 0. -1.
          1    1    1    2  501    0 -0.27231899744E+02  0.33041505879E+02 -0.16656791752E+02  0.45943075495E+02  0.00000000000E+00 0. -1.
<scales pt_clust_5="13000.00000" pt_clust_6="13000.00000" pt_clust_7="13000.00000" pt_clust_8="13000.00000" pt_clust_9="42.81726"></scales>
<clustering>
<clus scale="   42.817">  1  9  2 -1</clus>
<clus scale="   92.862">  5  6 -1 -1</clus>
<clus scale="   94.320">  7  8 -1 -1</clus>
<clus scale="   97.389">  1  5  2 -1</clus>
<clus scale="   42.817">  1  5  2 -1</clus>
</clustering>
</event>
<event>
 9    1  0.1445593E-005  0.1042029E+03  0.7546771E-02  0.1273066E+00
          1   -1    0    0  502    0 -0.00000000000E+00  0.00000000000E+00  0.21758344962E+03  0.21758344962E+03  0.00000000000E+00 0. -1.
         21   -1    0    0  501  502  0.00000000000E+00 -0.00000000000E+00 -0.10596308496E+03  0.10596308496E+03  0.00000000000E+00 0. -1.
         23    2    1    2    0    0  0.64263096296E+01  0.53802790122E+02  0.12352003140E+03  0.16382630510E+03  0.92982914596E+02 0.  0.
         23    2    1    2    0    0  0.30349529899E+01 -0.35872740246E+02  0.39385461173E+02  0.10457345692E+03  0.89935137230E+02 0.  0.
        -11    1    3    3    0    0 -0.30364490187E+02 -0.89298406593E+01  0.20450540604E+02  0.37682475098E+02  0.00000000000E+00 0.  1.
         11    1    3    3    0    0  0.36790799817E+02  0.62732630782E+02  0.10306949079E+03  0.12614383000E+03  0.00000000000E+00 0. -1.
        -11    1    4    4    0    0 -0.13416561707E+02 -0.48400096877E+02 -0.98410187827E+01  0.51180261394E+02  0.00000000000E+00 0.  1.
         11    1    4    4    0    0  0.16451514697E+02  0.12527356631E+02  0.49226479955E+02  0.53393195529E+02  0.00000000000E+00 0. -1.
          1    1    1    2  501    0 -0.94612626196E+01 -0.17930049876E+02 -0.51285127908E+02  0.55146772557E+02  0.00000000000E+00 0. -1.
<scales pt_clust_5="13000.00000" pt_clust_6="13000.00000" pt_clust_7="13000.00000" pt_clust_8="13000.00000" pt_clust_9="20.27319"></scales>
<clustering>
<clus scale="   20.273">  2  9  1 -1</clus>
<clus scale="   89.935">  7  8 -1 -1</clus>
<clus scale="   92.983">  5  6 -1 -1</clus>
<clus scale="  101.493">  2  7  1 -1</clus>
<clus scale="   20.273">  2  5  1 -1</clus>
</clustering>
</event>
<event>
 9    1  0.1445593E-005  0.9345829E+02  0.7546771E-02  0.1294993E+00
          1   -1    0    0  502    0 -0.00000000000E+00  0.00000000000E+00  0.80625799737E+03  0.80625799737E+03  0.00000000000E+00 0. -1.
         21   -1    0    0  501  502  0.00000000000E+00 -0.00000000000E+00 -0.18160102294E+02  0.18160102294E+02  0.00000000000E+00 0. -1.
         23    2    1    2    0    0  0.37267031028E+01 -0.73895456930E+01  0.37941599855E+03  0.39032217016E+03  0.91249125296E+02 0.  0.
         23    2    1    2    0    0 -0.46080674161E+02 -0.58586810020E+01  0.29053028746E+03  0.30788508567E+03  0.90706258721E+02 0.  0.
        -11    1    4    4    0    0 -0.73813829273E+02 -0.45080350548E+01  0.20257220041E+03  0.21564855703E+03  0.00000000000E+00 0.  1.
         11    1    4    4    0    0  0.27733155112E+02 -0.13506459472E+01  0.87958087055E+02  0.92236528638E+02  0.00000000000E+00 0. -1.
        -11    1    3    3    0    0 -0.40819003357E+02  0.11449983959E+02  0.15078855695E+03  0.15663486865E+03  0.00000000000E+00 0. -1.
         11    1    3    3    0    0  0.44545706459E+02 -0.18839529653E+02  0.22862744159E+03  0.23368730152E+03  0.00000000000E+00 0.  1.
          1    1    1    2  501    0  0.42353971058E+02  0.13248226695E+02  0.11815160906E+03  0.12621084383E+03  0.00000000000E+00 0. -1.
<scales pt_clust_5="13000.00000" pt_clust_6="13000.00000" pt_clust_7="13000.00000" pt_clust_8="13000.00000" pt_clust_9="44.37763"></scales>
<clustering>
<clus scale="   44.378">  2  9  1 -1</clus>
<clus scale="   90.706">  5  6 -1 -1</clus>
<clus scale="   91.249">  7  8 -1 -1</clus>
<clus scale="   92.928">  2  5  1 -1</clus>
<clus scale="   44.378">  2  5  1 -1</clus>
</clustering>
</event>
<event>
 9    1  0.1445593E-005  0.1003544E+03  0.7546771E-02  0.1281512E+00
          4   -1    0    0  502    0 -0.00000000000E+00  0.00000000000E+00  0.64978682821E+03  0.64978682821E+03  0.00000000000E+00 0. -1.
         21   -1    0    0  501  502  0.00000000000E+00 -0.00000000000E+00 -0.32815511708E+02  0.32815511708E+02  0.00000000000E+00 0.  1.
         23    2    1    2    0    0 -0.32924005587E+02 -0.10403810072E+02  0.21389541470E+03  0.23561820275E+03  0.92587578164E+02 0.  0.
         23    2    1    2    0    0 -0.96104847698E+00  0.69373414606E+02  0.16752061435E+03  0.20180684500E+03  0.88596005485E+02 0.  0.
        -11    1    3    3    0    0 -0.27837608408E+01  0.39799970085E+02  0.76922526436E+02  0.86653690149E+02  0.00000000000E+00 0.  1.
         11    1    3    3    0    0 -0.30140244746E+02 -0.50203780157E+02  0.13697288826E+03  0.14896451260E+03  0.00000000000E+00 0. -1.
        -13    1    4    4    0    0 -0.36035979527E+02  0.68254747416E+02  0.12129121578E+03  0.14376669082E+03  0.00000000000E+00 0.  1.
         13    1    4    4    0    0  0.35074931050E+02  0.11186671901E+01  0.46229398575E+02  0.58040154179E+02  0.00000000000E+00 0. -1.
          4    1    1    2  501    0  0.33885054064E+02 -0.58969604534E+02  0.23555528745E+03  0.24517729217E+03  0.00000000000E+00 0. -1.
<scales pt_clust_5="13000.00000" pt_clust_6="13000.00000" pt_clust_7="13000.00000" pt_clust_8="13000.00000" pt_clust_9="68.01188"></scales>
<clustering>
<clus scale="   68.012">  2  9  1 -1</clus>
<clus scale="   88.596">  7  8 -1 -1</clus>
<clus scale="   92.588">  5  6 -1 -1</clus>
<clus scale="   96.684">  2  7  1 -1</clus>
<clus scale="   68.012">  2  5  1 -1</clus>
</clustering>
</event>
<event>
 9    1  0.1445593E-005  0.1289039E+03  0.7546771E-02  0.1251139E+00
          3   -1    0    0  502    0 -0.00000000000E+00  0.00000000000E+00  0.26356562259E+03  0.26356562259E+03  0.00000000000E+00 0. -1.
         21   -1    0    0  501  502  0.00000000000E+00 -0.00000000000E+00 -0.11473432963E+03  0.11473432963E+03  0.00000000000E+00 0.  1.
         23    2    1    2    0    0  0.13491568220E+02  0.20979915100E+00  0.13528046182E+03  0.15838906896E+03  0.81266397658E+02 0.  0.
         23    2    1    2    0    0 -0.51213699895E+02  0.78970449597E+02  0.90965241090E+01  0.13209111407E+03  0.92228741172E+02 0.  0.
        -11    1    4    4    0    0 -0.77291971696E+02  0.46929604374E+02  0.47002974313E+01  0.90545731270E+02  0.00000000000E+00 0.  1.
         11    1    4    4    0    0  0.26078271801E+02  0.32040845223E+02  0.43962266777E+01  0.41545382797E+02  0.00000000000E+00 0. -1.
        -11    1    3    3    0    0 -0.10761795384E+02  0.24742022865E+02  0.10540739927E+02  0.28967069813E+02  0.00000000000E+00 0.  1.
         11    1    3    3    0    0  0.24253363603E+02 -0.24532223714E+02  0.12473972189E+03  0.12942199915E+03  0.00000000000E+00 0. -1.
          3    1    1    2  501    0  0.37722131675E+02 -0.79180248748E+02  0.44543070397E+01  0.87819769193E+02  0.00000000000E+00 0. -1.
<scales pt_clust_5="13000.00000" pt_clust_6="13000.00000" pt_clust_7="13000.00000" pt_clust_8="13000.00000" pt_clust_9="90.05600"></scales>
<clustering>
<clus scale="   81.266">  7  8 -1 -1</clus>
<clus scale="   82.379">  1  7  2 -1</clus>
<clus scale="   90.056">  2  9  1 -1</clus>
<clus scale="   92.229">  5  6 -1 -1</clus>
<clus scale="   90.056">  2  5  1 -1</clus>
</clustering>
</event>
<event>
 9    1  0.1445593E-005  0.9689767E+02  0.7546771E-02  0.1287331E+00
          2   -1    0    0  502    0 -0.00000000000E+00  0.00000000000E+00  0.36126653685E+03  0.36126653685E+03  0.00000000000E+00 0. -1.
         21   -1    0    0  501  502  0.00000000000E+00 -0.00000000000E+00 -0.39518499375E+02  0.39518499375E+02  0.00000000000E+00 0.  1.
         23    2    1    2    0    0 -0.36963534255E+02  0.15264994365E+01  0.20412302758E+03  0.22695015697E+03  0.92040916408E+02 0.  0.
         23    2    1    2    0    0  0.13330106646E+02 -0.22402924311E+02  0.76150171050E+02  0.12173376340E+03  0.91327311581E+02 0.  0.
        -11    1    4    4    0    0 -0.12832318815E+02 -0.15733880364E+02 -0.15911111229E+02  0.25795093681E+02  0.00000000000E+00 0.  1.
         11    1    4    4    0    0  0.26162425462E+02 -0.66690439470E+01  0.92061282280E+02  0.95938669723E+02  0.00000000000E+00 0. -1.
        -13    1    3    3    0    0 -0.51777565688E+02 -0.18854246811E+02  0.19049536651E+03  0.19830502665E+03  0.00000000000E+00 0. -1.
         13    1    3    3    0    0  0.14814031432E+02  0.20380746247E+02  0.13627661072E+02  0.28645130322E+02  0.00000000000E+00 0.  1.
          2    1    1    2  501    0  0.23633427609E+02  0.20876424874E+02  0.41474838844E+02  0.52101115854E+02  0.00000000000E+00 0. -1.
<scales pt_clust_5="13000.00000" pt_clust_6="13000.00000" pt_clust_7="13000.00000" pt_clust_8="13000.00000" pt_clust_9="31.53354"></scales>
<clustering>
<clus scale="   31.534">  2  9  1 -1</clus>
<clus scale="   91.327">  5  6 -1 -1</clus>
<clus scale="   92.041">  7  8 -1 -1</clus>
<clus scale="   96.220">  2  5  1 -1</clus>
<clus scale="   31.534">  2  5  1 -1</clus>
</clustering>
</event>
<event>
 9    1  0.1905577E-005  0.9918700E+02  0.7546771E-02  0.1282298E+00
          1   -1    0    0  502    0 -0.00000000000E+00  0.00000000000E+00  0.23806232771E+03  0.23806232771E+03  0.00000000000E+00 0. -1.
         21   -1    0    0  501  502  0.00000000000E+00 -0.00000000000E+00 -0.14746258795E+03  0.14746258795E+03  0.00000000000E+00 0. -1.
         23    2    1    2    0    0 -0.43510368775E+02  0.20566267534E+02  0.17036988638E+03  0.19939829015E+03  0.91747786778E+02 0.  0.
         23    2    1    2    0    0  0.54160581504E+01 -0.40303261116E+01  0.51798327962E+01  0.91569167521E+02  0.91172937642E+02 0.  0.
        -11    1    3    3    0    0 -0.19901116331E+02  0.36453603662E+02  0.16536967319E+03  0.17050527400E+03  0.00000000000E+00 0. -1.
         11    1    3    3    0    0 -0.23609252445E+02 -0.15887336128E+02  0.50002131880E+01  0.28893016148E+02  0.00000000000E+00 0.  1.
        -13    1    4    4    0    0 -0.22685796036E+02 -0.36615055245E+02  0.17982194065E+02  0.46676192174E+02  0.00000000000E+00 0. -1.
         13    1    4    4    0    0  0.28101854187E+02  0.32584729134E+02 -0.12802361269E+02  0.44892975347E+02  0.00000000000E+00 0.  1.
          1    1    1    2  501    0  0.38094310625E+02 -0.16535941422E+02 -0.84949979405E+02  0.94557457990E+02  0.00000000000E+00 0. -1.
<scales pt_clust_5="13000.00000" pt_clust_6="13000.00000" pt_clust_7="13000.00000" pt_clust_8="13000.00000" pt_clust_9="41.52847"></scales>
<clustering>
<clus scale="   41.528">  2  9  1 -1</clus>
<clus scale="   91.173">  7  8 -1 -1</clus>
<clus scale="   91.748">  5  6 -1 -1</clus>
<clus scale="   98.656">  2  7  1 -1</clus>
<clus scale="   41.528">  2  5  1 -1</clus>
</clustering>
</event>
<event>
 9    1  0.1445593E-005  0.1230402E+03  0.7546771E-02  0.1238203E+00
          2   -1    0    0  502    0 -0.00000000000E+00  0.00000000000E+00  0.87624370699E+02  0.87624370699E+02  0.00000000000E+00 0. -1.
         21   -1    0    0  501  502  0.00000000000E+00 -0.00000000000E+00 -0.54795976379E+03  0.54795976379E+03  0.00000000000E+00 0.  1.
         23    2    1    2    0    0  0.82441362273E+02  0.21619299554E+02  0.28512847914E+02  0.12818250423E+03  0.91399122359E+02 0.  0.
         23    2    1    2    0    0 -0.56769302069E+02 -0.21581195919E+02 -0.37508073926E+03  0.39077358654E+03  0.91268468286E+02 0.  0.
        -11    1    4    4    0    0 -0.40023192997E+02  0.33386705595E+02 -0.17274590751E+03  0.18043745911E+03  0.00000000000E+00 0. -1.
         11    1    4    4    0    0 -0.16746109072E+02 -0.54967901513E+02 -0.20233483175E+03  0.21033612743E+03  0.00000000000E+00 0.  1.
        -13    1    3    3    0    0  0.54896153339E+02  0.77305879560E+01  0.61649189669E+02  0.82909421832E+02  0.00000000000E+00 0. -1.
         13    1    3    3    0    0  0.27545208933E+02  0.13888711598E+02 -0.33136341754E+02  0.45273082399E+02  0.00000000000E+00 0.  1.
          2    1    1    2  501    0 -0.25672060203E+02 -0.38103634965E-01 -0.11376750175E+03  0.11662804371E+03  0.00000000000E+00 0. -1.
<scales pt_clust_5="13000.00000" pt_clust_6="13000.00000" pt_clust_7="13000.00000" pt_clust_8="13000.00000" pt_clust_9="25.67209"></scales>
<clustering>
<clus scale="   25.672">  2  9  1 -1</clus>
<clus scale="   91.268">  5  6 -1 -1</clus>
<clus scale="   91.399">  7  8 -1 -1</clus>
<clus scale="  122.943">  2  5  1 -1</clus>
<clus scale="   25.672">  2  5  1 -1</clus>
</clustering>
</event>
<event>
 9    1  0.1445593E-005  0.1115331E+03  0.7546771E-02  0.1261219E+00
         21   -1    0    0  501  502  0.00000000000E+00  0.00000000000E+00  0.42844148110E+02  0.42844148110E+02  0.00000000000E+00 0.  1.
          1   -1    0    0  502    0 -0.00000000000E+00 -0.00000000000E+00 -0.58923139806E+03  0.58923139806E+03  0.00000000000E+00 0. -1.
         23    2    1    2    0    0  0.67909297494E+02  0.45439505478E+01 -0.34842603229E+03  0.36679409645E+03  0.92221955291E+02 0.  0.
         23    2    1    2    0    0 -0.39964719642E+02 -0.58894919645E+02 -0.15813369353E+03  0.19233517530E+03  0.83191130863E+02 0.  0.
        -11    1    4    4    0    0 -0.61115247381E+02 -0.20615820038E+02 -0.79660155992E+02  0.10249793145E+03  0.00000000000E+00 0.  1.
         11    1    4    4    0    0  0.21150527739E+02 -0.38279099607E+02 -0.78473537534E+02  0.89837243855E+02  0.00000000000E+00 0. -1.
        -11    1    3    3    0    0  0.34525660432E+02  0.48276519806E+02 -0.19282480014E+03  0.20175244023E+03  0.00000000000E+00 0. -1.
         11    1    3    3    0    0  0.33383637062E+02 -0.43732569259E+02 -0.15560123215E+03  0.16504165621E+03  0.00000000000E+00 0.  1.
          1    1    1    2  501    0 -0.27944577852E+02  0.54350969097E+02 -0.39827524132E+02  0.72946274419E+02  0.00000000000E+00 0. -1.
<scales pt_clust_5="13000.00000" pt_clust_6="13000.00000" pt_clust_7="13000.00000" pt_clust_8="13000.00000" pt_clust_9="61.11405"></scales>
<clustering>
<clus scale="   61.114">  1  9  2 -1</clus>
<clus scale="   83.191">  5  6 -1 -1</clus>
<clus scale="   92.222">  7  8 -1 -1</clus>
<clus scale="  104.190">  1  5  2 -1</clus>
<clus scale="   61.114">  1  5  2 -1</clus>
</clustering>
</event>
<event>
 9    1  0.1445593E-005  0.1059634E+03  0.7546771E-02  0.1268808E+00
          1   -1    0    0  502    0 -0.00000000000E+00  0.00000000000E+00  0.73678934835E+03  0.73678934835E+03  0.00000000000E+00 0. -1.
         21   -1    0    0  501  502  0.00000000000E+00 -0.00000000000E+00 -0.17383409574E+03  0.17383409574E+03  0.00000000000E+00 0. -1.
         23    2    1    2    0    0  0.18049844436E+00  0.46583269176E+02  0.46978458748E+03  0.48078296651E+03  0.91020155448E+02 0.  0.
         23    2    1    2    0    0  0.22355060774E+02 -0.62565279485E+02  0.24784646608E+03  0.27271670635E+03  0.92370819182E+02 0.  0.
        -11    1    3    3    0    0  0.35343156270E+02 -0.76181572284E+01  0.20968919183E+03  0.21278329865E+03  0.00000000000E+00 0.  1.
         11    1    3    3    0    0 -0.35162657826E+02  0.54201426404E+02  0.26009539566E+03  0.26799966786E+03  0.00000000000E+00 0. -1.
        -13    1    4    4    0    0 -0.32991570309E+02 -0.40874125610E+02  0.92328955009E+02  0.10622510903E+03  0.00000000000E+00 0. -1.
         13    1    4    4    0    0  0.55346631083E+02 -0.21691153875E+02  0.15551751107E+03  0.16649159732E+03  0.00000000000E+00 0.  1.
          1    1    1    2  501    0 -0.22535559218E+02  0.15982010310E+02 -0.15467580095E+03  0.15712377122E+03  0.00000000000E+00 0. -1.
<scales pt_clust_5="13000.00000" pt_clust_6="13000.00000" pt_clust_7="13000.00000" pt_clust_8="13000.00000" pt_clust_9="27.62745"></scales>
<clustering>
<clus scale="   27.627">  2  9  1 -1</clus>
<clus scale="   91.020">  5  6 -1 -1</clus>
<clus scale="   92.371">  7  8 -1 -1</clus>
<clus scale="  104.788">  1  5  2 -1</clus>
<clus scale="   27.627">  2  5  1 -1</clus>
</clustering>
</event>
<event>
 9    1  0.1445593E-005  0.9636800E+02  0.7546771E-02  0.1289948E+00
          2   -1    0    0  502    0 -0.00000000000E+00  0.00000000000E+00  0.51593855916E+03  0.51593855916E+03  0.00000000000E+00 0. -1.
         21   -1    0    0  501  502  0.00000000000E+00 -0.00000000000E+00 -0.32569808961E+02  0.32569808961E+02  0.00000000000E+00 0. -1.
         23    2    1    2    0    0 -0.31640032391E+02 -0.37678009901E+01  0.34474086230E+03  0.35757269025E+03  0.89424150531E+02 0.  0.
         23    2    1    2    0    0  0.41642733137E+02  0.31175761451E+02  0.11923171195E+03  0.15590052467E+03  0.85922797508E+02 0.  0.
        -13    1    4    4    0    0 -0.17017323910E+02 -0.16274139777E+02  0.40544569366E+02  0.46886021836E+02  0.00000000000E+00 0.  1.
         13    1    4    4    0    0  0.58660057047E+02  0.47449901228E+02  0.78687142584E+02  0.10901450283E+03  0.00000000000E+00 0. -1.
        -13    1    3    3    0    0 -0.59670277000E+02 -0.17516390305E+02  0.25784702025E+03  0.26524036597E+03  0.00000000000E+00 0.  1.
         13    1    3    3    0    0  0.28030244609E+02  0.13748589315E+02  0.86893842050E+02  0.92332324281E+02  0.00000000000E+00 0. -1.
          2    1    1    2  501    0 -0.10002700746E+02 -0.27407960461E+02  0.19396175953E+02  0.35035153209E+02  0.00000000000E+00 0. -1.
<scales pt_clust_5="13000.00000" pt_clust_6="13000.00000" pt_clust_7="13000.00000" pt_clust_8="13000.00000" pt_clust_9="29.17619"></scales>
<clustering>
<clus scale="   29.176">  2  9  1 -1</clus>
<clus scale="   85.923">  5  6 -1 -1</clus>
<clus scale="   89.424">  7  8 -1 -1</clus>
<clus scale="   93.128">  2  5  1 -1</clus>
<clus scale="   29.176">  2  5  1 -1</clus>
</clustering>
</event>
<event>
 9    1  0.1445593E-005  0.1227744E+03  0.7546771E-02  0.1238644E+00
          1   -1    0    0  502    0 -0.00000000000E+00  0.00000000000E+00  0.16101911208E+03  0.16101911208E+03  0.00000000000E+00 0. -1.
         21   -1    0    0  501  502  0.00000000000E+00 -0.00000000000E+00 -0.17050616597E+03  0.17050616597E+03  0.00000000000E+00 0.  1.
         23    2    1    2    0    0  0.69687307359E+02 -0.36384442382E+02  0.83426499592E+02  0.14726304952E+03  0.92446073287E+02 0.  0.
         23    2    1    2    0    0 -0.64562234337E+02  0.64799580555E+02 -0.71355735524E+02  0.14822855031E+03  0.92264805814E+02 0.  0.
        -11    1    3    3    0    0  0.18608989873E+02 -0.31552170434E+02  0.88426571903E+02  0.95713596640E+02  0.00000000000E+00 0. -1.
         11    1    3    3    0    0  0.51078317486E+02 -0.48322719474E+01 -0.50000723113E+01  0.51549452883E+02  0.00000000000E+00 0.  1.
        -13    1    4    4    0    0 -0.49518459675E+02  0.34670680289E+02 -0.90995369517E+02  0.10924418151E+03  0.00000000000E+00 0.  1.
         13    1    4    4    0    0 -0.15043774662E+02  0.30128900266E+02  0.19639633993E+02  0.38984368800E+02  0.00000000000E+00 0. -1.
          1    1    1    2  501    0 -0.51250730226E+01 -0.28415138174E+02 -0.21557817953E+02  0.36033678216E+02  0.00000000000E+00 0. -1.
<scales pt_clust_5="13000.00000" pt_clust_6="13000.00000" pt_clust_7="13000.00000" pt_clust_8="13000.00000" pt_clust_9="28.87363"></scales>
<clustering>
<clus scale="   28.874">  2  9  1 -1</clus>
<clus scale="   92.265">  7  8 -1 -1</clus>
<clus scale="   92.446">  5  6 -1 -1</clus>
<clus scale="  122.638">  2  7  1 -1</clus>
<clus scale="   28.874">  2  5  1 -1</clus>
</clustering>
</event>
<event>
 9    1  0.1445593E-005  0.9393439E+02  0.7546771E-02  0.1308943E+00
         21   -1    0    0  501  502  0.00000000000E+00  0.00000000000E+00  0.47799888159E+02  0.47799888159E+02  0.00000000000E+00 0. -1.
          2   -1    0    0  502    0 -0.00000000000E+00 -0.00000000000E+00 -0.56600157305E+03  0.56600157305E+03  0.00000000000E+00 0. -1.
         23    2    1    2    0    0 -0.60881677386E+01 -0.14823297929E+02 -0.28991054649E+03  0.29818751121E+03  0.67903394090E+02 0.  0.
         23    2    1    2    0    0 -0.33694431136E+02  0.30549817307E+02 -0.24815032544E+03  0.26845076631E+03  0.91753059292E+02 0.  0.
        -11    1    3    3    0    0  0.27499743434E+02 -0.21545646736E+02 -0.16553702105E+03  0.16918320283E+03  0.00000000000E+00 0.  1.
         11    1    3    3    0    0 -0.33587911173E+02  0.67223488078E+01 -0.12437352544E+03  0.12900430838E+03  0.00000000000E+00 0. -1.
        -13    1    4    4    0    0 -0.48769158054E+01 -0.32611020526E+02 -0.78238795853E+02  0.84903310560E+02  0.00000000000E+00 0.  1.
         13    1    4    4    0    0 -0.28817515331E+02  0.63160837834E+02 -0.16991152959E+03  0.18354745575E+03  0.00000000000E+00 0. -1.
          2    1    1    2  501    0  0.39782598875E+02 -0.15726519379E+02  0.19859187045E+02  0.47163183682E+02  0.00000000000E+00 0. -1.
<scales pt_clust_5="13000.00000" pt_clust_6="13000.00000" pt_clust_7="13000.00000" pt_clust_8="13000.00000" pt_clust_9="42.77825"></scales>
<clustering>
<clus scale="   42.778">  1  9  2 -1</clus>
<clus scale="   67.903">  5  6 -1 -1</clus>
<clus scale="   70.823">  2  5  1 -1</clus>
<clus scale="   91.753">  7  8 -1 -1</clus>
<clus scale="   42.778">  1  5  2 -1</clus>
</clustering>
</event>
<event>
 9    1  0.1445593E-005  0.1333425E+03  0.7546771E-02  0.1223608E+00
         -2   -1    0    0    0  501 -0.00000000000E+00  0.00000000000E+00  0.10856756796E+03  0.10856756796E+03  0.00000000000E+00 0.  1.
         21   -1    0    0  501  502  0.00000000000E+00 -0.00000000000E+00 -0.39943502789E+03  0.39943502789E+03  0.00000000000E+00 0.  1.
         23    2    1    2    0    0  0.75636265396E+02  0.52593065997E+02 -0.33994495353E+02  0.13730162859E+03  0.95964765753E+02 0.  0.
         23    2    1    2    0    0 -0.96685725091E+02 -0.23269283274E+02 -0.29102568163E+03  0.32100819042E+03  0.91982182908E+02 0.  0.
        -13    1    3    3    0    0  0.21766976005E+02  0.36172409195E+02 -0.61525012939E+02  0.74616162113E+02  0.00000000000E+00 0.  1.
         13    1    3    3    0    0  0.53869289391E+02  0.16420656802E+02  0.27530517585E+02  0.62685466480E+02  0.00000000000E+00 0. -1.
        -13    1    4    4    0    0 -0.48671679171E+02 -0.86184712463E+01 -0.25365396888E+03  0.25842512712E+03  0.00000000000E+00 0. -1.
         13    1    4    4    0    0 -0.48014045919E+02 -0.14650812028E+02 -0.37371712749E+02  0.62583063303E+02  0.00000000000E+00 0.  1.
         -2    1    1    2    0  502  0.21049459694E+02 -0.29323782723E+02  0.34152717049E+02  0.49692776824E+02  0.00000000000E+00 0.  1.
<scales pt_clust_5="13000.00000" pt_clust_6="13000.00000" pt_clust_7="13000.00000" pt_clust_8="13000.00000" pt_clust_9="36.09661"></scales>
<clustering>
<clus scale="   36.097">  2  9  1 -1</clus>
<clus scale="   91.982">  7  8 -1 -1</clus>
<clus scale="   95.965">  5  6 -1 -1</clus>
<clus scale="  130.506">  2  7  1 -1</clus>
<clus scale="   36.097">  2  5  1 -1</clus>
</clustering>
</event>
<event>
 9    1  0.1445593E-005  0.9321071E+02  0.7546771E-02  0.1295751E+00
          1   -1    0    0  502    0 -0.00000000000E+00  0.00000000000E+00  0.12110932117E+03  0.12110932117E+03  0.00000000000E+00 0. -1.
         21   -1    0    0  501  502  0.00000000000E+00 -0.00000000000E+00 -0.23894645633E+03  0.23894645633E+03  0.00000000000E+00 0.  1.
         23    2    1    2    0    0 -0.47122888950E+00  0.91848468921E+01  0.50737398242E+02  0.10550459591E+03  0.92045383962E+02 0.  0.
         23    2    1    2    0    0  0.47944294093E+02  0.40157238653E+02 -0.14260135174E+03  0.18131908827E+03  0.92898907959E+02 0.  0.
        -11    1    3    3    0    0  0.23291865402E+02  0.39304642658E+02  0.49152225994E+02  0.67106685572E+02  0.00000000000E+00 0.  1.
         11    1    3    3    0    0 -0.23763094292E+02 -0.30119795766E+02  0.15851722487E+01  0.38397910338E+02  0.00000000000E+00 0. -1.
        -13    1    4    4    0    0 -0.24329564459E+02  0.20006103711E+02 -0.19173850383E+02  0.36875580416E+02  0.00000000000E+00 0. -1.
         13    1    4    4    0    0  0.72273858553E+02  0.20151134941E+02 -0.12342750136E+03  0.14444350785E+03  0.00000000000E+00 0.  1.
          1    1    1    2  501    0 -0.47473065204E+02 -0.49342085545E+02 -0.25973181670E+02  0.73232093318E+02  0.00000000000E+00 0. -1.
<scales pt_clust_5="13000.00000" pt_clust_6="13000.00000" pt_clust_7="13000.00000" pt_clust_8="13000.00000" pt_clust_9="68.47141"></scales>
<clustering>
<clus scale="   68.471">  2  9  1 -1</clus>
<clus scale="   92.045">  5  6 -1 -1</clus>
<clus scale="   92.360">  1  5  2 -1</clus>
<clus scale="   92.899">  7  8 -1 -1</clus>
<clus scale="   68.471">  2  5  1 -1</clus>
</clustering>
</event>
<event>
 9    1  0.1445593E-005  0.9875891E+02  0.7546771E-02  0.1284563E+00
          1   -1    0    0  502    0 -0.00000000000E+00  0.00000000000E+00  0.11895487274E+04  0.11895487274E+04  0.00000000000E+00 0. -1.
         21   -1    0    0  501  502  0.00000000000E+00 -0.00000000000E+00 -0.21244386575E+02  0.21244386575E+02  0.00000000000E+00 0. -1.
         23    2    1    2    0    0  0.15876255574E+00 -0.59800832222E+02  0.58528799133E+03  0.59595307053E+03  0.94983497220E+02 0.  0.
         23    2    1    2    0    0 -0.24916066695E+02 -0.31402318012E+02  0.27753162047E+03  0.29507159849E+03  0.91850595630E+02 0.  0.
        -11    1    4    4    0    0 -0.52969433291E+02 -0.48274780534E+01  0.98768927441E+02  0.11218006256E+03  0.00000000000E+00 0.  1.
         11    1    4    4    0    0  0.28053366596E+02 -0.26574839958E+02  0.17876269303E+03  0.18289153593E+03  0.00000000000E+00 0. -1.
        -13    1    3    3    0    0  0.17585063926E+02  0.21585870582E+02  0.11244902825E+03  0.11584458656E+03  0.00000000000E+00 0.  1.
         13    1    3    3    0    0 -0.17426301370E+02 -0.81386702803E+02  0.47283896308E+03  0.48010848397E+03  0.00000000000E+00 0. -1.
          1    1    1    2  501    0  0.24757304139E+02  0.91203150234E+02  0.30548472906E+03  0.31976844498E+03  0.00000000000E+00 0. -1.
<scales pt_clust_5="13000.00000" pt_clust_6="13000.00000" pt_clust_7="13000.00000" pt_clust_8="13000.00000" pt_clust_9="94.50364"></scales>
<clustering>
<clus scale="   91.851">  5  6 -1 -1</clus>
<clus scale="   94.504">  2  9  1 -1</clus>
<clus scale="   94.983">  7  8 -1 -1</clus>
<clus scale="   95.750">  2  5  1 -1</clus>
<clus scale="   94.504">  2  5  1 -1</clus>
</clustering>
</event>
<event>
 9    1  0.1445593E-005  0.2259166E+03  0.7546771E-02  0.1142971E+00
         -1   -1    0    0    0  501 -0.00000000000E+00  0.00000000000E+00  0.36362467967E+03  0.36362467967E+03  0.00000000000E+00 0.  1.
         21   -1    0    0  501  502  0.00000000000E+00 -0.00000000000E+00 -0.40623193651E+03  0.40623193651E+03  0.00000000000E+00 0.  1.
         23    2    1    2    0    0  0.85946022768E+02 -0.10765590871E+03 -0.16459206070E+03  0.23169421831E+03  0.87264831639E+02 0.  0.
         23    2    1    2    0    0 -0.24791283390E+03  0.18296434436E+03  0.15478312161E+03  0.35655750246E+03  0.90767358151E+02 0.  0.
        -11    1    3    3    0    0  0.47767981112E+02 -0.10994503983E+03 -0.97719823249E+02  0.15465721987E+03  0.00000000000E+00 0.  1.
         11    1    3    3    0    0  0.38178041656E+02  0.22891311203E+01 -0.66872237456E+02  0.77036998438E+02  0.00000000000E+00 0. -1.
        -13    1    4    4    0    0 -0.16793443043E+03  0.78835824831E+02  0.11923724569E+03  0.22053249411E+03  0.00000000000E+00 0. -1.
         13    1    4    4    0    0 -0.79978403475E+02  0.10412851953E+03  0.35545875921E+02  0.13602500835E+03  0.00000000000E+00 0.  1.
         -1    1    1    2    0  502  0.16196681113E+03 -0.75308435653E+02 -0.32798317740E+02  0.18160489541E+03  0.00000000000E+00 0.  1.
<scales pt_clust_5="13000.00000" pt_clust_6="13000.00000" pt_clust_7="13000.00000" pt_clust_8="13000.00000" pt_clust_9="206.88063"></scales>
<clustering>
<clus scale="   87.265">  5  6 -1 -1</clus>
<clus scale="   90.767">  7  8 -1 -1</clus>
<clus scale="  163.070">  1  5  2 -1</clus>
<clus scale="  206.881">  2  9  1 -1</clus>
<clus scale="  206.881">  2  5  1 -1</clus>
</clustering>
</event>
<event>
 9    1  0.1445593E-005  0.1219358E+03  0.7546771E-02  0.1243659E+00
         21   -1    0    0  501  502  0.00000000000E+00  0.00000000000E+00  0.31648397397E+03  0.31648397397E+03  0.00000000000E+00 0. -1.
         -4   -1    0    0    0  501 -0.00000000000E+00 -0.00000000000E+00 -0.24967335610E+03  0.24967335610E+03  0.00000000000E+00 0.  1.
         23    2    1    2    0    0 -0.23669892376E+02 -0.53794896881E+02 -0.20378347556E+03  0.23284748942E+03  0.96104597623E+02 0.  0.
         23    2    1    2    0    0  0.73381636348E+02  0.42055424473E+02  0.15036594017E+03  0.20268104773E+03  0.10637747819E+03 0.  0.
        -13    1    3    3    0    0 -0.39841403781E+02 -0.65681176070E+02 -0.94735056176E+02  0.12196755804E+03  0.00000000000E+00 0.  1.
         13    1    3    3    0    0  0.16171511405E+02  0.11886279188E+02 -0.10904841938E+03  0.11087993138E+03  0.00000000000E+00 0. -1.
        -13    1    4    4    0    0  0.55546591913E+02  0.76787916067E+02  0.12167431581E+03  0.15422855460E+03  0.00000000000E+00 0. -1.
         13    1    4    4    0    0  0.17835044435E+02 -0.34732491594E+02  0.28691624365E+02  0.48452493135E+02  0.00000000000E+00 0.  1.
         -4    1    1    2    0  502 -0.49711743972E+02  0.11739472409E+02  0.12022815326E+03  0.13062879291E+03  0.00000000000E+00 0.  1.
<scales pt_clust_5="13000.00000" pt_clust_6="13000.00000" pt_clust_7="13000.00000" pt_clust_8="13000.00000" pt_clust_9="51.07908"></scales>
<clustering>
<clus scale="   51.079">  1  9  2 -1</clus>
<clus scale="   96.105">  5  6 -1 -1</clus>
<clus scale="  106.377">  7  8 -1 -1</clus>
<clus scale="  113.085">  2  5  1 -1</clus>
<clus scale="   51.079">  1  5  2 -1</clus>
</clustering>
</event>
<event>
 9    1  0.1445593E-005  0.9606161E+02  0.7546771E-02  0.1294655E+00
         -4   -1    0    0    0  501 -0.00000000000E+00  0.00000000000E+00  0.39329850024E+03  0.39329850024E+03  0.00000000000E+00 0.  1.
         21   -1    0    0  501  502  0.00000000000E+00 -0.00000000000E+00 -0.45986909726E+02  0.45986909726E+02  0.00000000000E+00 0.  1.
         23    2    1    2    0    0 -0.43798811567E+02 -0.11405398043E+02  0.21704215697E+03  0.23947897794E+03  0.90523278642E+02 0.  0.
         23    2    1    2    0    0  0.79500659822E+01 -0.38938580446E+02  0.69166291161E+02  0.11289703817E+03  0.79889603824E+02 0.  0.
        -11    1    3    3    0    0 -0.44930584359E+02 -0.40678947495E+02  0.19063607803E+03  0.20003911725E+03  0.00000000000E+00 0.  1.
         11    1    3    3    0    0  0.11317727927E+01  0.29273549452E+02  0.26406078934E+02  0.39439860698E+02  0.00000000000E+00 0. -1.
        -13    1    4    4    0    0  0.40289128473E+02 -0.39049975112E+02  0.50899629788E+02  0.75755440345E+02  0.00000000000E+00 0. -1.
         13    1    4    4    0    0 -0.32339062491E+02  0.11139466587E+00  0.18266661373E+02  0.37141597829E+02  0.00000000000E+00 0.  1.
         -4    1    1    2    0  502  0.35848745584E+02  0.50343978489E+02  0.61103142385E+02  0.86909393850E+02  0.00000000000E+00 0.  1.
<scales pt_clust_5="13000.00000" pt_clust_6="13000.00000" pt_clust_7="13000.00000" pt_clust_8="13000.00000" pt_clust_9="61.80331"></scales>
<clustering>
<clus scale="   61.803">  2  9  1 -1</clus>
<clus scale="   79.890">  7  8 -1 -1</clus>
<clus scale="   86.115">  2  7  1 -1</clus>
<clus scale="   90.523">  5  6 -1 -1</clus>
<clus scale="   61.803">  2  5  1 -1</clus>
</clustering>
</event>
<event>
 9    1  0.1445593E-005  0.1161057E+03  0.7546771E-02  0.1250569E+00
         21   -1    0    0  501  502  0.00000000000E+00  0.00000000000E+00  0.32360687305E+03  0.32360687305E+03  0.00000000000E+00 0. -1.
         -4   -1    0    0    0  501 -0.00000000000E+00 -0.00000000000E+00 -0.16500135991E+03  0.16500135991E+03  0.00000000000E+00 0.  1.
         23    2    1    2    0    0  0.60539079727E+02  0.35267381922E+02 -0.12626781812E+03  0.17208125070E+03  0.93592876580E+02 0.  0.
         23    2    1    2    0    0 -0.55608276247E+02 -0.93223865523E+01  0.25553874306E+03  0.27705580705E+03  0.90998262277E+02 0.  0.
        -13    1    3    3    0    0  0.27103137830E+02 -0.41531676502E+01 -0.11623559393E+03  0.11942588572E+03  0.00000000000E+00 0.  1.
         13    1    3    3    0    0  0.33435941897E+02  0.39420549572E+02 -0.10032224186E+02  0.52655364981E+02  0.00000000000E+00 0. -1.
        -13    1    4    4    0    0 -0.76293451088E+02 -0.15540369476E+02  0.14656750687E+03  0.16596453787E+03  0.00000000000E+00 0. -1.
         13    1    4    4    0    0  0.20685174841E+02  0.62179829233E+01  0.10897123619E+03  0.11109126918E+03  0.00000000000E+00 0.  1.
         -4    1    1    2    0  502 -0.49308034799E+01 -0.25944995370E+02  0.29334588207E+02  0.39471175216E+02  0.00000000000E+00 0.  1.
<scales pt_clust_5="13000.00000" pt_clust_6="13000.00000" pt_clust_7="13000.00000" pt_clust_8="13000.00000" pt_clust_9="26.40938"></scales>
<clustering>
<clus scale="   26.409">  1  9  2 -1</clus>
<clus scale="   90.998">  7  8 -1 -1</clus>
<clus scale="   93.593">  5  6 -1 -1</clus>
<clus scale="  114.025">  1  7  2 -1</clus>
<clus scale="   26.409">  1  5  2 -1</clus>
</clustering>
</event>
<event>
 9    1  0.1445593E-005  0.1116960E+03  0.7546771E-02  0.1257708E+00
          2   -1    0    0  502    0 -0.00000000000E+00  0.00000000000E+00  0.49536478816E+03  0.49536478816E+03  0.00000000000E+00 0. -1.
         21   -1    0    0  501  502  0.00000000000E+00 -0.00000000000E+00 -0.13140235845E+03  0.13140235845E+03  0.00000000000E+00 0.  1.
         23    2    1    2    0    0 -0.23507068164E+02 -0.61076426854E+02  0.35508560337E+03  0.37145760030E+03  0.87247068288E+02 0.  0.
         23    2    1    2    0    0  0.11761706686E+03  0.67365976802E+02  0.69379458558E+01  0.16096968437E+03  0.86551458374E+02 0.  0.
        -11    1    3    3    0    0 -0.45641531199E+01  0.20861921907E+02  0.11754080063E+03  0.11946502037E+03  0.00000000000E+00 0.  1.
         11    1    3    3    0    0 -0.18942915044E+02 -0.81938348760E+02  0.23754480274E+03  0.25199257992E+03  0.00000000000E+00 0. -1.
        -13    1    4    4    0    0  0.33043922029E+02 -0.13091817721E+02  0.24157947647E+02  0.42975608301E+02  0.00000000000E+00 0. -1.
         13    1    4    4    0    0  0.84573144834E+02  0.80457794523E+02 -0.17220001791E+02  0.11799407607E+03  0.00000000000E+00 0.  1.
          2    1    1    2  501    0 -0.94109998699E+02 -0.62895499479E+01  0.19388804852E+01  0.94339861942E+02  0.00000000000E+00 0. -1.
<scales pt_clust_5="13000.00000" pt_clust_6="13000.00000" pt_clust_7="13000.00000" pt_clust_8="13000.00000" pt_clust_9="94.31994"></scales>
<clustering>
<clus scale="   86.551">  7  8 -1 -1</clus>
<clus scale="   87.247">  5  6 -1 -1</clus>
<clus scale="   94.320">  2  9  1 -1</clus>
<clus scale="  111.153">  2  7  1 -1</clus>
<clus scale="   94.320">  2  5  1 -1</clus>
</clustering>
</event>
<event>
 9    1  0.1445593E-005  0.1286920E+03  0.7546771E-02  0.1231370E+00
         21   -1    0    0  501  502  0.00000000000E+00  0.00000000000E+00  0.79259916248E+03  0.79259916248E+03  0.00000000000E+00 0.  1.
          3   -1    0    0  502    0 -0.00000000000E+00 -0.00000000000E+00 -0.45369709410E+02  0.45369709410E+02  0.00000000000E+00 0. -1.
         23    2    1    2    0    0  0.81208531132E+02 -0.19962746686E+02  0.10632193233E+03  0.16104223352E+03  0.87389420987E+02 0.  0.
         23    2    1    2    0    0 -0.13076926729E+03  0.44462985366E+02  0.52164613619E+03  0.54547396205E+03  0.79684336872E+02 0.  0.
        -13    1    4    4    0    0 -0.40989263171E+02 -0.11440876691E+02  0.25661033484E+03  0.26011512317E+03  0.00000000000E+00 0.  1.
         13    1    4    4    0    0 -0.89780004122E+02  0.55903862057E+02  0.26503580134E+03  0.28535883888E+03  0.00000000000E+00 0. -1.
        -13    1    3    3    0    0 -0.15897962778E+02 -0.16517991659E+02  0.28340496853E+02  0.36452339168E+02  0.00000000000E+00 0.  1.
         13    1    3    3    0    0  0.97106493910E+02 -0.34447550269E+01  0.77981435475E+02  0.12458989436E+03  0.00000000000E+00 0. -1.
          3    1    1    2  501    0  0.49560736161E+02 -0.24500238680E+02  0.11926138455E+03  0.13145267631E+03  0.00000000000E+00 0. -1.
<scales pt_clust_5="13000.00000" pt_clust_6="13000.00000" pt_clust_7="13000.00000" pt_clust_8="13000.00000" pt_clust_9="55.28588"></scales>
<clustering>
<clus scale="   55.286">  1  9  2 -1</clus>
<clus scale="   79.684">  5  6 -1 -1</clus>
<clus scale="   87.389">  7  8 -1 -1</clus>
<clus scale="  123.589">  1  5  2 -1</clus>
<clus scale="   55.286">  1  5  2 -1</clus>
</clustering>
</event>
<event>
 9    1  0.1445593E-005  0.1183701E+03  0.7546771E-02  0.1246128E+00
         21   -1    0    0  501  502  0.00000000000E+00  0.00000000000E+00  0.27755718511E+02  0.27755718511E+02  0.00000000000E+00 0.  1.
         -3   -1    0    0    0  501 -0.00000000000E+00 -0.00000000000E+00 -0.75045155150E+03  0.75045155150E+03  0.00000000000E+00 0.  1.
         23    2    1    2    0    0  0.47736239820E+02  0.50116204876E+02 -0.45132164294E+03  0.46549190033E+03  0.90559932099E+02 0.  0.
         23    2    1    2    0    0 -0.69083024823E+02 -0.54192113371E+02 -0.25718200003E+03  0.28675931995E+03  0.91537298249E+02 0.  0.
        -13    1    4    4    0    0  0.97856829258E+01 -0.43838055178E+02 -0.67562370773E+02  0.81130811758E+02  0.00000000000E+00 0. -1.
         13    1    4    4    0    0 -0.78868707749E+02 -0.10354058193E+02 -0.18961962926E+03  0.20562850820E+03  0.00000000000E+00 0.  1.
        -13    1    3    3    0    0 -0.92941544080E+01 -0.19002956137E+02 -0.50058916179E+02  0.54345089356E+02  0.00000000000E+00 0. -1.
         13    1    3    3    0    0  0.57030394228E+02  0.69119161013E+02 -0.40126272676E+03  0.41114681097E+03  0.00000000000E+00 0.  1.
         -3    1    1    2    0  502  0.21346785004E+02  0.40759084950E+01 -0.14192190020E+02  0.25956049730E+02  0.00000000000E+00 0.  1.
<scales pt_clust_5="13000.00000" pt_clust_6="13000.00000" pt_clust_7="13000.00000" pt_clust_8="13000.00000" pt_clust_9="21.73242"></scales>
<clustering>
<clus scale="   21.732">  1  9  2 -1</clus>
<clus scale="   90.560">  7  8 -1 -1</clus>
<clus scale="   91.537">  5  6 -1 -1</clus>
<clus scale="  117.616">  2  7  1 -1</clus>
<clus scale="   21.732">  1  5  2 -1</clus>
</clustering>
</event>
<event>
 9    1  0.1445593E-005  0.9399869E+02  0.7546771E-02  0.1294309E+00
          2   -1    0    0  502    0 -0.00000000000E+00  0.00000000000E+00  0.60752308989E+03  0.60752308989E+03  0.00000000000E+00 0. -1.
         21   -1    0    0  501  502  0.00000000000E+00 -0.00000000000E+00 -0.19783900528E+02  0.19783900528E+02  0.00000000000E+00 0.  1.
         23    2    1    2    0    0 -0.45872562156E+01  0.34097579987E+01  0.30871487683E+03  0.32197744423E+03  0.91279406495E+02 0.  0.
         23    2    1    2    0    0  0.18921093451E+02 -0.19921319115E+02  0.25549271000E+03  0.27320748433E+03  0.92795139385E+02 0.  0.
        -11    1    3    3    0    0 -0.45761787877E+02 -0.10861332564E+02  0.18198562622E+03  0.18796509762E+03  0.00000000000E+00 0. -1.
         11    1    3    3    0    0  0.41174531661E+02  0.14271090562E+02  0.12672925061E+03  0.13401234661E+03  0.00000000000E+00 0.  1.
        -11    1    4    4    0    0  0.12202813161E+02  0.24940627486E+02  0.22211853037E+02  0.35557136608E+02  0.00000000000E+00 0.  1.
         11    1    4    4    0    0  0.67182802899E+01 -0.44861946601E+02  0.23328085697E+03  0.23765034772E+03  0.00000000000E+00 0. -1.
          2    1    1    2  501    0 -0.14333837235E+02  0.16511561117E+02  0.23531602524E+02  0.32122061854E+02  0.00000000000E+00 0. -1.
<scales pt_clust_5="13000.00000" pt_clust_6="13000.00000" pt_clust_7="13000.00000" pt_clust_8="13000.00000" pt_clust_9="21.86528"></scales>
<clustering>
<clus scale="   21.865">  2  9  1 -1</clus>
<clus scale="   91.279">  5  6 -1 -1</clus>
<clus scale="   92.503">  1  5  2 -1</clus>
<clus scale="   92.795">  7  8 -1 -1</clus>
<clus scale="   21.865">  2  5  1 -1</clus>
</clustering>
</event>
<event>
 9    1  0.1445593E-005  0.1385728E+03  0.7546771E-02  0.1216053E+00
         -3   -1    0    0    0  501 -0.00000000000E+00  0.00000000000E+00  0.51736477080E+03  0.51736477080E+03  0.00000000000E+00 0.  1.
         21   -1    0    0  501  502  0.00000000000E+00 -0.00000000000E+00 -0.60322998967E+02  0.60322998967E+02  0.00000000000E+00 0. -1.
         23    2    1    2    0    0 -0.10257171437E+03  0.33044006853E+02  0.25722854239E+03  0.29332370445E+03  0.90881293951E+02 0.  0.
         23    2    1    2    0    0  0.97422193461E+02  0.11598929900E+01  0.20849338559E+03  0.24870218874E+03  0.94291344876E+02 0.  0.
        -11    1    3    3    0    0 -0.93577963057E+02  0.65991580186E+00  0.23521370877E+03  0.25314572770E+03  0.00000000000E+00 0.  1.
         11    1    3    3    0    0 -0.89937513087E+01  0.32384091051E+02  0.22014833620E+02  0.40177976742E+02  0.00000000000E+00 0. -1.
        -11    1    4    4    0    0  0.10145353613E+03 -0.26998645164E+02  0.14393273954E+03  0.17815268829E+03  0.00000000000E+00 0. -1.
         11    1    4    4    0    0 -0.40313426727E+01  0.28158538154E+02  0.64560646058E+02  0.70549500453E+02  0.00000000000E+00 0.  1.
         -3    1    1    2    0  502  0.51495209055E+01 -0.34203899843E+02 -0.86801561590E+01  0.35661876576E+02  0.00000000000E+00 0.  1.
<scales pt_clust_5="13000.00000" pt_clust_6="13000.00000" pt_clust_7="13000.00000" pt_clust_8="13000.00000" pt_clust_9="34.58937"></scales>
<clustering>
<clus scale="   34.589">  2  9  1 -1</clus>
<clus scale="   90.881">  5  6 -1 -1</clus>
<clus scale="   94.291">  7  8 -1 -1</clus>
<clus scale="  136.275">  1  5  2 -1</clus>
<clus scale="   34.589">  2  5  1 -1</clus>
</clustering>
</event>
<event>
 9    1  0.1445593E-005  0.1230833E+03  0.7546771E-02  0.1238937E+00
          2   -1    0    0  502    0 -0.00000000000E+00  0.00000000000E+00  0.10102077783E+03  0.10102077783E+03  0.00000000000E+00 0. -1.
         21   -1    0    0  501  502  0.00000000000E+00 -0.00000000000E+00 -0.21692756816E+03  0.21692756816E+03  0.00000000000E+00 0.  1.
         23    2    1    2    0    0 -0.74366432489E+02  0.37301907353E+02 -0.20423817132E+01  0.12219341471E+03  0.89472122483E+02 0.  0.
         23    2    1    2    0    0  0.60338478591E+02 -0.53106057548E+02 -0.56826440401E+02  0.13492825562E+03  0.92278949333E+02 0.  0.
        -11    1    4    4    0    0  0.17794175904E+02 -0.72505681173E+02 -0.26618531180E+02  0.79260663009E+02  0.00000000000E+00 0.  1.
         11    1    4    4    0    0  0.42544302687E+02  0.19399623626E+02 -0.30207909220E+02  0.55667592614E+02  0.00000000000E+00 0. -1.
        -11    1    3    3    0    0 -0.12385012015E+02 -0.16125431456E+02 -0.29544794657E+02  0.35865205333E+02  0.00000000000E+00 0.  1.
         11    1    3    3    0    0 -0.61981420474E+02  0.53427338809E+02  0.27502412944E+02  0.86328209375E+02  0.00000000000E+00 0. -1.
          2    1    1    2  501    0  0.14027953899E+02  0.15804150194E+02 -0.57037968210E+02  0.60826675657E+02  0.00000000000E+00 0. -1.
<scales pt_clust_5="13000.00000" pt_clust_6="13000.00000" pt_clust_7="13000.00000" pt_clust_8="13000.00000" pt_clust_9="21.13184"></scales>
<clustering>
<clus scale="   21.132">  2  9  1 -1</clus>
<clus scale="   89.472">  7  8 -1 -1</clus>
<clus scale="   92.279">  5  6 -1 -1</clus>
<clus scale="  120.993">  1  7  2 -1</clus>
<clus scale="   21.132">  2  5  1 -1</clus>
</clustering>
</event>
<event>
 9    1  0.1445593E-005  0.1108967E+03  0.7546771E-02  0.1259685E+00
         21   -1    0    0  501  502  0.00000000000E+00  0.00000000000E+00  0.67500248010E+02  0.67500248010E+02  0.00000000000E+00 0. -1.
          3   -1    0    0  502    0 -0.00000000000E+00 -0.00000000000E+00 -0.58371697533E+03  0.58371697533E+03  0.00000000000E+00 0. -1.
         23    2    1    2    0    0  0.26444225631E+02  0.42005774721E+02 -0.14967472893E+03  0.18228951298E+03  0.91450313738E+02 0.  0.
         23    2    1    2    0    0 -0.98364747266E+02 -0.48711911894E+02 -0.59627409214E+02  0.15362769647E+03  0.89429119021E+02 0.  0.
        -11    1    3    3    0    0  0.25398851331E+02 -0.20275358627E+02 -0.91339111813E+02  0.96948569681E+02  0.00000000000E+00 0.  1.
         11    1    3    3    0    0  0.10453742994E+01  0.62281133348E+02 -0.58335617114E+02  0.85340943296E+02  0.00000000000E+00 0. -1.
        -11    1    4    4    0    0 -0.10527192504E+03 -0.14391133218E+02 -0.40292204329E+02  0.11363425824E+03  0.00000000000E+00 0. -1.
         11    1    4    4    0    0  0.69071777702E+01 -0.34320778676E+02 -0.19335204885E+02  0.39993438232E+02  0.00000000000E+00 0.  1.
          3    1    1    2  501    0  0.71920521636E+02  0.67061371734E+01 -0.30691458918E+03  0.31530001389E+03  0.00000000000E+00 0. -1.
<scales pt_clust_5="13000.00000" pt_clust_6="13000.00000" pt_clust_7="13000.00000" pt_clust_8="13000.00000" pt_clust_9="72.23253"></scales>
<clustering>
<clus scale="   72.233">  1  9  2 -1</clus>
<clus scale="   89.429">  7  8 -1 -1</clus>
<clus scale="   91.450">  5  6 -1 -1</clus>
<clus scale="  109.236">  1  7  2 -1</clus>
<clus scale="   72.233">  1  5  2 -1</clus>
</clustering>
</event>
<event>
 9    1  0.1445593E-005  0.1085342E+03  0.7546771E-02  0.1263898E+00
         -3   -1    0    0    0  501 -0.00000000000E+00  0.00000000000E+00  0.82904292037E+03  0.82904292037E+03  0.00000000000E+00 0.  1.
         21   -1    0    0  501  502  0.00000000000E+00 -0.00000000000E+00 -0.27357238630E+02  0.27357238630E+02  0.00000000000E+00 0. -1.
         23    2    1    2    0    0 -0.53710010026E+01  0.50959623329E+02  0.49835152509E+03  0.50903246840E+03  0.90189137133E+02 0.  0.
         23    2    1    2    0    0 -0.29541689594E+02 -0.77032451977E+02  0.24768417069E+03  0.27668806627E+03  0.91663119768E+02 0.  0.
        -11    1    4    4    0    0 -0.41427025829E+01 -0.20417828810E+02 -0.52475285100E+00  0.20840467450E+02  0.00000000000E+00 0. -1.
         11    1    4    4    0    0 -0.25398987011E+02 -0.56614623167E+02  0.24820892354E+03  0.25584759882E+03  0.00000000000E+00 0.  1.
        -11    1    3    3    0    0  0.40499089162E+02  0.88381955608E+01  0.20045602040E+03  0.20469710803E+03  0.00000000000E+00 0.  1.
         11    1    3    3    0    0 -0.45870090164E+02  0.42121427769E+02  0.29789550470E+03  0.30433536036E+03  0.00000000000E+00 0. -1.
         -3    1    1    2    0  502  0.34912690597E+02  0.26072828648E+02  0.55649985951E+02  0.70679624326E+02  0.00000000000E+00 0.  1.
<scales pt_clust_5="13000.00000" pt_clust_6="13000.00000" pt_clust_7="13000.00000" pt_clust_8="13000.00000" pt_clust_9="43.57394"></scales>
<clustering>
<clus scale="   43.574">  2  9  1 -1</clus>
<clus scale="   90.189">  7  8 -1 -1</clus>
<clus scale="   91.663">  5  6 -1 -1</clus>
<clus scale="  107.292">  1  7  2 -1</clus>
<clus scale="   43.574">  2  5  1 -1</clus>
</clustering>
</event>
<event>
 9    1  0.1445593E-005  0.1983434E+03  0.7546771E-02  0.1151242E+00
         21   -1    0    0  501  502  0.00000000000E+00  0.00000000000E+00  0.59362121816E+02  0.59362121816E+02  0.00000000000E+00 0.  1.
         -1   -1    0    0    0  501 -0.00000000000E+00 -0.00000000000E+00 -0.92809839445E+03  0.92809839445E+03  0.00000000000E+00 0.  1.
         23    2    1    2    0    0  0.70855575548E+02 -0.15552530097E+03 -0.58969905001E+03  0.62065166295E+03  0.90856399462E+02 0.  0.
         23    2    1    2    0    0 -0.94941160264E+02  0.16211843846E+03 -0.26682993406E+03  0.33901312078E+03  0.91844816655E+02 0.  0.
        -11    1    3    3    0    0  0.26897950515E+02  0.47903292620E+01 -0.82592097823E+02  0.86993687237E+02  0.00000000000E+00 0. -1.
         11    1    3    3    0    0  0.43957625033E+02 -0.16031563023E+03 -0.50710695218E+03  0.53365797572E+03  0.00000000000E+00 0.  1.
        -11    1    4    4    0    0 -0.10246326912E+03  0.89903647179E+02 -0.18111732361E+03  0.22668231560E+03  0.00000000000E+00 0.  1.
         11    1    4    4    0    0  0.75221088512E+01  0.72214791282E+02 -0.85712610451E+02  0.11233080518E+03  0.00000000000E+00 0. -1.
         -1    1    1    2    0  502  0.24085584716E+02 -0.65931374943E+01 -0.12207288571E+02  0.27795732540E+02  0.00000000000E+00 0.  1.
<scales pt_clust_5="13000.00000" pt_clust_6="13000.00000" pt_clust_7="13000.00000" pt_clust_8="13000.00000" pt_clust_9="24.97168"></scales>
<clustering>
<clus scale="   24.972">  1  9  2 -1</clus>
<clus scale="   90.856">  5  6 -1 -1</clus>
<clus scale="   91.845">  7  8 -1 -1</clus>
<clus scale="  197.888">  2  5  1 -1</clus>
<clus scale="   24.972">  1  5  2 -1</clus>
</clustering>
</event>
<event>
 9    1  0.1445593E-005  0.9963915E+02  0.7546771E-02  0.1281076E+00
         21   -1    0    0  501  502  0.00000000000E+00  0.00000000000E+00  0.10768262500E+03  0.10768262500E+03  0.00000000000E+00 0.  1.
          2   -1    0    0  502    0 -0.00000000000E+00 -0.00000000000E+00 -0.33449296737E+03  0.33449296737E+03  0.00000000000E+00 0.  1.
         23    2    1    2    0    0  0.36375426219E+01  0.36105094068E+02 -0.24959545162E+03  0.26815119748E+03  0.91051445370E+02 0.  0.
         23    2    1    2    0    0  0.37343693064E+01 -0.58474118466E+02 -0.33202749307E+02  0.11328430398E+03  0.91091947630E+02 0.  0.
        -11    1    3    3    0    0 -0.33781358973E+02  0.42719848358E+02 -0.18843347679E+03  0.19614622309E+03  0.00000000000E+00 0.  1.
         11    1    3    3    0    0  0.37418901595E+02 -0.66147542904E+01 -0.61161974830E+02  0.72004974383E+02  0.00000000000E+00 0. -1.
        -13    1    4    4    0    0 -0.37164213485E+02 -0.47027887739E+02 -0.37330274798E+02  0.70614094951E+02  0.00000000000E+00 0. -1.
         13    1    4    4    0    0  0.40898582792E+02 -0.11446230726E+02  0.41275254905E+01  0.42670209033E+02  0.00000000000E+00 0.  1.
          2    1    1    2  501    0 -0.73719119283E+01  0.22369024398E+02  0.55987858561E+02  0.60740090913E+02  0.00000000000E+00 0.  1.
<scales pt_clust_5="13000.00000" pt_clust_6="13000.00000" pt_clust_7="13000.00000" pt_clust_8="13000.00000" pt_clust_9="23.55246"></scales>
<clustering>
<clus scale="   23.552">  1  9  2 -1</clus>
<clus scale="   91.051">  5  6 -1 -1</clus>
<clus scale="   91.092">  7  8 -1 -1</clus>
<clus scale="   99.602">  2  5  1 -1</clus>
<clus scale="   23.552">  1  5  2 -1</clus>
</clustering>
</event>
<event>
 9    1  0.1445593E-005  0.1940254E+03  0.7546771E-02  0.1181861E+00
         21   -1    0    0  501  502  0.00000000000E+00  0.00000000000E+00  0.11369843039E+04  0.11369843039E+04  0.00000000000E+00 0. -1.
          1   -1    0    0  502    0 -0.00000000000E+00 -0.00000000000E+00 -0.56037504108E+02  0.56037504108E+02  0.00000000000E+00 0. -1.
         23    2    1    2    0    0  0.50043379071E+02  0.88373721065E+01  0.21294110191E+03  0.23719126415E+03  0.91287151169E+02 0.  0.
         23    2    1    2    0    0 -0.14587954120E+03 -0.13872277563E+03  0.35320636769E+03  0.41631859925E+03  0.89674906644E+02 0.  0.
        -11    1    3    3    0    0 -0.25631584241E+02  0.71404513289E+01  0.78751071370E+02  0.83124577579E+02  0.00000000000E+00 0.  1.
         11    1    3    3    0    0  0.75674963312E+02  0.16969207777E+01  0.13419003054E+03  0.15406668657E+03  0.00000000000E+00 0. -1.
        -13    1    4    4    0    0 -0.14123795156E+03 -0.11119576588E+03  0.34175302432E+03  0.38614477459E+03  0.00000000000E+00 0. -1.
         13    1    4    4    0    0 -0.46415896387E+01 -0.27527009749E+02  0.11453343374E+02  0.30173824659E+02  0.00000000000E+00 0.  1.
          1    1    1    2  501    0  0.95836162132E+02  0.12988540353E+03  0.51479933022E+03  0.53951194464E+03  0.00000000000E+00 0. -1.
<scales pt_clust_5="13000.00000" pt_clust_6="13000.00000" pt_clust_7="13000.00000" pt_clust_8="13000.00000" pt_clust_9="172.05889"></scales>
<clustering>
<clus scale="   89.675">  7  8 -1 -1</clus>
<clus scale="   91.287">  5  6 -1 -1</clus>
<clus scale="  104.479">  2  5  1 -1</clus>
<clus scale="  172.059">  1  9  2 -1</clus>
<clus scale="  172.059">  1  5  2 -1</clus>
</clustering>
</event>
<event>
 9    1  0.1445593E-005  0.1005732E+03  0.7546771E-02  0.1281823E+00
         21   -1    0    0  501  502  0.00000000000E+00  0.00000000000E+00  0.34794454276E+03  0.34794454276E+03  0.00000000000E+00 0.  1.
         -3   -1    0    0    0  501 -0.00000000000E+00 -0.00000000000E+00 -0.49864049323E+02  0.49864049323E+02  0.00000000000E+00 0.  1.
         23    2    1    2    0    0 -0.32112566780E+02 -0.37234109659E+01  0.68871523444E+02  0.12232010701E+03  0.95780170720E+02 0.  0.
         23    2    1    2    0    0  0.21264121855E+02  0.26708943715E+02  0.83954404275E+02  0.12802692284E+03  0.90426878875E+02 0.  0.
        -13    1    3    3    0    0 -0.21811374406E+02 -0.32708144018E+02  0.80378289055E+02  0.89477528408E+02  0.00000000000E+00 0. -1.
         13    1    3    3    0    0 -0.10301192374E+02  0.28984733052E+02 -0.11506765611E+02  0.32842578603E+02  0.00000000000E+00 0.  1.
        -13    1    4    4    0    0  0.41133332084E+02 -0.18408144913E+02  0.26332127271E+02  0.52193790187E+02  0.00000000000E+00 0.  1.
         13    1    4    4    0    0 -0.19869210229E+02  0.45117088628E+02  0.57622277003E+02  0.75833132656E+02  0.00000000000E+00 0. -1.
         -3    1    1    2    0  502  0.10848444925E+02 -0.22985532749E+02  0.14525456572E+03  0.14746156223E+03  0.00000000000E+00 0.  1.
<scales pt_clust_5="13000.00000" pt_clust_6="13000.00000" pt_clust_7="13000.00000" pt_clust_8="13000.00000" pt_clust_9="25.41699"></scales>
<clustering>
<clus scale="   25.417">  1  9  2 -1</clus>
<clus scale="   90.427">  7  8 -1 -1</clus>
<clus scale="   95.489">  1  7  2 -1</clus>
<clus scale="   95.780">  5  6 -1 -1</clus>
<clus scale="   25.417">  1  5  2 -1</clus>
</clustering>
</event>
<event>
 9    1  0.1445593E-005  0.1595223E+03  0.7546771E-02  0.1190868E+00
         -3   -1    0    0    0  501 -0.00000000000E+00  0.00000000000E+00  0.41618857929E+03  0.41618857929E+03  0.00000000000E+00 0.  1.
         21   -1    0    0  501  502  0.00000000000E+00 -0.00000000000E+00 -0.10719587582E+03  0.10719587582E+03  0.00000000000E+00 0. -1.
         23    2    1    2    0    0  0.19778725075E+02 -0.11944340847E+03  0.27975103913E+03  0.32086120655E+03  0.10016658217E+03 0.  0.
         23    2    1    2    0    0  0.10582570008E+02  0.13742422536E+03  0.24626316043E+02  0.16693646092E+03  0.90906094622E+02 0.  0.
        -11    1    4    4    0    0  0.26964472082E+02  0.92093151977E+02  0.54375494412E+02  0.11029472240E+03  0.00000000000E+00 0.  1.
         11    1    4    4    0    0 -0.16381902074E+02  0.45331073378E+02 -0.29749178369E+02  0.56641738522E+02  0.00000000000E+00 0. -1.
        -13    1    3    3    0    0 -0.22183886622E+02  0.74529010504E+01  0.38187931528E+02  0.44788264916E+02  0.00000000000E+00 0. -1.
         13    1    3    3    0    0  0.41962611697E+02 -0.12689630952E+03  0.24156310760E+03  0.27607294163E+03  0.00000000000E+00 0.  1.
         -3    1    1    2    0  502 -0.30361295083E+02 -0.17980816883E+02  0.46153483075E+01  0.35586787645E+02  0.00000000000E+00 0.  1.
<scales pt_clust_5="13000.00000" pt_clust_6="13000.00000" pt_clust_7="13000.00000" pt_clust_8="13000.00000" pt_clust_9="35.28623"></scales>
<clustering>
<clus scale="   35.286">  2  9  1 -1</clus>
<clus scale="   90.906">  5  6 -1 -1</clus>
<clus scale="  100.167">  7  8 -1 -1</clus>
<clus scale="  153.876">  2  5  1 -1</clus>
<clus scale="   35.286">  2  5  1 -1</clus>
</clustering>
</event>
<event>
 9    1  0.1539119E-005  0.9700572E+02  0.7546771E-02  0.1288179E+00
         21   -1    0    0  501  502  0.00000000000E+00  0.00000000000E+00  0.11175413705E+03  0.11175413705E+03  0.00000000000E+00 0. -1.
          1   -1    0    0  502    0 -0.00000000000E+00 -0.00000000000E+00 -0.52439695605E+03  0.52439695605E+03  0.00000000000E+00 0. -1.
         23    2    1    2    0    0  0.31119518959E+02 -0.29572586977E+02 -0.28148939197E+03  0.29957348351E+03  0.93086152949E+02 0.  0.
         23    2    1    2    0    0  0.61517280530E+01  0.18554929792E+02 -0.22052758347E+03  0.23911851838E+03  0.90349994918E+02 0.  0.
        -11    1    3    3    0    0 -0.29488718623E+02  0.81331920908E+01 -0.70962110877E+02  0.77274539919E+02  0.00000000000E+00 0.  1.
         11    1    3    3    0    0  0.60608237582E+02 -0.37705779068E+02 -0.21052728109E+03  0.22229894359E+03  0.00000000000E+00 0. -1.
        -13    1    4    4    0    0  0.91490775034E+00 -0.36721480225E+02 -0.80517293641E+02  0.88500501362E+02  0.00000000000E+00 0. -1.
         13    1    4    4    0    0  0.52368203026E+01  0.55276410017E+02 -0.14001028983E+03  0.15061801701E+03  0.00000000000E+00 0.  1.
          1    1    1    2  501    0 -0.37271247012E+02  0.11017657185E+02  0.89374156432E+02  0.97459091220E+02  0.00000000000E+00 0. -1.
<scales pt_clust_5="13000.00000" pt_clust_6="13000.00000" pt_clust_7="13000.00000" pt_clust_8="13000.00000" pt_clust_9="38.86560"></scales>
<clustering>
<clus scale="   38.866">  1  9  2 -1</clus>
<clus scale="   90.350">  7  8 -1 -1</clus>
<clus scale="   93.086">  5  6 -1 -1</clus>
<clus scale="   94.383">  1  7  2 -1</clus>
<clus scale="   38.866">  1  5  2 -1</clus>
</clustering>
</event>
<event>
 9    1  0.1445593E-005  0.9374007E+02  0.7546771E-02  0.1296641E+00
         -1   -1    0    0    0  501 -0.00000000000E+00  0.00000000000E+00  0.14350756067E+03  0.14350756067E+03  0.00000000000E+00 0.  1.
         21   -1    0    0  501  502  0.00000000000E+00 -0.00000000000E+00 -0.11810502378E+03  0.11810502378E+03  0.00000000000E+00 0.  1.
         23    2    1    2    0    0  0.12102921921E+01 -0.65243157105E+01  0.56333549868E+02  0.10862445058E+03  0.92637848210E+02 0.  0.
         23    2    1    2    0    0  0.10495673224E+02  0.23839927470E+02  0.23328990513E+02  0.94841697906E+02  0.88160107560E+02 0.  0.
        -11    1    3    3    0    0 -0.22054662471E-01 -0.48372672220E+02  0.17267555328E+02  0.51362285494E+02  0.00000000000E+00 0. -1.
         11    1    3    3    0    0  0.12323468545E+01  0.41848356510E+02  0.39065994540E+02  0.57262165089E+02  0.00000000000E+00 0.  1.
        -13    1    4    4    0    0  0.47913284938E+02  0.25410913778E+02  0.10404321486E+02  0.55223611963E+02  0.00000000000E+00 0. -1.
         13    1    4    4    0    0 -0.37417611714E+02 -0.15709863076E+01  0.12924669027E+02  0.39618085943E+02  0.00000000000E+00 0.  1.
         -1    1    1    2    0  502 -0.11705965417E+02 -0.17315611760E+02 -0.54260003486E+02  0.58146435963E+02  0.00000000000E+00 0.  1.
<scales pt_clust_5="13000.00000" pt_clust_6="13000.00000" pt_clust_7="13000.00000" pt_clust_8="13000.00000" pt_clust_9="20.90120"></scales>
<clustering>
<clus scale="   20.901">  2  9  1 -1</clus>
<clus scale="   88.160">  7  8 -1 -1</clus>
<clus scale="   89.318">  2  7  1 -1</clus>
<clus scale="   92.638">  5  6 -1 -1</clus>
<clus scale="   20.901">  2  5  1 -1</clus>
</clustering>
</event>
<event>
 9    1  0.1445593E-005  0.9840500E+02  0.7546771E-02  0.1283899E+00
          1   -1    0    0  502    0 -0.00000000000E+00  0.00000000000E+00  0.31184210520E+03  0.31184210520E+03  0.00000000000E+00 0. -1.
         21   -1    0    0  501  502  0.00000000000E+00 -0.00000000000E+00 -0.46689080090E+02  0.46689080090E+02  0.00000000000E+00 0. -1.
         23    2    1    2    0    0 -0.37035119910E+02  0.26853109600E+02  0.19506495195E+03  0.22006108425E+03  0.91015689422E+02 0.  0.
         23    2    1    2    0    0  0.12872945588E+02 -0.16089831499E+02  0.56487089814E+02  0.10872710906E+03  0.90588065021E+02 0.  0.
        -13    1    4    4    0    0 -0.26028508737E+02  0.19446805404E+02  0.43793702977E+02  0.54530266164E+02  0.00000000000E+00 0. -1.
         13    1    4    4    0    0  0.38901454325E+02 -0.35536636903E+02  0.12693386837E+02  0.54196842901E+02  0.00000000000E+00 0.  1.
        -13    1    3    3    0    0 -0.54138952755E+02 -0.15395787106E+02  0.10761202847E+03  0.12144301189E+03  0.00000000000E+00 0. -1.
         13    1    3    3    0    0  0.17103832845E+02  0.42248896705E+02  0.87452923478E+02  0.98618072358E+02  0.00000000000E+00 0.  1.
          1    1    1    2  501    0  0.24162174322E+02 -0.10763278101E+02  0.13600983342E+02  0.29742991970E+02  0.00000000000E+00 0. -1.
<scales pt_clust_5="13000.00000" pt_clust_6="13000.00000" pt_clust_7="13000.00000" pt_clust_8="13000.00000" pt_clust_9="26.45106"></scales>
<clustering>
<clus scale="   26.451">  2  9  1 -1</clus>
<clus scale="   90.588">  5  6 -1 -1</clus>
<clus scale="   91.016">  7  8 -1 -1</clus>
<clus scale="   98.010">  2  5  1 -1</clus>
<clus scale="   26.451">  2  5  1 -1</clus>
</clustering>
</event>
<event>
 9    1  0.1445593E-005  0.1738737E+03  0.7546771E-02  0.1174041E+00
         21   -1    0    0  501  502  0.00000000000E+00  0.00000000000E+00  0.17413414735E+03  0.17413414735E+03  0.00000000000E+00 0. -1.
          1   -1    0    0  502    0 -0.00000000000E+00 -0.00000000000E+00 -0.69464200598E+03  0.69464200598E+03  0.00000000000E+00 0. -1.
         23    2    1    2    0    0  0.12874783298E+03 -0.78446598749E+02 -0.62276294490E+03  0.64726104723E+03  0.91560386464E+02 0.  0.
         23    2    1    2    0    0 -0.87475076084E+02  0.86217292845E+02  0.66232425344E+02  0.16618467823E+03  0.90251330131E+02 0.  0.
        -11    1    3    3    0    0  0.98133383880E+02 -0.86991158480E+02 -0.57585700725E+03  0.59060047027E+03  0.00000000000E+00 0. -1.
         11    1    3    3    0    0  0.30614449099E+02  0.85445597309E+01 -0.46905937654E+02  0.56660576964E+02  0.00000000000E+00 0.  1.
        -13    1    4    4    0    0 -0.32061578786E+02 -0.44916458570E+01 -0.11653733934E+02  0.34408272717E+02  0.00000000000E+00 0.  1.
         13    1    4    4    0    0 -0.55413497299E+02  0.90708938702E+02  0.77886159278E+02  0.13177640551E+03  0.00000000000E+00 0. -1.
          1    1    1    2  501    0 -0.41272756895E+02 -0.77706940957E+01  0.36022660919E+02  0.55330427869E+02  0.00000000000E+00 0. -1.
<scales pt_clust_5="13000.00000" pt_clust_6="13000.00000" pt_clust_7="13000.00000" pt_clust_8="13000.00000" pt_clust_9="41.99791"></scales>
<clustering>
<clus scale="   41.998">  1  9  2 -1</clus>
<clus scale="   90.251">  7  8 -1 -1</clus>
<clus scale="   91.560">  5  6 -1 -1</clus>
<clus scale="  173.188">  1  7  2 -1</clus>
<clus scale="   41.998">  1  5  2 -1</clus>
</clustering>
</event>
<event>
 9    1  0.1445593E-005  0.1129554E+03  0.7546771E-02  0.1257362E+00
         21   -1    0    0  501  502  0.00000000000E+00  0.00000000000E+00  0.15345637982E+03  0.15345637982E+03  0.00000000000E+00 0.  1.
         -2   -1    0    0    0  501 -0.00000000000E+00 -0.00000000000E+00 -0.20272981288E+03  0.20272981288E+03  0.00000000000E+00 0.  1.
         23    2    1    2    0    0  0.76864626651E+02 -0.18732791517E+02 -0.10803503358E+03  0.16019959674E+03  0.87938922021E+02 0.  0.
         23    2    1    2    0    0 -0.79470366118E+01  0.51082585605E+02  0.14725985173E+02  0.10803616212E+03  0.93714309176E+02 0.  0.
        -11    1    3    3    0    0 -0.10017292020E+02  0.18421302921E+02 -0.76073411685E+01  0.22306101864E+02  0.00000000000E+00 0. -1.
         11    1    3    3    0    0  0.86881918670E+02 -0.37154094438E+02 -0.10042769241E+03  0.13789349487E+03  0.00000000000E+00 0.  1.
        -13    1    4    4    0    0  0.36041160523E+02  0.47876681356E+02 -0.41329296938E+01  0.60068485725E+02  0.00000000000E+00 0.  1.
         13    1    4    4    0    0 -0.43988197135E+02  0.32059042491E+01  0.18858914867E+02  0.47967676399E+02  0.00000000000E+00 0. -1.
         -2    1    1    2    0  502 -0.68917590039E+02 -0.32349794088E+02  0.44035615342E+02  0.87950433841E+02  0.00000000000E+00 0.  1.
<scales pt_clust_5="13000.00000" pt_clust_6="13000.00000" pt_clust_7="13000.00000" pt_clust_8="13000.00000" pt_clust_9="76.13241"></scales>
<clustering>
<clus scale="   76.132">  1  9  2 -1</clus>
<clus scale="   87.939">  5  6 -1 -1</clus>
<clus scale="   93.714">  7  8 -1 -1</clus>
<clus scale="  108.212">  2  5  1 -1</clus>
<clus scale="   76.132">  1  5  2 -1</clus>
</clustering>
</event>
<event>
 9    1  0.1445593E-005  0.1368526E+03  0.7546771E-02  0.1218399E+00
         21   -1    0    0  501  502  0.00000000000E+00  0.00000000000E+00  0.79856635192E+02  0.79856635192E+02  0.00000000000E+00 0. -1.
         -2   -1    0    0    0  501 -0.00000000000E+00 -0.00000000000E+00 -0.29126393920E+03  0.29126393920E+03  0.00000000000E+00 0.  1.
         23    2    1    2    0    0 -0.10279849114E+03  0.16732872038E+02 -0.13708095193E+03  0.19595657335E+03  0.93596327217E+02 0.  0.
         23    2    1    2    0    0  0.95367593634E+02  0.24076268926E+01 -0.80046140767E+02  0.15384985269E+03  0.90341673318E+02 0.  0.
        -13    1    4    4    0    0  0.32048722643E+02 -0.34392991083E+02 -0.23373814752E+01  0.47068692471E+02  0.00000000000E+00 0.  1.
         13    1    4    4    0    0  0.63318870991E+02  0.36800617976E+02 -0.77708759291E+02  0.10678116022E+03  0.00000000000E+00 0. -1.
        -13    1    3    3    0    0 -0.43329588440E+02  0.54313123083E+02 -0.73359280852E+02  0.10103936194E+03  0.00000000000E+00 0. -1.
         13    1    3    3    0    0 -0.59468902701E+02 -0.37580251045E+02 -0.63721671082E+02  0.94917211413E+02  0.00000000000E+00 0.  1.
         -2    1    1    2    0  502  0.74308975060E+01 -0.19140498931E+02  0.57197886971E+01  0.21314148348E+02  0.00000000000E+00 0.  1.
<scales pt_clust_5="13000.00000" pt_clust_6="13000.00000" pt_clust_7="13000.00000" pt_clust_8="13000.00000" pt_clust_9="20.53234"></scales>
<clustering>
<clus scale="   20.532">  1  9  2 -1</clus>
<clus scale="   90.342">  5  6 -1 -1</clus>
<clus scale="   93.596">  7  8 -1 -1</clus>
<clus scale="  134.648">  1  5  2 -1</clus>
<clus scale="   20.532">  1  5  2 -1</clus>
</clustering>
</event>
<event>
 9    1  0.1445593E-005  0.9360679E+02  0.7546771E-02  0.1294423E+00
          1   -1    0    0  502    0 -0.00000000000E+00  0.00000000000E+00  0.32802520796E+03  0.32802520796E+03  0.00000000000E+00 0. -1.
         21   -1    0    0  501  502  0.00000000000E+00 -0.00000000000E+00 -0.12471590869E+03  0.12471590869E+03  0.00000000000E+00 0. -1.
         23    2    1    2    0    0 -0.10495566257E+02  0.11516271471E+02  0.18928010164E+03  0.21106881217E+03  0.92088572456E+02 0.  0.
         23    2    1    2    0    0  0.25400170030E+02  0.64374021975E+01  0.10835231294E+03  0.14450578919E+03  0.91951566638E+02 0.  0.
        -11    1    4    4    0    0 -0.18515200174E+02  0.12218153892E+02  0.95988395743E+02  0.98518363970E+02  0.00000000000E+00 0. -1.
         11    1    4    4    0    0  0.43915370204E+02 -0.57807516942E+01  0.12363917194E+02  0.45987425224E+02  0.00000000000E+00 0.  1.
        -13    1    3    3    0    0  0.35702240692E+02  0.25793190616E+02  0.10569972900E+03  0.11450926330E+03  0.00000000000E+00 0.  1.
         13    1    3    3    0    0 -0.46197806948E+02 -0.14276919145E+02  0.83580372641E+02  0.96559548870E+02  0.00000000000E+00 0. -1.
          1    1    1    2  501    0 -0.14904603773E+02 -0.17953673669E+02 -0.94323115301E+02  0.97166515281E+02  0.00000000000E+00 0. -1.
<scales pt_clust_5="13000.00000" pt_clust_6="13000.00000" pt_clust_7="13000.00000" pt_clust_8="13000.00000" pt_clust_9="23.33413"></scales>
<clustering>
<clus scale="   23.334">  2  9  1 -1</clus>
<clus scale="   91.952">  5  6 -1 -1</clus>
<clus scale="   92.089">  7  8 -1 -1</clus>
<clus scale="   93.472">  2  5  1 -1</clus>
<clus scale="   23.334">  2  5  1 -1</clus>
</clustering>
</event>
<event>
 9    1  0.1445593E-005  0.9949045E+02  0.7546771E-02  0.1281660E+00
          1   -1    0    0  502    0 -0.00000000000E+00  0.00000000000E+00  0.79183804884E+03  0.79183804884E+03  0.00000000000E+00 0. -1.
         21   -1    0    0  501  502  0.00000000000E+00 -0.00000000000E+00 -0.43561835569E+02  0.43561835569E+02  0.00000000000E+00 0. -1.
         23    2    1    2    0    0  0.22960639992E+02 -0.28020140620E+02  0.40586048325E+03  0.41741992091E+03  0.90577807634E+02 0.  0.
         23    2    1    2    0    0  0.26310536456E+01  0.54188989883E+02  0.36166945655E+03  0.37662238330E+03  0.89979190539E+02 0.  0.
        -11    1    4    4    0    0  0.42593315985E+02  0.23066773203E+02  0.11463404939E+03  0.12444770738E+03  0.00000000000E+00 0.  1.
         11    1    4    4    0    0 -0.39962262339E+02  0.31122216680E+02  0.24703540716E+03  0.25217467591E+03  0.00000000000E+00 0. -1.
        -13    1    3    3    0    0  0.57672260233E+02 -0.17410862684E+02  0.22313646958E+03  0.23112574888E+03  0.00000000000E+00 0.  1.
         13    1    3    3    0    0 -0.34711620242E+02 -0.10609277935E+02  0.18272401368E+03  0.18629417203E+03  0.00000000000E+00 0. -1.
          1    1    1    2  501    0 -0.25591693637E+02 -0.26168849263E+02 -0.19253726533E+02  0.41357580205E+02  0.00000000000E+00 0. -1.
<scales pt_clust_5="13000.00000" pt_clust_6="13000.00000" pt_clust_7="13000.00000" pt_clust_8="13000.00000" pt_clust_9="36.60251"></scales>
<clustering>
<clus scale="   36.603">  2  9  1 -1</clus>
<clus scale="   89.979">  5  6 -1 -1</clus>
<clus scale="   90.578">  7  8 -1 -1</clus>
<clus scale="   98.946">  2  5  1 -1</clus>
<clus scale="   36.603">  2  5  1 -1</clus>
</clustering>
</event>
<event>
 9    1  0.1445593E-005  0.9126192E+02  0.7546771E-02  0.1300724E+00
          1   -1    0    0  502    0 -0.00000000000E+00  0.00000000000E+00  0.58152122508E+03  0.58152122508E+03  0.00000000000E+00 0. -1.
         21   -1    0    0  501  502  0.00000000000E+00 -0.00000000000E+00 -0.33249756970E+02  0.33249756970E+02  0.00000000000E+00 0.  1.
         23    2    1    2    0    0 -0.17022303331E+02  0.22100306668E+01  0.36260184286E+03  0.37392387425E+03  0.89690156910E+02 0.  0.
         23    2    1    2    0    0  0.15079839833E+02  0.24355939434E+02  0.55638712757E+02  0.10811594289E+03  0.88163356308E+02 0.  0.
        -11    1    4    4    0    0  0.50374827959E+02  0.15911349824E+01  0.34666361181E+02  0.61171166410E+02  0.00000000000E+00 0.  1.
         11    1    4    4    0    0 -0.35294988126E+02  0.22764804452E+02  0.20972351576E+02  0.46944776484E+02  0.00000000000E+00 0. -1.
        -11    1    3    3    0    0 -0.54535481058E+01  0.45677311668E+02  0.19933847607E+03  0.20457757949E+03  0.00000000000E+00 0.  1.
         11    1    3    3    0    0 -0.11568755225E+02 -0.43467281002E+02  0.16326336679E+03  0.16934629476E+03  0.00000000000E+00 0. -1.
          1    1    1    2  501    0  0.19424634975E+01 -0.26565970101E+02  0.13003091250E+03  0.13273116490E+03  0.00000000000E+00 0. -1.
<scales pt_clust_5="13000.00000" pt_clust_6="13000.00000" pt_clust_7="13000.00000" pt_clust_8="13000.00000" pt_clust_9="26.63690"></scales>
<clustering>
<clus scale="   26.637">  2  9  1 -1</clus>
<clus scale="   88.163">  5  6 -1 -1</clus>
<clus scale="   89.690">  7  8 -1 -1</clus>
<clus scale="   89.762">  2  5  1 -1</clus>
<clus scale="   26.637">  2  5  1 -1</clus>
</clustering>
</event>
<event>
 9    1  0.1445593E-005  0.1128511E+03  0.7546771E-02  0.1256613E+00
         21   -1    0    0  501  502  0.00000000000E+00  0.00000000000E+00  0.32814153486E+03  0.32814153486E+03  0.00000000000E+00 0. -1.
          1   -1    0    0  502    0 -0.00000000000E+00 -0.00000000000E+00 -0.13806179744E+03  0.13806179744E+03  0.00000000000E+00 0. -1.
         23    2    1    2    0    0  0.65303609330E+02 -0.48924502824E+02 -0.74568772773E+02  0.14439102711E+03  0.92898323278E+02 0.  0.
         23    2    1    2    0    0 -0.23878465554E+02 -0.12144599446E+02  0.80302621630E+02  0.12324522731E+03  0.89572331676E+02 0.  0.
        -13    1    3    3    0    0 -0.18024547169E+01 -0.53652598132E+02 -0.48163618371E+02  0.72122009567E+02  0.00000000000E+00 0. -1.
         13    1    3    3    0    0  0.67106064047E+02  0.47280953088E+01 -0.26405154402E+02  0.72269017540E+02  0.00000000000E+00 0.  1.
        -13    1    4    4    0    0 -0.31595904647E+02  0.26892894423E+02  0.71226557415E+02  0.82430282313E+02  0.00000000000E+00 0.  1.
         13    1    4    4    0    0  0.77174390929E+01 -0.39037493870E+02  0.90760642146E+01  0.40814945001E+02  0.00000000000E+00 0. -1.
          1    1    1    2  501    0 -0.41425143776E+02  0.61069102270E+02  0.18434588856E+03  0.19856707788E+03  0.00000000000E+00 0. -1.
<scales pt_clust_5="13000.00000" pt_clust_6="13000.00000" pt_clust_7="13000.00000" pt_clust_8="13000.00000" pt_clust_9="73.79348"></scales>
<clustering>
<clus scale="   73.793">  1  9  2 -1</clus>
<clus scale="   89.572">  7  8 -1 -1</clus>
<clus scale="   92.898">  5  6 -1 -1</clus>
<clus scale="  110.129">  1  7  2 -1</clus>
<clus scale="   73.793">  1  5  2 -1</clus>
</clustering>
</event>
<event>
 9    1  0.1445593E-005  0.2303744E+03  0.7546771E-02  0.1141820E+00
         21   -1    0    0  501  502  0.00000000000E+00  0.00000000000E+00  0.18577659522E+03  0.18577659522E+03  0.00000000000E+00 0. -1.
          2   -1    0    0  502    0 -0.00000000000E+00 -0.00000000000E+00 -0.89362730542E+03  0.89362730542E+03  0.00000000000E+00 0. -1.
         23    2    1    2    0    0 -0.10375193214E+03  0.77951786927E+02 -0.23534252816E+03  0.28351425936E+03  0.90295543574E+02 0.  0.
         23    2    1    2    0    0  0.22356457657E+03 -0.22987929071E+03 -0.49901249403E+03  0.60059623451E+03  0.94216556505E+02 0.  0.
        -11    1    4    4    0    0  0.56732936570E+02 -0.64487294533E+02 -0.21808512678E+03  0.23438933374E+03  0.00000000000E+00 0.  1.
         11    1    4    4    0    0  0.16683164000E+03 -0.16539199618E+03 -0.28092736725E+03  0.36620690077E+03  0.00000000000E+00 0. -1.
        -13    1    3    3    0    0 -0.47077084075E+02  0.50596442390E+01 -0.15174250188E+03  0.15895797785E+03  0.00000000000E+00 0. -1.
         13    1    3    3    0    0 -0.56674848065E+02  0.72892142687E+02 -0.83600026279E+02  0.12455628151E+03  0.00000000000E+00 0.  1.
          2    1    1    2  501    0 -0.11981264443E+03  0.15192750378E+03  0.26504311992E+02  0.19529340676E+03  0.00000000000E+00 0. -1.
<scales pt_clust_5="13000.00000" pt_clust_6="13000.00000" pt_clust_7="13000.00000" pt_clust_8="13000.00000" pt_clust_9="210.22755"></scales>
<clustering>
<clus scale="   90.296">  7  8 -1 -1</clus>
<clus scale="   94.217">  5  6 -1 -1</clus>
<clus scale="  158.096">  2  7  1 -1</clus>
<clus scale="  210.228">  1  9  2 -1</clus>
<clus scale="  210.228">  1  5  2 -1</clus>
</clustering>
</event>
<event>
 9    1  0.1445593E-005  0.1078661E+03  0.7546771E-02  0.1266931E+00
         21   -1    0    0  501  502  0.00000000000E+00  0.00000000000E+00  0.28789901253E+03  0.28789901253E+03  0.00000000000E+00 0. -1.
         -1   -1    0    0    0  501 -0.00000000000E+00 -0.00000000000E+00 -0.61272105330E+02  0.61272105330E+02  0.00000000000E+00 0.  1.
         23    2    1    2    0    0  0.39615724483E+02  0.87883248085E+01  0.33106189347E+02  0.11019699172E+03  0.96957294376E+02 0.  0.
         23    2    1    2    0    0 -0.64745427164E+02  0.36151642313E+01  0.15435793662E+03  0.19081738278E+03  0.91541581922E+02 0.  0.
        -11    1    4    4    0    0 -0.57245013316E+02 -0.31128781795E+02  0.13601749065E+03  0.15082025848E+03  0.00000000000E+00 0. -1.
         11    1    4    4    0    0 -0.75004138474E+01  0.34743946026E+02  0.18340445967E+02  0.39997124292E+02  0.00000000000E+00 0.  1.
        -11    1    3    3    0    0 -0.84357866727E+01  0.25137044057E+02 -0.22596834196E+02  0.34837485507E+02  0.00000000000E+00 0.  1.
         11    1    3    3    0    0  0.48051511155E+02 -0.16348719249E+02  0.55703023544E+02  0.75359506217E+02  0.00000000000E+00 0. -1.
         -1    1    1    2    0  502  0.25129702681E+02 -0.12403489040E+02  0.39162781234E+02  0.48156743361E+02  0.00000000000E+00 0.  1.
<scales pt_clust_5="13000.00000" pt_clust_6="13000.00000" pt_clust_7="13000.00000" pt_clust_8="13000.00000" pt_clust_9="28.02407"></scales>
<clustering>
<clus scale="   28.024">  1  9  2 -1</clus>
<clus scale="   91.542">  5  6 -1 -1</clus>
<clus scale="   96.957">  7  8 -1 -1</clus>
<clus scale="  103.025">  1  5  2 -1</clus>
<clus scale="   28.024">  1  5  2 -1</clus>
</clustering>
</event>
<event>
 9    1  0.1445593E-005  0.9625293E+02  0.7546771E-02  0.1289127E+00
         21   -1    0    0  501  502  0.00000000000E+00  0.00000000000E+00  0.50061241926E+02  0.50061241926E+02  0.00000000000E+00 0. -1.
          2   -1    0    0  502    0 -0.00000000000E+00 -0.00000000000E+00 -0.88678007929E+03  0.88678007929E+03  0.00000000000E+00 0. -1.
         23    2    1    2    0    0 -0.27379621225E+01  0.31650902621E+02 -0.47888197151E+03  0.48869478666E+03  0.92116099562E+02 0.  0.
         23    2    1    2    0    0  0.28993597298E+02 -0.14269300676E+02 -0.39084218553E+03  0.40253042346E+03  0.90713208475E+02 0.  0.
        -11    1    3    3    0    0 -0.12000546917E+02 -0.31324104337E+02 -0.18206840610E+03  0.18513270143E+03  0.00000000000E+00 0.  1.
         11    1    3    3    0    0  0.92625847942E+01  0.62975006957E+02 -0.29681356541E+03  0.30356208523E+03  0.00000000000E+00 0. -1.
        -13    1    4    4    0    0  0.49713978686E+02 -0.34128504700E+02 -0.32728104164E+03  0.33278989577E+03  0.00000000000E+00 0.  1.
         13    1    4    4    0    0 -0.20720381388E+02  0.19859204025E+02 -0.63561143894E+02  0.69740527690E+02  0.00000000000E+00 0. -1.
          2    1    1    2  501    0 -0.26255635175E+02 -0.17381601945E+02  0.33005319677E+02  0.45616111097E+02  0.00000000000E+00 0. -1.
<scales pt_clust_5="13000.00000" pt_clust_6="13000.00000" pt_clust_7="13000.00000" pt_clust_8="13000.00000" pt_clust_9="31.48775"></scales>
<clustering>
<clus scale="   31.488">  1  9  2 -1</clus>
<clus scale="   90.713">  7  8 -1 -1</clus>
<clus scale="   92.116">  5  6 -1 -1</clus>
<clus scale="   94.911">  1  7  2 -1</clus>
<clus scale="   31.488">  1  5  2 -1</clus>
</clustering>
</event>
<event>
 9    1  0.1445593E-005  0.1018654E+03  0.7546771E-02  0.1277119E+00
          1   -1    0    0  502    0 -0.00000000000E+00  0.00000000000E+00  0.23747120091E+03  0.23747120091E+03  0.00000000000E+00 0. -1.
         21   -1    0    0  501  502  0.00000000000E+00 -0.00000000000E+00 -0.11338519244E+03  0.11338519244E+03  0.00000000000E+00 0.  1.
         23    2    1    2    0    0 -0.17288525011E+02 -0.40116754230E+02  0.16072260765E+03  0.19217250069E+03  0.95865876857E+02 0.  0.
         23    2    1    2    0    0  0.65938152016E+01 -0.12685245341E+02 -0.42415882725E+02  0.10450061023E+03  0.94429214666E+02 0.  0.
        -13    1    3    3    0    0 -0.41022346634E+02  0.72980628845E+01  0.30702950214E+02  0.51756794695E+02  0.00000000000E+00 0.  1.
         13    1    3    3    0    0  0.23733821623E+02 -0.47414817114E+02  0.13001965744E+03  0.14041570600E+03  0.00000000000E+00 0. -1.
        -13    1    4    4    0    0 -0.14118327018E+02 -0.30284638447E+02 -0.62387672017E+02  0.70772226920E+02  0.00000000000E+00 0.  1.
         13    1    4    4    0    0  0.20712142219E+02  0.17599393106E+02  0.19971789292E+02  0.33728383307E+02  0.00000000000E+00 0. -1.
          1    1    1    2  501    0  0.10694709809E+02  0.52801999571E+02  0.57792835481E+01  0.54183282430E+02  0.00000000000E+00 0. -1.
<scales pt_clust_5="13000.00000" pt_clust_6="13000.00000" pt_clust_7="13000.00000" pt_clust_8="13000.00000" pt_clust_9="53.87419"></scales>
<clustering>
<clus scale="   53.874">  2  9  1 -1</clus>
<clus scale="   94.429">  7  8 -1 -1</clus>
<clus scale="   95.866">  5  6 -1 -1</clus>
<clus scale="  100.515">  2  7  1 -1</clus>
<clus scale="   53.874">  2  5  1 -1</clus>
</clustering>
</event>
<event>
 9    1  0.1445593E-005  0.9689449E+02  0.7546771E-02  0.1289462E+00
         -2   -1    0    0    0  501 -0.00000000000E+00  0.00000000000E+00  0.36471243019E+03  0.36471243019E+03  0.00000000000E+00 0.  1.
         21   -1    0    0  501  502  0.00000000000E+00 -0.00000000000E+00 -0.36312222100E+02  0.36312222100E+02  0.00000000000E+00 0. -1.
         23    2    1    2    0    0  0.26096480118E+02  0.57403626246E+01  0.15106522071E+03  0.17738064531E+03  0.89046136280E+02 0.  0.
         23    2    1    2    0    0 -0.42453422467E+02 -0.28723814596E+02  0.16637059337E+03  0.19337840664E+03  0.84194318176E+02 0.  0.
        -11    1    4    4    0    0 -0.61755739068E+02 -0.39637557852E+02  0.10480539801E+03  0.12794170060E+03  0.00000000000E+00 0.  1.
         11    1    4    4    0    0  0.19302316602E+02  0.10913743256E+02  0.61565195356E+02  0.65436706039E+02  0.00000000000E+00 0. -1.
        -13    1    3    3    0    0 -0.81792154176E+01  0.39776314261E+02  0.95376160075E+02  0.10366130740E+03  0.00000000000E+00 0.  1.
         13    1    3    3    0    0  0.34275695536E+02 -0.34035951637E+02  0.55689060634E+02  0.73719337915E+02  0.00000000000E+00 0. -1.
         -2    1    1    2    0  502  0.16356942349E+02  0.22983451972E+02  0.10964394012E+02  0.30265600334E+02  0.00000000000E+00 0.  1.
<scales pt_clust_5="13000.00000" pt_clust_6="13000.00000" pt_clust_7="13000.00000" pt_clust_8="13000.00000" pt_clust_9="28.20973"></scales>
<clustering>
<clus scale="   28.210">  2  9  1 -1</clus>
<clus scale="   84.194">  5  6 -1 -1</clus>
<clus scale="   89.046">  7  8 -1 -1</clus>
<clus scale="   92.455">  2  5  1 -1</clus>
<clus scale="   28.210">  2  5  1 -1</clus>
</clustering>
</event>
<event>
 9    1  0.1445593E-005  0.1097547E+03  0.7546771E-02  0.1262097E+00
          1   -1    0    0  502    0 -0.00000000000E+00  0.00000000000E+00  0.43799408453E+03  0.43799408453E+03  0.00000000000E+00 0. -1.
         21   -1    0    0  501  502  0.00000000000E+00 -0.00000000000E+00 -0.44038377868E+02  0.44038377868E+02  0.00000000000E+00 0.  1.
         23    2    1    2    0    0 -0.64325553221E+02  0.40331721572E+01  0.29447548664E+03  0.31546511334E+03  0.92996678580E+02 0.  0.
         23    2    1    2    0    0  0.40148508205E+02 -0.24327287671E+02  0.71353423759E+02  0.12428854470E+03  0.90291813718E+02 0.  0.
        -11    1    3    3    0    0 -0.43645460831E+02 -0.43299577778E+02  0.16255354405E+03  0.17379135298E+03  0.00000000000E+00 0.  1.
         11    1    3    3    0    0 -0.20680092390E+02  0.47332749936E+02  0.13192194258E+03  0.14167376035E+03  0.00000000000E+00 0. -1.
        -11    1    4    4    0    0  0.41303236336E+02  0.11877919462E+02  0.76456056680E+02  0.87707302465E+02  0.00000000000E+00 0. -1.
         11    1    4    4    0    0 -0.11547281313E+01 -0.36205207133E+02 -0.51026329213E+01  0.36581242233E+02  0.00000000000E+00 0.  1.
          1    1    1    2  501    0  0.24177045016E+02  0.20294115513E+02  0.28126796263E+02  0.42278804361E+02  0.00000000000E+00 0. -1.
<scales pt_clust_5="13000.00000" pt_clust_6="13000.00000" pt_clust_7="13000.00000" pt_clust_8="13000.00000" pt_clust_9="31.56550"></scales>
<clustering>
<clus scale="   31.565">  2  9  1 -1</clus>
<clus scale="   90.292">  7  8 -1 -1</clus>
<clus scale="   92.997">  5  6 -1 -1</clus>
<clus scale="  107.472">  2  7  1 -1</clus>
<clus scale="   31.565">  2  5  1 -1</clus>
</clustering>
</event>
<event>
 9    1  0.1445593E-005  0.1580580E+03  0.7546771E-02  0.1208048E+00
         21   -1    0    0  501  502  0.00000000000E+00  0.00000000000E+00  0.68758248667E+03  0.68758248667E+03  0.00000000000E+00 0. -1.
          1   -1    0    0  502    0 -0.00000000000E+00 -0.00000000000E+00 -0.10661600587E+03  0.10661600587E+03  0.00000000000E+00 0. -1.
         23    2    1    2    0    0  0.21728816126E+01  0.47615845659E+02 -0.27381803218E+02  0.11227897419E+03  0.97902067008E+02 0.  0.
         23    2    1    2    0    0 -0.12761765272E+03 -0.62385110376E+02  0.24664481338E+03  0.29879561874E+03  0.90922992306E+02 0.  0.
        -13    1    4    4    0    0  0.44869056176E+01 -0.32681910899E+02  0.55215471124E+02  0.64319420655E+02  0.00000000000E+00 0.  1.
         13    1    4    4    0    0 -0.13210455834E+03 -0.29703199477E+02  0.19142934226E+03  0.23447619809E+03  0.00000000000E+00 0. -1.
        -13    1    3    3    0    0 -0.83602941448E+00  0.68757654818E+02 -0.46992022160E+02  0.83286038374E+02  0.00000000000E+00 0. -1.
         13    1    3    3    0    0  0.30089110271E+01 -0.21141809159E+02  0.19610218942E+02  0.28992935813E+02  0.00000000000E+00 0.  1.
          1    1    1    2  501    0  0.12544477111E+03  0.14769264717E+02  0.36170347064E+03  0.38312389961E+03  0.00000000000E+00 0. -1.
<scales pt_clust_5="13000.00000" pt_clust_6="13000.00000" pt_clust_7="13000.00000" pt_clust_8="13000.00000" pt_clust_9="129.28784"></scales>
<clustering>
<clus scale="   90.923">  5  6 -1 -1</clus>
<clus scale="   97.902">  7  8 -1 -1</clus>
<clus scale="  108.889">  2  7  1 -1</clus>
<clus scale="  129.288">  1  9  2 -1</clus>
<clus scale="  129.288">  1  5  2 -1</clus>
</clustering>
</event>
<event>
 9    1  0.1445593E-005  0.1728771E+03  0.7546771E-02  0.1191851E+00
         21   -1    0    0  501  502  0.00000000000E+00  0.00000000000E+00  0.13096637150E+03  0.13096637150E+03  0.00000000000E+00 0. -1.
          2   -1    0    0  502    0 -0.00000000000E+00 -0.00000000000E+00 -0.66802695820E+03  0.66802695820E+03  0.00000000000E+00 0. -1.
         23    2    1    2    0    0 -0.19349977391E+02  0.72918031903E+02 -0.27620990263E+02  0.12149099705E+03  0.91135515909E+02 0.  0.
         23    2    1    2    0    0 -0.94083643148E+02  0.32686257091E+02 -0.50457638927E+03  0.52244394718E+03  0.91816240520E+02 0.  0.
        -11    1    3    3    0    0  0.20457507404E+02  0.11370611401E+02  0.22681217104E+02  0.32591993221E+02  0.00000000000E+00 0.  1.
         11    1    3    3    0    0 -0.39807484795E+02  0.61547420502E+02 -0.50302207368E+02  0.88899003831E+02  0.00000000000E+00 0. -1.
        -11    1    4    4    0    0 -0.18964144894E+02 -0.30863296824E+02 -0.16310370854E+03  0.16707783103E+03  0.00000000000E+00 0. -1.
         11    1    4    4    0    0 -0.75119498254E+02  0.63549553914E+02 -0.34147268073E+03  0.35536611615E+03  0.00000000000E+00 0.  1.
          2    1    1    2  501    0  0.11343362054E+03 -0.10560428899E+03 -0.48632071672E+01  0.15505838548E+03  0.00000000000E+00 0. -1.
<scales pt_clust_5="13000.00000" pt_clust_6="13000.00000" pt_clust_7="13000.00000" pt_clust_8="13000.00000" pt_clust_9="146.47961"></scales>
<clustering>
<clus scale="   91.136">  5  6 -1 -1</clus>
<clus scale="   91.816">  7  8 -1 -1</clus>
<clus scale="  118.310">  2  5  1 -1</clus>
<clus scale="  146.480">  1  9  2 -1</clus>
<clus scale="  146.480">  1  5  2 -1</clus>
</clustering>
</event>
<event>
 9    1  0.1445593E-005  0.2220815E+03  0.7546771E-02  0.1132397E+00
         -4   -1    0    0    0  501 -0.00000000000E+00  0.00000000000E+00  0.77648089655E+03  0.77648089655E+03  0.00000000000E+00 0.  1.
         21   -1    0    0  501  502  0.00000000000E+00 -0.00000000000E+00 -0.40001749533E+03  0.40001749533E+03  0.00000000000E+00 0. -1.
         23    2    1    2    0    0  0.18840231620E+03  0.67607389209E+02  0.68887471956E+03  0.72317683220E+03  0.91488576043E+02 0.  0.
         23    2    1    2    0    0 -0.22794316594E+03 -0.97843753230E+02 -0.30420434134E+03  0.40287286319E+03  0.90745664664E+02 0.  0.
        -11    1    3    3    0    0  0.13769867383E+03  0.86246037988E+02  0.56795714398E+03  0.59074073944E+03  0.00000000000E+00 0.  1.
         11    1    3    3    0    0  0.50703642371E+02 -0.18638648780E+02  0.12091757558E+03  0.13243609275E+03  0.00000000000E+00 0. -1.
        -11    1    4    4    0    0 -0.56408641539E+02  0.15504644745E+02 -0.64843356109E+02  0.87332638117E+02  0.00000000000E+00 0. -1.
         11    1    4    4    0    0 -0.17153452440E+03 -0.11334839797E+03 -0.23936098523E+03  0.31554022507E+03  0.00000000000E+00 0.  1.
         -4    1    1    2    0  502  0.39540849740E+02  0.30236364021E+02 -0.82069770037E+01  0.50448696503E+02  0.00000000000E+00 0.  1.
<scales pt_clust_5="13000.00000" pt_clust_6="13000.00000" pt_clust_7="13000.00000" pt_clust_8="13000.00000" pt_clust_9="49.77667"></scales>
<clustering>
<clus scale="   49.777">  2  9  1 -1</clus>
<clus scale="   90.746">  7  8 -1 -1</clus>
<clus scale="   91.489">  5  6 -1 -1</clus>
<clus scale="  221.776">  2  7  1 -1</clus>
<clus scale="   49.777">  2  5  1 -1</clus>
</clustering>
</event>
<event>
 9    1  0.1445593E-005  0.1372068E+03  0.7546771E-02  0.1218033E+00
         21   -1    0    0  501  502  0.00000000000E+00  0.00000000000E+00  0.22332034193E+03  0.22332034193E+03  0.00000000000E+00 0. -1.
          1   -1    0    0  502    0 -0.00000000000E+00 -0.00000000000E+00 -0.35725304084E+03  0.35725304084E+03  0.00000000000E+00 0. -1.
         23    2    1    2    0    0  0.87603211191E+02  0.48380289979E+02 -0.25552800965E+03  0.28873276339E+03  0.89761182423E+02 0.  0.
         23    2    1    2    0    0 -0.76204416936E+02 -0.70243171101E+02 -0.26148625841E+02  0.14205347414E+03  0.93564002881E+02 0.  0.
        -11    1    3    3    0    0  0.40321810930E+02 -0.19334943183E+02 -0.49179796779E+02  0.66470601591E+02  0.00000000000E+00 0.  1.
         11    1    3    3    0    0  0.47281400261E+02  0.67715233162E+02 -0.20634821288E+03  0.22226216180E+03  0.00000000000E+00 0. -1.
        -13    1    4    4    0    0 -0.22729797145E+02 -0.73073025205E+02  0.10386077290E+02  0.77228112060E+02  0.00000000000E+00 0.  1.
         13    1    4    4    0    0 -0.53474619791E+02  0.28298541042E+01 -0.36534703131E+02  0.64825362081E+02  0.00000000000E+00 0. -1.
          1    1    1    2  501    0 -0.11398794255E+02  0.21862881122E+02  0.14774393658E+03  0.14978714523E+03  0.00000000000E+00 0. -1.
<scales pt_clust_5="13000.00000" pt_clust_6="13000.00000" pt_clust_7="13000.00000" pt_clust_8="13000.00000" pt_clust_9="24.65599"></scales>
<clustering>
<clus scale="   24.656">  1  9  2 -1</clus>
<clus scale="   89.761">  5  6 -1 -1</clus>
<clus scale="   93.564">  7  8 -1 -1</clus>
<clus scale="  134.642">  2  5  1 -1</clus>
<clus scale="   24.656">  1  5  2 -1</clus>
</clustering>
</event>
<event>
 9    1  0.1445593E-005  0.9060164E+02  0.7546771E-02  0.1301490E+00
         21   -1    0    0  501  502  0.00000000000E+00  0.00000000000E+00  0.27408816432E+02  0.27408816432E+02  0.00000000000E+00 0.  1.
          1   -1    0    0  502    0 -0.00000000000E+00 -0.00000000000E+00 -0.80444704215E+03  0.80444704215E+03  0.00000000000E+00 0. -1.
         23    2    1    2    0    0  0.88319608008E+01 -0.19899719375E+02 -0.29365441245E+03  0.30798071060E+03  0.90250771674E+02 0.  0.
         23    2    1    2    0    0  0.91152270298E+01 -0.58183136137E+02 -0.17789471728E+03  0.20805459507E+03  0.90398116120E+02 0.  0.
        -13    1    4    4    0    0 -0.77737960112E+01 -0.79733506228E+02 -0.14005097753E+03  0.16134478680E+03  0.00000000000E+00 0.  1.
         13    1    4    4    0    0  0.16889023041E+02  0.21550370090E+02 -0.37843739751E+02  0.46709808270E+02  0.00000000000E+00 0. -1.
        -13    1    3    3    0    0 -0.39347211655E+02 -0.87315781035E+01 -0.17196815002E+03  0.17662810689E+03  0.00000000000E+00 0.  1.
         13    1    3    3    0    0  0.48179172456E+02 -0.11168141272E+02 -0.12168626243E+03  0.13135260371E+03  0.00000000000E+00 0. -1.
          1    1    1    2  501    0 -0.17947187831E+02  0.78082855512E+02 -0.30548909598E+03  0.31582055291E+03  0.00000000000E+00 0. -1.
<scales pt_clust_5="13000.00000" pt_clust_6="13000.00000" pt_clust_7="13000.00000" pt_clust_8="13000.00000" pt_clust_9="80.11891"></scales>
<clustering>
<clus scale="   80.119">  1  9  2 -1</clus>
<clus scale="   90.251">  7  8 -1 -1</clus>
<clus scale="   90.398">  5  6 -1 -1</clus>
<clus scale="   90.455">  2  7  1 -1</clus>
<clus scale="   80.119">  1  5  2 -1</clus>
</clustering>
</event>
<event>
 9    1  0.1445593E-005  0.1200034E+03  0.7546771E-02  0.1245117E+00
          2   -1    0    0  502    0 -0.00000000000E+00  0.00000000000E+00  0.71189409403E+03  0.71189409403E+03  0.00000000000E+00 0. -1.
         21   -1    0    0  501  502  0.00000000000E+00 -0.00000000000E+00 -0.39396148085E+02  0.39396148085E+02  0.00000000000E+00 0.  1.
         23    2    1    2    0    0 -0.55661798545E+02 -0.36644918178E+02  0.28636676387E+03  0.30893629641E+03  0.94840001809E+02 0.  0.
         23    2    1    2    0    0  0.20810770254E+02  0.89205549019E+02  0.34305579080E+03  0.36598180798E+03  0.88683087664E+02 0.  0.
        -11    1    4    4    0    0 -0.17902595978E+02  0.86774446165E+02  0.24532635787E+03  0.26083582828E+03  0.00000000000E+00 0.  1.
         11    1    4    4    0    0  0.38713366232E+02  0.24311028547E+01  0.97729432932E+02  0.10514597970E+03  0.00000000000E+00 0. -1.
        -13    1    3    3    0    0  0.25779702968E+02 -0.16185764142E+02  0.55936153800E+02  0.63682221600E+02  0.00000000000E+00 0.  1.
         13    1    3    3    0    0 -0.81441501513E+02 -0.20459154036E+02  0.23043061007E+03  0.24525407481E+03  0.00000000000E+00 0. -1.
          2    1    1    2  501    0  0.34851028291E+02 -0.52560630842E+02  0.43075391276E+02  0.76372137727E+02  0.00000000000E+00 0. -1.
<scales pt_clust_5="13000.00000" pt_clust_6="13000.00000" pt_clust_7="13000.00000" pt_clust_8="13000.00000" pt_clust_9="63.06516"></scales>
<clustering>
<clus scale="   63.065">  2  9  1 -1</clus>
<clus scale="   88.683">  5  6 -1 -1</clus>
<clus scale="   94.840">  7  8 -1 -1</clus>
<clus scale="  115.199">  2  5  1 -1</clus>
<clus scale="   63.065">  2  5  1 -1</clus>
</clustering>
</event>
<event>
 9    1  0.1445593E-005  0.2321222E+03  0.7546771E-02  0.1125880E+00
         21   -1    0    0  501  502  0.00000000000E+00  0.00000000000E+00  0.45642744992E+03  0.45642744992E+03  0.00000000000E+00 0.  1.
          1   -1    0    0  502    0 -0.00000000000E+00 -0.00000000000E+00 -0.27013293947E+03  0.27013293947E+03  0.00000000000E+00 0. -1.
         23    2    1    2    0    0  0.16175664102E+03  0.13774690561E+03 -0.14542662301E+03  0.27639423961E+03  0.10052587773E+03 0.  0.
         23    2    1    2    0    0 -0.18872398163E+03 -0.79873506171E+02  0.18646686497E+03  0.29149866622E+03  0.90581799742E+02 0.  0.
        -11    1    4    4    0    0 -0.38578820173E+02 -0.52020107151E+02  0.25451799507E+02  0.69585997241E+02  0.00000000000E+00 0. -1.
         11    1    4    4    0    0 -0.15014516146E+03 -0.27853399020E+02  0.16101506546E+03  0.22191266898E+03  0.00000000000E+00 0.  1.
        -11    1    3    3    0    0  0.15154953815E+03  0.85540287232E+02 -0.13917718176E+03  0.22283332600E+03  0.00000000000E+00 0. -1.
         11    1    3    3    0    0  0.10207102870E+02  0.52206618375E+02 -0.62494412453E+01  0.53560913613E+02  0.00000000000E+00 0.  1.
          1    1    1    2  501    0  0.26967340612E+02 -0.57873399437E+02  0.14525426850E+03  0.15866748356E+03  0.00000000000E+00 0. -1.
<scales pt_clust_5="13000.00000" pt_clust_6="13000.00000" pt_clust_7="13000.00000" pt_clust_8="13000.00000" pt_clust_9="63.84801"></scales>
<clustering>
<clus scale="   63.848">  1  9  2 -1</clus>
<clus scale="   90.582">  5  6 -1 -1</clus>
<clus scale="  100.526">  7  8 -1 -1</clus>
<clus scale="  227.992">  1  5  2 -1</clus>
<clus scale="   63.848">  1  5  2 -1</clus>
</clustering>
</event>
<event>
 9    1  0.1445593E-005  0.9368830E+02  0.7546771E-02  0.1294757E+00
         -1   -1    0    0    0  501 -0.00000000000E+00  0.00000000000E+00  0.10621106520E+03  0.10621106520E+03  0.00000000000E+00 0.  1.
         21   -1    0    0  501  502  0.00000000000E+00 -0.00000000000E+00 -0.23323727481E+03  0.23323727481E+03  0.00000000000E+00 0.  1.
         23    2    1    2    0    0  0.62658449770E+01  0.49866250329E+01  0.13655679467E+02  0.94236704524E+02  0.92897533096E+02 0.  0.
         23    2    1    2    0    0  0.24659903585E+02 -0.13398512911E+02  0.48769210574E+01  0.96166243108E+02  0.91850590426E+02 0.  0.
        -11    1    3    3    0    0  0.39369526940E+02  0.45435737053E+01 -0.22207440401E+02  0.45428780775E+02  0.00000000000E+00 0.  1.
         11    1    3    3    0    0 -0.33103681963E+02  0.44305132761E+00  0.35863119868E+02  0.48807923749E+02  0.00000000000E+00 0. -1.
        -13    1    4    4    0    0  0.23344741653E+02 -0.51264146251E+02 -0.62569890445E+01  0.56675740538E+02  0.00000000000E+00 0. -1.
         13    1    4    4    0    0  0.13151619312E+01  0.37865633339E+02  0.11133910102E+02  0.39490502570E+02  0.00000000000E+00 0.  1.
         -1    1    1    2    0  502 -0.30925748562E+02  0.84118878785E+01 -0.14555881013E+03  0.14904539238E+03  0.00000000000E+00 0.  1.
<scales pt_clust_5="13000.00000" pt_clust_6="13000.00000" pt_clust_7="13000.00000" pt_clust_8="13000.00000" pt_clust_9="32.04936"></scales>
<clustering>
<clus scale="   32.049">  2  9  1 -1</clus>
<clus scale="   91.851">  7  8 -1 -1</clus>
<clus scale="   92.650">  2  7  1 -1</clus>
<clus scale="   92.898">  5  6 -1 -1</clus>
<clus scale="   32.049">  2  5  1 -1</clus>
</clustering>
</event>
<event>
 9    1  0.1445593E-005  0.1014025E+03  0.7546771E-02  0.1282619E+00
          2   -1    0    0  502    0 -0.00000000000E+00  0.00000000000E+00  0.58837151657E+02  0.58837151657E+02  0.00000000000E+00 0. -1.
         21   -1    0    0  501  502  0.00000000000E+00 -0.00000000000E+00 -0.66368907020E+03  0.66368907020E+03  0.00000000000E+00 0. -1.
         23    2    1    2    0    0  0.73012315074E+01 -0.27721467124E+02 -0.29420213754E+02  0.10010986618E+03  0.91294296692E+02 0.  0.
         23    2    1    2    0    0  0.22479616571E+02 -0.30535646904E+02 -0.11618090012E+03  0.15852833919E+03  0.10097263927E+03 0.  0.
        -11    1    3    3    0    0 -0.12023743136E+02 -0.50613671156E+02  0.75042374866E+01  0.52560704782E+02  0.00000000000E+00 0. -1.
         11    1    3    3    0    0  0.19324974644E+02  0.22892204032E+02 -0.36924451241E+02  0.47549161400E+02  0.00000000000E+00 0.  1.
        -13    1    4    4    0    0 -0.67012913707E+01  0.23973671909E+02 -0.86374766640E+02  0.89890180571E+02  0.00000000000E+00 0.  1.
         13    1    4    4    0    0  0.29180907942E+02 -0.54509318812E+02 -0.29806133475E+02  0.68638158618E+02  0.00000000000E+00 0. -1.
          2    1    1    2  501    0 -0.29780848078E+02  0.58257114027E+02 -0.45925080467E+03  0.46388801648E+03  0.00000000000E+00 0. -1.
<scales pt_clust_5="13000.00000" pt_clust_6="13000.00000" pt_clust_7="13000.00000" pt_clust_8="13000.00000" pt_clust_9="65.42775"></scales>
<clustering>
<clus scale="   65.428">  2  9  1 -1</clus>
<clus scale="   91.294">  5  6 -1 -1</clus>
<clus scale="   91.770">  1  5  2 -1</clus>
<clus scale="  100.973">  7  8 -1 -1</clus>
<clus scale="   65.428">  2  5  1 -1</clus>
</clustering>
</event>
<event>
 9    1  0.2083747E-005  0.1205244E+03  0.7546771E-02  0.1245748E+00
          1   -1    0    0  502    0 -0.00000000000E+00  0.00000000000E+00  0.64179205645E+03  0.64179205645E+03  0.00000000000E+00 0. -1.
         21   -1    0    0  501  502  0.00000000000E+00 -0.00000000000E+00 -0.22372573928E+03  0.22372573928E+03  0.00000000000E+00 0. -1.
         23    2    1    2    0    0 -0.36509919340E+02  0.48246169418E+02  0.31026833166E+03  0.32779036491E+03  0.86714581391E+02 0.  0.
         23    2    1    2    0    0  0.41859825471E+01 -0.99241400279E+02  0.30303349523E+03  0.33336927778E+03  0.97156565166E+02 0.  0.
        -11    1    3    3    0    0 -0.28498110188E+02 -0.21150553978E+02  0.91612075557E+02  0.98245919028E+02  0.00000000000E+00 0. -1.
         11    1    3    3    0    0 -0.80118091519E+01  0.69396723397E+02  0.21865625610E+03  0.22954444588E+03  0.00000000000E+00 0.  1.
        -13    1    4    4    0    0  0.34896537113E+02 -0.47220333130E+02  0.64142392707E+02  0.86958465404E+02  0.00000000000E+00 0.  1.
         13    1    4    4    0    0 -0.30710554566E+02 -0.52021067149E+02  0.23889110253E+03  0.24641081238E+03  0.00000000000E+00 0. -1.
          1    1    1    2  501    0  0.32323936793E+02  0.50995230860E+02 -0.19523550971E+03  0.20435815304E+03  0.00000000000E+00 0. -1.
<scales pt_clust_5="13000.00000" pt_clust_6="13000.00000" pt_clust_7="13000.00000" pt_clust_8="13000.00000" pt_clust_9="60.37674"></scales>
<clustering>
<clus scale="   60.377">  2  9  1 -1</clus>
<clus scale="   86.715">  5  6 -1 -1</clus>
<clus scale="   97.157">  7  8 -1 -1</clus>
<clus scale="  112.277">  1  5  2 -1</clus>
<clus scale="   60.377">  2  5  1 -1</clus>
</clustering>
</event>
<event>
 9    1  0.1445593E-005  0.1678314E+03  0.7546771E-02  0.1180129E+00
          2   -1    0    0  502    0 -0.00000000000E+00  0.00000000000E+00  0.51828366291E+03  0.51828366291E+03  0.00000000000E+00 0. -1.
         21   -1    0    0  501  502  0.00000000000E+00 -0.00000000000E+00 -0.96592429114E+02  0.96592429114E+02  0.00000000000E+00 0.  1.
         23    2    1    2    0    0  0.72446458519E+02  0.12951723076E+03  0.27042882567E+03  0.32170862565E+03  0.91331745023E+02 0.  0.
         23    2    1    2    0    0 -0.33563099759E+02 -0.12989967293E+03  0.18181447874E+03  0.24371556177E+03  0.91325591564E+02 0.  0.
        -11    1    4    4    0    0 -0.53685707875E+02 -0.42243835044E+02  0.52288757203E+02  0.86027966145E+02  0.00000000000E+00 0. -1.
         11    1    4    4    0    0  0.20122608116E+02 -0.87655837886E+02  0.12952572154E+03  0.15768759562E+03  0.00000000000E+00 0.  1.
        -11    1    3    3    0    0  0.61697639410E+02  0.38522427818E+02  0.68280523772E+02  0.99763751335E+02  0.00000000000E+00 0.  1.
         11    1    3    3    0    0  0.10748819109E+02  0.90994802943E+02  0.20214830190E+03  0.22194487432E+03  0.00000000000E+00 0. -1.
          2    1    1    2  501    0 -0.38883358760E+02  0.38244216938E+00 -0.30552070616E+02  0.49451904608E+02  0.00000000000E+00 0. -1.
<scales pt_clust_5="13000.00000" pt_clust_6="13000.00000" pt_clust_7="13000.00000" pt_clust_8="13000.00000" pt_clust_9="38.88524"></scales>
<clustering>
<clus scale="   38.885">  2  9  1 -1</clus>
<clus scale="   91.326">  5  6 -1 -1</clus>
<clus scale="   91.332">  7  8 -1 -1</clus>
<clus scale="  167.828">  2  5  1 -1</clus>
<clus scale="   38.885">  2  5  1 -1</clus>
</clustering>
</event>
<event>
 9    1  0.1445593E-005  0.1006114E+03  0.7546771E-02  0.1279774E+00
          3   -1    0    0  502    0 -0.00000000000E+00  0.00000000000E+00  0.35894710905E+03  0.35894710905E+03  0.00000000000E+00 0. -1.
         21   -1    0    0  501  502  0.00000000000E+00 -0.00000000000E+00 -0.57261860997E+02  0.57261860997E+02  0.00000000000E+00 0.  1.
         23    2    1    2    0    0 -0.31700892059E+01 -0.34333323879E+02  0.18381387230E+03  0.20691225612E+03  0.88522965889E+02 0.  0.
         23    2    1    2    0    0  0.42006913167E+02  0.67922803084E+02  0.71157356294E+02  0.13987948535E+03  0.90137745339E+02 0.  0.
        -11    1    3    3    0    0 -0.41879981545E+02 -0.10773069818E+01  0.10465466953E+03  0.11272840503E+03  0.00000000000E+00 0.  1.
         11    1    3    3    0    0  0.38709892339E+02 -0.33256016897E+02  0.79159202766E+02  0.94183851096E+02  0.00000000000E+00 0. -1.
        -13    1    4    4    0    0  0.70346448437E+01  0.82100788559E+02  0.44241824443E+02  0.93527347552E+02  0.00000000000E+00 0.  1.
         13    1    4    4    0    0  0.34972268323E+02 -0.14177985474E+02  0.26915531851E+02  0.46352137800E+02  0.00000000000E+00 0. -1.
          3    1    1    2  501    0 -0.38836823961E+02 -0.33589479206E+02  0.46714019458E+02  0.69417228572E+02  0.00000000000E+00 0. -1.
<scales pt_clust_5="13000.00000" pt_clust_6="13000.00000" pt_clust_7="13000.00000" pt_clust_8="13000.00000" pt_clust_9="51.34737"></scales>
<clustering>
<clus scale="   51.347">  2  9  1 -1</clus>
<clus scale="   88.523">  5  6 -1 -1</clus>
<clus scale="   90.138">  7  8 -1 -1</clus>
<clus scale="   99.167">  1  5  2 -1</clus>
<clus scale="   51.347">  2  5  1 -1</clus>
</clustering>
</event>
<event>
 9    1  0.1445593E-005  0.9655117E+02  0.7546771E-02  0.1288132E+00
          2   -1    0    0  502    0 -0.00000000000E+00  0.00000000000E+00  0.32516254145E+03  0.32516254145E+03  0.00000000000E+00 0. -1.
         21   -1    0    0  501  502  0.00000000000E+00 -0.00000000000E+00 -0.41416101665E+02  0.41416101665E+02  0.00000000000E+00 0. -1.
         23    2    1    2    0    0  0.35522972259E+02  0.76185078617E+01  0.17216865757E+03  0.19842140301E+03  0.91701053987E+02 0.  0.
         23    2    1    2    0    0 -0.12892422814E+02 -0.13548395519E+02  0.10969239409E+03  0.14468683269E+03  0.92477481829E+02 0.  0.
        -11    1    3    3    0    0 -0.20761083484E+02 -0.25330630265E+02  0.68799372414E+02  0.76197224763E+02  0.00000000000E+00 0.  1.
         11    1    3    3    0    0  0.56284055743E+02  0.32949138126E+02  0.10336928516E+03  0.12222417825E+03  0.00000000000E+00 0. -1.
        -13    1    4    4    0    0 -0.31798915984E+02 -0.31311437886E+02  0.15903227080E+02  0.47376047026E+02  0.00000000000E+00 0.  1.
         13    1    4    4    0    0  0.18906493170E+02  0.17763042367E+02  0.93789167009E+02  0.97310785663E+02  0.00000000000E+00 0. -1.
          2    1    1    2  501    0 -0.22630549445E+02  0.59298876570E+01  0.18853881224E+01  0.23470407414E+02  0.00000000000E+00 0. -1.
<scales pt_clust_5="13000.00000" pt_clust_6="13000.00000" pt_clust_7="13000.00000" pt_clust_8="13000.00000" pt_clust_9="23.39456"></scales>
<clustering>
<clus scale="   23.395">  2  9  1 -1</clus>
<clus scale="   91.701">  5  6 -1 -1</clus>
<clus scale="   92.477">  7  8 -1 -1</clus>
<clus scale="   95.808">  1  5  2 -1</clus>
<clus scale="   23.395">  2  5  1 -1</clus>
</clustering>
</event>
<event>
 9    1  0.1445593E-005  0.1458574E+03  0.7546771E-02  0.1205989E+00
         21   -1    0    0  501  502  0.00000000000E+00  0.00000000000E+00  0.66475189342E+02  0.66475189342E+02  0.00000000000E+00 0.  1.
          1   -1    0    0  502    0 -0.00000000000E+00 -0.00000000000E+00 -0.56440404507E+03  0.56440404507E+03  0.00000000000E+00 0. -1.
         23    2    1    2    0    0 -0.11482316885E+03  0.28953164032E+02 -0.42494162449E+03  0.45084943652E+03  0.93097714093E+02 0.  0.
         23    2    1    2    0    0  0.92751252409E+02 -0.20076245231E+02 -0.81262947739E+02  0.15484137463E+03  0.91467667374E+02 0.  0.
        -11    1    3    3    0    0 -0.11629930025E+03 -0.61771424599E+00 -0.37672037675E+03  0.39426406261E+03  0.00000000000E+00 0. -1.
         11    1    3    3    0    0  0.14761314005E+01  0.29570878278E+02 -0.48221247749E+02  0.56585373910E+02  0.00000000000E+00 0.  1.
        -13    1    4    4    0    0  0.36856650664E+02 -0.12150838939E+02 -0.89724047304E+02  0.97757149353E+02  0.00000000000E+00 0. -1.
         13    1    4    4    0    0  0.55894601746E+02 -0.79254062925E+01  0.84610995645E+01  0.57084225273E+02  0.00000000000E+00 0.  1.
          1    1    1    2  501    0  0.22071916445E+02 -0.88769188014E+01  0.82757165058E+01  0.25188423266E+02  0.00000000000E+00 0. -1.
<scales pt_clust_5="13000.00000" pt_clust_6="13000.00000" pt_clust_7="13000.00000" pt_clust_8="13000.00000" pt_clust_9="23.79011"></scales>
<clustering>
<clus scale="   23.790">  1  9  2 -1</clus>
<clus scale="   91.468">  7  8 -1 -1</clus>
<clus scale="   93.098">  5  6 -1 -1</clus>
<clus scale="  144.822">  1  7  2 -1</clus>
<clus scale="   23.790">  1  5  2 -1</clus>
</clustering>
</event>
<event>
 9    1  0.1445593E-005  0.2231914E+03  0.7546771E-02  0.1131908E+00
         21   -1    0    0  501  502  0.00000000000E+00  0.00000000000E+00  0.15553094886E+03  0.15553094886E+03  0.00000000000E+00 0. -1.
          2   -1    0    0  502    0 -0.00000000000E+00 -0.00000000000E+00 -0.40605772820E+03  0.40605772820E+03  0.00000000000E+00 0. -1.
         23    2    1    2    0    0 -0.17586667129E+03  0.77860171374E+02 -0.14393158740E+03  0.25710508047E+03  0.91626569264E+02 0.  0.
         23    2    1    2    0    0  0.20769475501E+03 -0.66481420675E+02 -0.12519807759E+03  0.26590160293E+03  0.86441964680E+02 0.  0.
        -13    1    4    4    0    0  0.11879772936E+03 -0.47651177094E+02 -0.11908322947E+03  0.17482663046E+03  0.00000000000E+00 0. -1.
         13    1    4    4    0    0  0.88897025650E+02 -0.18830243581E+02 -0.61148481230E+01  0.91074972469E+02  0.00000000000E+00 0.  1.
        -13    1    3    3    0    0 -0.52523212637E+02  0.59724530534E+02 -0.21541134484E+02  0.82399805146E+02  0.00000000000E+00 0.  1.
         13    1    3    3    0    0 -0.12334345866E+03  0.18135640839E+02 -0.12239045291E+03  0.17470527532E+03  0.00000000000E+00 0. -1.
          2    1    1    2  501    0 -0.31828083713E+02 -0.11378750699E+02  0.18602885651E+02  0.38581993661E+02  0.00000000000E+00 0. -1.
<scales pt_clust_5="13000.00000" pt_clust_6="13000.00000" pt_clust_7="13000.00000" pt_clust_8="13000.00000" pt_clust_9="33.80093"></scales>
<clustering>
<clus scale="   33.801">  1  9  2 -1</clus>
<clus scale="   86.442">  5  6 -1 -1</clus>
<clus scale="   91.627">  7  8 -1 -1</clus>
<clus scale="  221.113">  1  5  2 -1</clus>
<clus scale="   33.801">  1  5  2 -1</clus>
</clustering>
</event>
<event>
 9    1  0.1445593E-005  0.1835985E+03  0.7546771E-02  0.1164772E+00
         21   -1    0    0  501  502  0.00000000000E+00  0.00000000000E+00  0.14990016384E+03  0.14990016384E+03  0.00000000000E+00 0.  1.
          2   -1    0    0  502    0 -0.00000000000E+00 -0.00000000000E+00 -0.37983052229E+03  0.37983052229E+03  0.00000000000E+00 0. -1.
         23    2    1    2    0    0 -0.16998295887E+03 -0.32163736742E+02 -0.23183779906E+03  0.30416210552E+03  0.94005899249E+02 0.  0.
         23    2    1    2    0    0  0.12557642090E+03 -0.18988065004E+02  0.14451873353E+02  0.15667873935E+03  0.90605665501E+02 0.  0.
        -11    1    4    4    0    0  0.12483630717E+03  0.11601487347E+02  0.10240034814E+02  0.12579171836E+03  0.00000000000E+00 0.  1.
         11    1    4    4    0    0  0.74011373464E+00 -0.30589552351E+02  0.42118385387E+01  0.30887020984E+02  0.00000000000E+00 0. -1.
        -13    1    3    3    0    0 -0.71096260523E+01 -0.31207516802E+02 -0.23472757060E+02  0.39691639064E+02  0.00000000000E+00 0.  1.
         13    1    3    3    0    0 -0.16287333281E+03 -0.95621993960E+00 -0.20836504200E+03  0.26447046646E+03  0.00000000000E+00 0. -1.
          2    1    1    2  501    0  0.44406537966E+02  0.51151801746E+02 -0.12544432737E+02  0.68889841259E+02  0.00000000000E+00 0. -1.
<scales pt_clust_5="13000.00000" pt_clust_6="13000.00000" pt_clust_7="13000.00000" pt_clust_8="13000.00000" pt_clust_9="67.73808"></scales>
<clustering>
<clus scale="   67.738">  1  9  2 -1</clus>
<clus scale="   90.606">  5  6 -1 -1</clus>
<clus scale="   94.006">  7  8 -1 -1</clus>
<clus scale="  181.881">  1  5  2 -1</clus>
<clus scale="   67.738">  1  5  2 -1</clus>
</clustering>
</event>
<event>
 9    1  0.1445593E-005  0.2469370E+03  0.7546771E-02  0.1146196E+00
          1   -1    0    0  502    0 -0.00000000000E+00  0.00000000000E+00  0.44839813648E+03  0.44839813648E+03  0.00000000000E+00 0. -1.
         21   -1    0    0  501  502  0.00000000000E+00 -0.00000000000E+00 -0.19946683244E+03  0.19946683244E+03  0.00000000000E+00 0. -1.
         23    2    1    2    0    0  0.57046321677E+02  0.47882050492E+02  0.68776669689E+02  0.13451207077E+03  0.88409803261E+02 0.  0.
         23    2    1    2    0    0 -0.73217488426E+02 -0.24923201986E+03  0.10182733320E+03  0.29669998932E+03  0.10091916342E+03 0.  0.
        -11    1    4    4    0    0 -0.96758932218E+02 -0.16565617719E+03  0.69147115885E+02  0.20392543647E+03  0.00000000000E+00 0.  1.
         11    1    4    4    0    0  0.23541443792E+02 -0.83575842670E+02  0.32680217313E+02  0.92774552856E+02  0.00000000000E+00 0. -1.
        -13    1    3    3    0    0  0.39908219462E+00  0.58012578129E+02  0.32765296815E+02  0.66627195372E+02  0.00000000000E+00 0. -1.
         13    1    3    3    0    0  0.56647239483E+02 -0.10130527638E+02  0.36011372874E+02  0.67884875396E+02  0.00000000000E+00 0.  1.
          1    1    1    2  501    0  0.16171166748E+02  0.20134996937E+03  0.78327301154E+02  0.21665290883E+03  0.00000000000E+00 0. -1.
<scales pt_clust_5="13000.00000" pt_clust_6="13000.00000" pt_clust_7="13000.00000" pt_clust_8="13000.00000" pt_clust_9="225.37344"></scales>
<clustering>
<clus scale="   88.410">  7  8 -1 -1</clus>
<clus scale="  100.919">  5  6 -1 -1</clus>
<clus scale="  115.600">  1  7  2 -1</clus>
<clus scale="  225.373">  2  9  1 -1</clus>
<clus scale="  225.373">  2  5  1 -1</clus>
</clustering>
</event>
<event>
 9    1  0.1445593E-005  0.1030048E+03  0.7546771E-02  0.1276026E+00
          2   -1    0    0  502    0 -0.00000000000E+00  0.00000000000E+00  0.12832134167E+03  0.12832134167E+03  0.00000000000E+00 0. -1.
         21   -1    0    0  501  502  0.00000000000E+00 -0.00000000000E+00 -0.39988885833E+03  0.39988885833E+03  0.00000000000E+00 0. -1.
         23    2    1    2    0    0  0.13861333563E+02 -0.58403085133E+02  0.45180159149E+02  0.12145841177E+03  0.95435014994E+02 0.  0.
         23    2    1    2    0    0  0.25181350310E+02  0.10636000664E+02 -0.12378871895E+02  0.96193590273E+02  0.91393355485E+02 0.  0.
        -11    1    3    3    0    0 -0.29227816444E+02 -0.38559399907E+02  0.54747678640E+02  0.73064361297E+02  0.00000000000E+00 0. -1.
         11    1    3    3    0    0  0.43089150007E+02 -0.19843685226E+02 -0.95675194913E+01  0.48394050470E+02  0.00000000000E+00 0.  1.
        -13    1    4    4    0    0  0.12542358786E+02  0.29674765886E+02 -0.45623866808E+02  0.55851944611E+02  0.00000000000E+00 0.  1.
         13    1    4    4    0    0  0.12638991524E+02 -0.19038765223E+02  0.33244994913E+02  0.40341645662E+02  0.00000000000E+00 0. -1.
          2    1    1    2  501    0 -0.39042683873E+02  0.47767084469E+02 -0.30436880392E+03  0.31055819796E+03  0.00000000000E+00 0. -1.
<scales pt_clust_5="13000.00000" pt_clust_6="13000.00000" pt_clust_7="13000.00000" pt_clust_8="13000.00000" pt_clust_9="61.69299"></scales>
<clustering>
<clus scale="   61.693">  2  9  1 -1</clus>
<clus scale="   91.393">  7  8 -1 -1</clus>
<clus scale="   95.435">  5  6 -1 -1</clus>
<clus scale="   99.272">  2  7  1 -1</clus>
<clus scale="   61.693">  2  5  1 -1</clus>
</clustering>
</event>
<event>
 9    1  0.1445593E-005  0.3068470E+03  0.7546771E-02  0.1081928E+00
          2   -1    0    0  502    0 -0.00000000000E+00  0.00000000000E+00  0.13885424090E+04  0.13885424090E+04  0.00000000000E+00 0. -1.
         21   -1    0    0  501  502  0.00000000000E+00 -0.00000000000E+00 -0.90757750715E+02  0.90757750715E+02  0.00000000000E+00 0.  1.
         23    2    1    2    0    0  0.29578033690E+03 -0.53852548725E+02  0.75285427179E+03  0.81556752995E+03  0.89301381072E+02 0.  0.
         23    2    1    2    0    0 -0.26956626045E+03  0.94209625026E+02  0.53697917397E+03  0.61495668083E+03  0.91014635078E+02 0.  0.
        -11    1    4    4    0    0 -0.15891614286E+03  0.17417531213E+02  0.23408323684E+03  0.28346546989E+03  0.00000000000E+00 0.  1.
         11    1    4    4    0    0 -0.11065011759E+03  0.76792093813E+02  0.30289593713E+03  0.33149121094E+03  0.00000000000E+00 0. -1.
        -13    1    3    3    0    0  0.25248864042E+03 -0.68076697625E+02  0.57005834303E+03  0.62717737903E+03  0.00000000000E+00 0. -1.
         13    1    3    3    0    0  0.43291696475E+02  0.14224148900E+02  0.18279592875E+03  0.18839015092E+03  0.00000000000E+00 0.  1.
          2    1    1    2  501    0 -0.26214076451E+02 -0.40357076301E+02  0.79512125006E+01  0.48775948909E+02  0.00000000000E+00 0. -1.
<scales pt_clust_5="13000.00000" pt_clust_6="13000.00000" pt_clust_7="13000.00000" pt_clust_8="13000.00000" pt_clust_9="48.12350"></scales>
<clustering>
<clus scale="   48.124">  2  9  1 -1</clus>
<clus scale="   89.301">  7  8 -1 -1</clus>
<clus scale="   91.015">  5  6 -1 -1</clus>
<clus scale="  306.343">  1  7  2 -1</clus>
<clus scale="   48.124">  2  5  1 -1</clus>
</clustering>
</event>
<event>
 9    1  0.1445593E-005  0.1220648E+03  0.7546771E-02  0.1242859E+00
         21   -1    0    0  501  502  0.00000000000E+00  0.00000000000E+00  0.31473333200E+03  0.31473333200E+03  0.00000000000E+00 0. -1.
          2   -1    0    0  502    0 -0.00000000000E+00 -0.00000000000E+00 -0.63685838947E+02  0.63685838947E+02  0.00000000000E+00 0.  1.
         23    2    1    2    0    0 -0.87842233032E+01  0.69281498930E+02  0.70034800628E+02  0.14110781221E+03  0.10064518218E+03 0.  0.
         23    2    1    2    0    0  0.28150654929E+02 -0.63809131299E+02  0.95493117303E+02  0.14945577718E+03  0.91400378938E+02 0.  0.
        -11    1    3    3    0    0 -0.47535665478E+01 -0.21436786439E+02 -0.58983708900E+01  0.22735940423E+02  0.00000000000E+00 0.  1.
         11    1    3    3    0    0 -0.40306567554E+01  0.90718285369E+02  0.75933171518E+02  0.11837187179E+03  0.00000000000E+00 0. -1.
        -13    1    4    4    0    0  0.12903568391E+02  0.20720862151E+02  0.41054702048E+02  0.47763424979E+02  0.00000000000E+00 0. -1.
         13    1    4    4    0    0  0.15247086538E+02 -0.84529993450E+02  0.54438415255E+02  0.10169235220E+03  0.00000000000E+00 0.  1.
          2    1    1    2  501    0 -0.19366431626E+02 -0.54723676314E+01  0.85519575119E+02  0.87855581553E+02  0.00000000000E+00 0.  1.
<scales pt_clust_5="13000.00000" pt_clust_6="13000.00000" pt_clust_7="13000.00000" pt_clust_8="13000.00000" pt_clust_9="20.12475"></scales>
<clustering>
<clus scale="   20.125">  1  9  2 -1</clus>
<clus scale="   91.400">  7  8 -1 -1</clus>
<clus scale="  100.645">  5  6 -1 -1</clus>
<clus scale="  114.562">  1  7  2 -1</clus>
<clus scale="   20.125">  1  5  2 -1</clus>
</clustering>
</event>
<event>
 9    1  0.1445593E-005  0.1729184E+03  0.7546771E-02  0.1175050E+00
         21   -1    0    0  501  502  0.00000000000E+00  0.00000000000E+00  0.55846135706E+02  0.55846135706E+02  0.00000000000E+00 0.  1.
          1   -1    0    0  502    0 -0.00000000000E+00 -0.00000000000E+00 -0.77355883592E+03  0.77355883592E+03  0.00000000000E+00 0. -1.
         23    2    1    2    0    0 -0.45593042633E+02 -0.11258806014E+03 -0.22278283853E+03  0.26903278880E+03  0.89396037289E+02 0.  0.
         23    2    1    2    0    0  0.29226749420E+02  0.17431746993E+03 -0.36656555059E+03  0.41699934038E+03  0.90980018679E+02 0.  0.
        -13    1    4    4    0    0  0.54476879827E+02  0.12617309044E+03 -0.30698569828E+03  0.33634446351E+03  0.00000000000E+00 0.  1.
         13    1    4    4    0    0 -0.25250130407E+02  0.48144379496E+02 -0.59579852307E+02  0.80654876874E+02  0.00000000000E+00 0. -1.
        -13    1    3    3    0    0 -0.15785790223E+02 -0.84130200729E+02 -0.20855033388E+03  0.22543363460E+03  0.00000000000E+00 0. -1.
         13    1    3    3    0    0 -0.29807252411E+02 -0.28457859414E+02 -0.14232504657E+02  0.43599154206E+02  0.00000000000E+00 0.  1.
          1    1    1    2  501    0  0.16366293213E+02 -0.61729409790E+02 -0.12836431110E+03  0.14337284244E+03  0.00000000000E+00 0. -1.
<scales pt_clust_5="13000.00000" pt_clust_6="13000.00000" pt_clust_7="13000.00000" pt_clust_8="13000.00000" pt_clust_9="63.86219"></scales>
<clustering>
<clus scale="   63.862">  1  9  2 -1</clus>
<clus scale="   89.396">  7  8 -1 -1</clus>
<clus scale="   90.980">  5  6 -1 -1</clus>
<clus scale="  172.090">  2  7  1 -1</clus>
<clus scale="   63.862">  1  5  2 -1</clus>
</clustering>
</event>
<event>
 9    1  0.1445593E-005  0.1123810E+03  0.7546771E-02  0.1258082E+00
         21   -1    0    0  501  502  0.00000000000E+00  0.00000000000E+00  0.27993783759E+02  0.27993783759E+02  0.00000000000E+00 0. -1.
         -4   -1    0    0    0  501 -0.00000000000E+00 -0.00000000000E+00 -0.57070268972E+03  0.57070268972E+03  0.00000000000E+00 0.  1.
         23    2    1    2    0    0  0.62728171010E+01 -0.48527510532E+02 -0.27243666547E+03  0.29278982263E+03  0.95445670568E+02 0.  0.
         23    2    1    2    0    0 -0.11457812609E+01  0.73571489435E+02 -0.23431385708E+03  0.26178757660E+03  0.90640359477E+02 0.  0.
        -13    1    3    3    0    0 -0.37699279100E+02 -0.45376849579E+02 -0.11434450358E+03  0.12866607798E+03  0.00000000000E+00 0.  1.
         13    1    3    3    0    0  0.43972096200E+02 -0.31506609538E+01 -0.15809216189E+03  0.16412374465E+03  0.00000000000E+00 0. -1.
        -13    1    4    4    0    0  0.20262075236E+02  0.80533226956E+02 -0.21989812919E+03  0.23505603493E+03  0.00000000000E+00 0. -1.
         13    1    4    4    0    0 -0.21407856497E+02 -0.69617375210E+01 -0.14415727898E+02  0.26731541668E+02  0.00000000000E+00 0.  1.
         -4    1    1    2    0  502 -0.51270358401E+01 -0.25043978903E+02 -0.35958383404E+02  0.44119074252E+02  0.00000000000E+00 0.  1.
<scales pt_clust_5="13000.00000" pt_clust_6="13000.00000" pt_clust_7="13000.00000" pt_clust_8="13000.00000" pt_clust_9="25.56340"></scales>
<clustering>
<clus scale="   25.563">  1  9  2 -1</clus>
<clus scale="   90.640">  7  8 -1 -1</clus>
<clus scale="   95.446">  5  6 -1 -1</clus>
<clus scale="  108.330">  1  7  2 -1</clus>
<clus scale="   25.563">  1  5  2 -1</clus>
</clustering>
</event>
<event>
 9    1  0.1445593E-005  0.1125579E+03  0.7546771E-02  0.1255971E+00
          1   -1    0    0  502    0 -0.00000000000E+00  0.00000000000E+00  0.28934175071E+03  0.28934175071E+03  0.00000000000E+00 0. -1.
         21   -1    0    0  501  502  0.00000000000E+00 -0.00000000000E+00 -0.82727595527E+02  0.82727595527E+02  0.00000000000E+00 0. -1.
         23    2    1    2    0    0 -0.39278983059E+02 -0.31161789317E+02  0.94786185617E+02  0.14015701452E+03  0.90253377284E+02 0.  0.
         23    2    1    2    0    0  0.73960070018E+02  0.41872452810E+02  0.13917043173E+03  0.18646889058E+03  0.90436960511E+02 0.  0.
        -11    1    3    3    0    0 -0.25712673649E+02 -0.61042013190E+02  0.80815377803E+02  0.10449112044E+03  0.00000000000E+00 0. -1.
         11    1    3    3    0    0 -0.13566309410E+02  0.29880223873E+02  0.13970807814E+02  0.35665894082E+02  0.00000000000E+00 0.  1.
        -13    1    4    4    0    0  0.23400247993E+02 -0.10096288917E+02  0.10171727275E+03  0.10486138580E+03  0.00000000000E+00 0.  1.
         13    1    4    4    0    0  0.50559822025E+02  0.51968741727E+02  0.37453158982E+02  0.81607504788E+02  0.00000000000E+00 0. -1.
          1    1    1    2  501    0 -0.34681086959E+02 -0.10710663493E+02 -0.27342462163E+02  0.45443441135E+02  0.00000000000E+00 0. -1.
<scales pt_clust_5="13000.00000" pt_clust_6="13000.00000" pt_clust_7="13000.00000" pt_clust_8="13000.00000" pt_clust_9="36.29733"></scales>
<clustering>
<clus scale="   36.297">  2  9  1 -1</clus>
<clus scale="   90.253">  5  6 -1 -1</clus>
<clus scale="   90.437">  7  8 -1 -1</clus>
<clus scale="  112.410">  1  5  2 -1</clus>
<clus scale="   36.297">  2  5  1 -1</clus>
</clustering>
</event>
<event>
 9    1  0.1445593E-005  0.1037195E+03  0.7546771E-02  0.1274822E+00
         21   -1    0    0  501  502  0.00000000000E+00  0.00000000000E+00  0.13272395126E+03  0.13272395126E+03  0.00000000000E+00 0. -1.
          1   -1    0    0  502    0 -0.00000000000E+00 -0.00000000000E+00 -0.12889308416E+03  0.12889308416E+03  0.00000000000E+00 0. -1.
         23    2    1    2    0    0 -0.53019861624E+02 -0.25738548163E+01 -0.49916266499E+02  0.12025705841E+03  0.95668155521E+02 0.  0.
         23    2    1    2    0    0  0.14567357734E+02  0.56750177684E+00  0.37994553032E+02  0.99757521523E+02  0.91079344918E+02 0.  0.
        -11    1    3    3    0    0 -0.68210361043E+02 -0.32178421896E+02 -0.40839399959E+02  0.85766897917E+02  0.00000000000E+00 0. -1.
         11    1    3    3    0    0  0.15190499419E+02  0.29604567080E+02 -0.90768665402E+01  0.34490160492E+02  0.00000000000E+00 0.  1.
        -13    1    4    4    0    0 -0.28903774813E+02  0.26523940481E+02  0.27877325786E+02  0.48125802955E+02  0.00000000000E+00 0.  1.
         13    1    4    4    0    0  0.43471132547E+02 -0.25956438705E+02  0.10117227246E+02  0.51631718568E+02  0.00000000000E+00 0. -1.
          1    1    1    2  501    0  0.38452503890E+02  0.20063530394E+01  0.15752580571E+02  0.41602455487E+02  0.00000000000E+00 0. -1.
<scales pt_clust_5="13000.00000" pt_clust_6="13000.00000" pt_clust_7="13000.00000" pt_clust_8="13000.00000" pt_clust_9="38.50481"></scales>
<clustering>
<clus scale="   38.505">  1  9  2 -1</clus>
<clus scale="   91.079">  7  8 -1 -1</clus>
<clus scale="   95.668">  5  6 -1 -1</clus>
<clus scale="   99.503">  1  7  2 -1</clus>
<clus scale="   38.505">  1  5  2 -1</clus>
</clustering>
</event>
<event>
 9    1  0.1445593E-005  0.9934903E+02  0.7546771E-02  0.1282813E+00
         -2   -1    0    0    0  501 -0.00000000000E+00  0.00000000000E+00  0.12062470146E+03  0.12062470146E+03  0.00000000000E+00 0.  1.
         21   -1    0    0  501  502  0.00000000000E+00 -0.00000000000E+00 -0.26047612349E+03  0.26047612349E+03  0.00000000000E+00 0. -1.
         23    2    1    2    0    0 -0.42843525898E+02  0.19007721114E+02  0.51571751398E+02  0.11442236070E+03  0.90752244664E+02 0.  0.
         23    2    1    2    0    0 -0.30792326472E+02 -0.37393896123E+02 -0.80229765274E+02  0.13205207678E+03  0.93029376590E+02 0.  0.
        -13    1    4    4    0    0 -0.38297813431E+02  0.22569568172E+02 -0.33792728760E+02  0.55839559795E+02  0.00000000000E+00 0.  1.
         13    1    4    4    0    0  0.75054869588E+01 -0.59963464295E+02 -0.46437036515E+02  0.76212516984E+02  0.00000000000E+00 0. -1.
        -13    1    3    3    0    0  0.23897774284E+02  0.78588560302E+01  0.37741572090E+02  0.45357375339E+02  0.00000000000E+00 0. -1.
         13    1    3    3    0    0 -0.66741300182E+02  0.11148865084E+02  0.13830179308E+02  0.69064985357E+02  0.00000000000E+00 0.  1.
         -2    1    1    2    0  502  0.73635852370E+02  0.18386175009E+02 -0.11119340816E+03  0.13462638747E+03  0.00000000000E+00 0.  1.
<scales pt_clust_5="13000.00000" pt_clust_6="13000.00000" pt_clust_7="13000.00000" pt_clust_8="13000.00000" pt_clust_9="75.89658"></scales>
<clustering>
<clus scale="   75.897">  2  9  1 -1</clus>
<clus scale="   90.752">  7  8 -1 -1</clus>
<clus scale="   93.029">  5  6 -1 -1</clus>
<clus scale="   97.220">  1  7  2 -1</clus>
<clus scale="   75.897">  2  5  1 -1</clus>
</clustering>
</event>
<event>
 9    1  0.1445593E-005  0.9733579E+02  0.7546771E-02  0.1290533E+00
         21   -1    0    0  501  502  0.00000000000E+00  0.00000000000E+00  0.34046367538E+02  0.34046367538E+02  0.00000000000E+00 0. -1.
         -1   -1    0    0    0  501 -0.00000000000E+00 -0.00000000000E+00 -0.42216430739E+03  0.42216430739E+03  0.00000000000E+00 0.  1.
         23    2    1    2    0    0  0.14514382319E+02 -0.22898566082E+02 -0.20542343420E+03  0.22811191582E+03  0.95400457017E+02 0.  0.
         23    2    1    2    0    0  0.27956119225E+02  0.13625413067E+02 -0.11555991338E+03  0.14811883445E+03  0.87280576622E+02 0.  0.
        -13    1    3    3    0    0  0.36878794138E+02 -0.32129005736E+01 -0.19181956813E+03  0.19535893863E+03  0.00000000000E+00 0.  1.
         13    1    3    3    0    0 -0.22364411820E+02 -0.19685665508E+02 -0.13603866068E+02  0.32752977186E+02  0.00000000000E+00 0. -1.
        -13    1    4    4    0    0  0.38768012791E+02  0.36559372350E+02 -0.10990378763E+03  0.12214085744E+03  0.00000000000E+00 0.  1.
         13    1    4    4    0    0 -0.10811893566E+02 -0.22933959283E+02 -0.56561257523E+01  0.25977977007E+02  0.00000000000E+00 0. -1.
         -1    1    1    2    0  502 -0.42470501544E+02  0.92731530146E+01 -0.67134592283E+02  0.79979924664E+02  0.00000000000E+00 0.  1.
<scales pt_clust_5="13000.00000" pt_clust_6="13000.00000" pt_clust_7="13000.00000" pt_clust_8="13000.00000" pt_clust_9="43.47108"></scales>
<clustering>
<clus scale="   43.471">  1  9  2 -1</clus>
<clus scale="   87.281">  7  8 -1 -1</clus>
<clus scale="   89.392">  1  7  2 -1</clus>
<clus scale="   95.400">  5  6 -1 -1</clus>
<clus scale="   43.471">  1  5  2 -1</clus>
</clustering>
</event>
<event>
 9    1  0.1445593E-005  0.9606764E+02  0.7546771E-02  0.1289395E+00
          1   -1    0    0  502    0 -0.00000000000E+00  0.00000000000E+00  0.19100090565E+03  0.19100090565E+03  0.00000000000E+00 0. -1.
         21   -1    0    0  501  502  0.00000000000E+00 -0.00000000000E+00 -0.98758752934E+02  0.98758752934E+02  0.00000000000E+00 0. -1.
         23    2    1    2    0    0 -0.28734115631E+02 -0.22274672550E+02  0.83376298209E+02  0.12885319659E+03  0.91267347563E+02 0.  0.
         23    2    1    2    0    0 -0.56760098091E+01  0.32319524583E+02  0.48490605368E+02  0.10747354455E+03  0.90124664846E+02 0.  0.
        -11    1    3    3    0    0  0.31987568321E+02 -0.16141096824E+02  0.20735591560E+02  0.41396911613E+02  0.00000000000E+00 0.  1.
         11    1    3    3    0    0 -0.60721683952E+02 -0.61335757264E+01  0.62640706650E+02  0.87456284982E+02  0.00000000000E+00 0. -1.
        -13    1    4    4    0    0  0.34441778081E+01 -0.21550858687E+02 -0.12851429307E+02  0.25327082465E+02  0.00000000000E+00 0.  1.
         13    1    4    4    0    0 -0.91201876172E+01  0.53870383270E+02  0.61342034675E+02  0.82146462090E+02  0.00000000000E+00 0. -1.
          1    1    1    2  501    0  0.34410125440E+02 -0.10044852033E+02 -0.39624750858E+02  0.53432917436E+02  0.00000000000E+00 0. -1.
<scales pt_clust_5="13000.00000" pt_clust_6="13000.00000" pt_clust_7="13000.00000" pt_clust_8="13000.00000" pt_clust_9="35.84628"></scales>
<clustering>
<clus scale="   35.846">  2  9  1 -1</clus>
<clus scale="   90.125">  7  8 -1 -1</clus>
<clus scale="   91.267">  5  6 -1 -1</clus>
<clus scale="   94.983">  2  7  1 -1</clus>
<clus scale="   35.846">  2  5  1 -1</clus>
</clustering>
</event>
<event>
 9    1  0.1445593E-005  0.1130590E+03  0.7546771E-02  0.1256247E+00
         21   -1    0    0  501  502  0.00000000000E+00  0.00000000000E+00  0.18619676296E+03  0.18619676296E+03  0.00000000000E+00 0. -1.
          3   -1    0    0  502    0 -0.00000000000E+00 -0.00000000000E+00 -0.24560331650E+03  0.24560331650E+03  0.00000000000E+00 0. -1.
         23    2    1    2    0    0  0.67413375118E+02 -0.27769717597E+01 -0.18470174016E+03  0.21760099821E+03  0.93183619186E+02 0.  0.
         23    2    1    2    0    0 -0.47125280488E+02  0.31671244326E+02  0.26855077732E+02  0.10961925142E+03  0.89840554894E+02 0.  0.
        -11    1    3    3    0    0 -0.64284910000E+01  0.32513004018E+02 -0.50051433963E+02  0.60029717379E+02  0.00000000000E+00 0.  1.
         11    1    3    3    0    0  0.73841866118E+02 -0.35289975778E+02 -0.13465030620E+03  0.15757128083E+03  0.00000000000E+00 0. -1.
        -13    1    4    4    0    0 -0.60784906918E+01 -0.26298169289E+02 -0.10981674994E+02  0.29139988722E+02  0.00000000000E+00 0.  1.
         13    1    4    4    0    0 -0.41046789796E+02  0.57969413615E+02  0.37836752726E+02  0.80479262697E+02  0.00000000000E+00 0. -1.
          3    1    1    2  501    0 -0.20288094630E+02 -0.28894272566E+02  0.98440108886E+02  0.10457982983E+03  0.00000000000E+00 0. -1.
<scales pt_clust_5="13000.00000" pt_clust_6="13000.00000" pt_clust_7="13000.00000" pt_clust_8="13000.00000" pt_clust_9="35.30561"></scales>
<clustering>
<clus scale="   35.306">  1  9  2 -1</clus>
<clus scale="   89.841">  7  8 -1 -1</clus>
<clus scale="   93.184">  5  6 -1 -1</clus>
<clus scale="  110.320">  1  7  2 -1</clus>
<clus scale="   35.306">  1  5  2 -1</clus>
</clustering>
</event>
<event>
 9    1  0.1445593E-005  0.1078680E+03  0.7546771E-02  0.1264727E+00
         21   -1    0    0  501  502  0.00000000000E+00  0.00000000000E+00  0.79151693712E+02  0.79151693712E+02  0.00000000000E+00 0.  1.
         -1   -1    0    0    0  501 -0.00000000000E+00 -0.00000000000E+00 -0.25564541821E+03  0.25564541821E+03  0.00000000000E+00 0.  1.
         23    2    1    2    0    0  0.47043693597E+02  0.17833441960E+01 -0.70629496679E+02  0.12488557651E+03  0.91605632989E+02 0.  0.
         23    2    1    2    0    0 -0.49540083505E+02 -0.58975228156E+02 -0.91506644636E+02  0.15089218478E+03  0.91992869326E+02 0.  0.
        -11    1    4    4    0    0 -0.41946257734E+01 -0.54300799013E+02 -0.90103993639E+02  0.10528485802E+03  0.00000000000E+00 0. -1.
         11    1    4    4    0    0 -0.45345457732E+02 -0.46744291427E+01 -0.14026509972E+01  0.45607326763E+02  0.00000000000E+00 0.  1.
        -13    1    3    3    0    0 -0.77619410565E+01  0.35753848258E+02 -0.37505908370E+02  0.52395405876E+02  0.00000000000E+00 0. -1.
         13    1    3    3    0    0  0.54805634653E+02 -0.33970504062E+02 -0.33123588309E+02  0.72490170633E+02  0.00000000000E+00 0.  1.
         -1    1    1    2    0  502  0.24963899084E+01  0.57191883960E+02 -0.14357583179E+02  0.59019350625E+02  0.00000000000E+00 0.  1.
<scales pt_clust_5="13000.00000" pt_clust_6="13000.00000" pt_clust_7="13000.00000" pt_clust_8="13000.00000" pt_clust_9="57.24634"></scales>
<clustering>
<clus scale="   57.246">  1  9  2 -1</clus>
<clus scale="   91.606">  7  8 -1 -1</clus>
<clus scale="   91.993">  5  6 -1 -1</clus>
<clus scale="  107.538">  2  7  1 -1</clus>
<clus scale="   57.246">  1  5  2 -1</clus>
</clustering>
</event>
<event>
 9    1  0.1445593E-005  0.1309696E+03  0.7546771E-02  0.1227888E+00
          2   -1    0    0  502    0 -0.00000000000E+00  0.00000000000E+00  0.60872258204E+03  0.60872258204E+03  0.00000000000E+00 0. -1.
         21   -1    0    0  501  502  0.00000000000E+00 -0.00000000000E+00 -0.37773870369E+02  0.37773870369E+02  0.00000000000E+00 0. -1.
         23    2    1    2    0    0  0.62401579754E+02 -0.35579991726E+02  0.21010443489E+03  0.23966480115E+03  0.90196731550E+02 0.  0.
         23    2    1    2    0    0 -0.77775537196E+02  0.72969055545E+02  0.30990906110E+03  0.34180322012E+03  0.97016997871E+02 0.  0.
        -11    1    3    3    0    0  0.69980949167E+01  0.24126447802E+02  0.97532814500E+02  0.10071598046E+03  0.00000000000E+00 0.  1.
         11    1    3    3    0    0  0.55403484838E+02 -0.59706439528E+02  0.11257162039E+03  0.13894882069E+03  0.00000000000E+00 0. -1.
        -13    1    4    4    0    0 -0.67120571544E+02  0.34548028741E+01  0.10051320595E+03  0.12091323897E+03  0.00000000000E+00 0.  1.
         13    1    4    4    0    0 -0.10654965653E+02  0.69514252671E+02  0.20939585515E+03  0.22088998115E+03  0.00000000000E+00 0. -1.
          2    1    1    2  501    0  0.15373957442E+02 -0.37389063819E+02  0.50935215677E+02  0.65028431142E+02  0.00000000000E+00 0. -1.
<scales pt_clust_5="13000.00000" pt_clust_6="13000.00000" pt_clust_7="13000.00000" pt_clust_8="13000.00000" pt_clust_9="40.42648"></scales>
<clustering>
<clus scale="   40.426">  2  9  1 -1</clus>
<clus scale="   90.197">  5  6 -1 -1</clus>
<clus scale="   97.017">  7  8 -1 -1</clus>
<clus scale="  126.001">  1  5  2 -1</clus>
<clus scale="   40.426">  2  5  1 -1</clus>
</clustering>
</event>
<event>
 9    1  0.1445593E-005  0.1064031E+03  0.7546771E-02  0.1269621E+00
         -1   -1    0    0    0  501 -0.00000000000E+00  0.00000000000E+00  0.25034143755E+03  0.25034143755E+03  0.00000000000E+00 0.  1.
         21   -1    0    0  501  502  0.00000000000E+00 -0.00000000000E+00 -0.10254075595E+03  0.10254075595E+03  0.00000000000E+00 0. -1.
         23    2    1    2    0    0 -0.25189856401E+02  0.66143906369E+02  0.16171250023E+03  0.19617504582E+03  0.85581368637E+02 0.  0.
         23    2    1    2    0    0 -0.85332331985E+01 -0.11905632041E+02 -0.11327010407E+02  0.92787523084E+02  0.90921191876E+02 0.  0.
        -11    1    4    4    0    0  0.31107019915E+02  0.23248471658E+02 -0.83435927566E+01  0.39720947402E+02  0.00000000000E+00 0.  1.
         11    1    4    4    0    0 -0.39640253113E+02 -0.35154103699E+02 -0.29834176503E+01  0.53066575682E+02  0.00000000000E+00 0. -1.
        -13    1    3    3    0    0  0.56362917160E+00  0.76411163531E+02  0.83464467052E+02  0.11316050923E+03  0.00000000000E+00 0.  1.
         13    1    3    3    0    0 -0.25753485572E+02 -0.10267257162E+02  0.78248033179E+02  0.83014536589E+02  0.00000000000E+00 0. -1.
         -1    1    1    2    0  502  0.33723089599E+02 -0.54238274329E+02 -0.25848082273E+01  0.63919624591E+02  0.00000000000E+00 0.  1.
<scales pt_clust_5="13000.00000" pt_clust_6="13000.00000" pt_clust_7="13000.00000" pt_clust_8="13000.00000" pt_clust_9="63.86734"></scales>
<clustering>
<clus scale="   63.867">  2  9  1 -1</clus>
<clus scale="   85.581">  7  8 -1 -1</clus>
<clus scale="   90.921">  5  6 -1 -1</clus>
<clus scale="  101.878">  1  7  2 -1</clus>
<clus scale="   63.867">  2  5  1 -1</clus>
</clustering>
</event>
<event>
 9    1  0.1445593E-005  0.9439044E+02  0.7546771E-02  0.1293206E+00
         21   -1    0    0  501  502  0.00000000000E+00  0.00000000000E+00  0.41225036769E+02  0.41225036769E+02  0.00000000000E+00 0. -1.
          2   -1    0    0  502    0 -0.00000000000E+00 -0.00000000000E+00 -0.67207637039E+03  0.67207637039E+03  0.00000000000E+00 0. -1.
         23    2    1    2    0    0 -0.49857049738E+01 -0.30173048813E+02 -0.41178635126E+03  0.42289632976E+03  0.91312849631E+02 0.  0.
         23    2    1    2    0    0 -0.45278878280E+02 -0.10477877047E+02 -0.57942894550E+02  0.11679818444E+03  0.90135864862E+02 0.  0.
        -11    1    3    3    0    0 -0.88823494777E+01 -0.62167883277E+02 -0.23796363828E+03  0.24611061535E+03  0.00000000000E+00 0.  1.
         11    1    3    3    0    0  0.38966445039E+01  0.31994834465E+02 -0.17382271298E+03  0.17678571441E+03  0.00000000000E+00 0. -1.
        -11    1    4    4    0    0  0.90371607789E+01 -0.38075175032E+02 -0.32119171637E+02  0.50626380626E+02  0.00000000000E+00 0.  1.
         11    1    4    4    0    0 -0.54316039059E+02  0.27597297985E+02 -0.25823722913E+02  0.66171803816E+02  0.00000000000E+00 0. -1.
          2    1    1    2  501    0  0.50264583254E+02  0.40650925860E+02 -0.16112208781E+03  0.17360689296E+03  0.00000000000E+00 0. -1.
<scales pt_clust_5="13000.00000" pt_clust_6="13000.00000" pt_clust_7="13000.00000" pt_clust_8="13000.00000" pt_clust_9="64.64542"></scales>
<clustering>
<clus scale="   64.645">  1  9  2 -1</clus>
<clus scale="   90.136">  7  8 -1 -1</clus>
<clus scale="   91.313">  5  6 -1 -1</clus>
<clus scale="   93.252">  1  7  2 -1</clus>
<clus scale="   64.645">  1  5  2 -1</clus>
</clustering>
</event>
<event>
 9    1  0.1445593E-005  0.9183963E+02  0.7546771E-02  0.1301394E+00
         21   -1    0    0  501  502  0.00000000000E+00  0.00000000000E+00  0.10270890801E+03  0.10270890801E+03  0.00000000000E+00 0. -1.
          1   -1    0    0  502    0 -0.00000000000E+00 -0.00000000000E+00 -0.49900712993E+03  0.49900712993E+03  0.00000000000E+00 0. -1.
         23    2    1    2    0    0 -0.14300043292E+02 -0.55153135758E+01 -0.35926858977E+03  0.37097557310E+03  0.91181392377E+02 0.  0.
         23    2    1    2    0    0  0.22221242060E+01 -0.18993391175E+02 -0.11676601966E+03  0.14645259957E+03  0.86303961849E+02 0.  0.
        -11    1    4    4    0    0  0.30935238369E+02 -0.10582677140E+02 -0.80183963089E+01  0.33664175436E+02  0.00000000000E+00 0.  1.
         11    1    4    4    0    0 -0.28713114163E+02 -0.84107140349E+01 -0.10874762335E+03  0.11278842414E+03  0.00000000000E+00 0. -1.
        -11    1    3    3    0    0 -0.16174728630E+02 -0.46207402478E+02 -0.15025462533E+03  0.15802910594E+03  0.00000000000E+00 0. -1.
         11    1    3    3    0    0  0.18746853381E+01  0.40692088902E+02 -0.20901396444E+03  0.21294646716E+03  0.00000000000E+00 0.  1.
          1    1    1    2  501    0  0.12077919086E+02  0.24508704751E+02  0.79736387509E+02  0.84287865266E+02  0.00000000000E+00 0. -1.
<scales pt_clust_5="13000.00000" pt_clust_6="13000.00000" pt_clust_7="13000.00000" pt_clust_8="13000.00000" pt_clust_9="27.32312"></scales>
<clustering>
<clus scale="   27.323">  1  9  2 -1</clus>
<clus scale="   86.304">  5  6 -1 -1</clus>
<clus scale="   86.999">  1  5  2 -1</clus>
<clus scale="   91.181">  7  8 -1 -1</clus>
<clus scale="   27.323">  1  5  2 -1</clus>
</clustering>
</event>
<event>
 9    1  0.1445593E-005  0.1351738E+03  0.7546771E-02  0.1220242E+00
         -2   -1    0    0    0  501 -0.00000000000E+00  0.00000000000E+00  0.12410675564E+03  0.12410675564E+03  0.00000000000E+00 0. -1.
         21   -1    0    0  501  502  0.00000000000E+00 -0.00000000000E+00 -0.32912327697E+03  0.32912327697E+03  0.00000000000E+00 0.  1.
         23    2    1    2    0    0  0.69306105741E+02  0.90607057413E+02  0.40269701277E+02  0.15115641873E+03  0.90629128517E+02 0.  0.
         23    2    1    2    0    0 -0.47240024927E+02 -0.26090374117E+02 -0.16928865022E+03  0.19997099219E+03  0.91746515182E+02 0.  0.
        -11    1    4    4    0    0 -0.51096823338E+02  0.22207739626E+02 -0.69781244104E+02  0.89294406786E+02  0.00000000000E+00 0. -1.
         11    1    4    4    0    0  0.38567984113E+01 -0.48298113743E+02 -0.99507406118E+02  0.11067658541E+03  0.00000000000E+00 0.  1.
        -13    1    3    3    0    0  0.59637758215E+02  0.10888710287E+03  0.40138307905E+02  0.13047661529E+03  0.00000000000E+00 0.  1.
         13    1    3    3    0    0  0.96683475266E+01 -0.18280045460E+02  0.13139337120E+00  0.20679803435E+02  0.00000000000E+00 0. -1.
         -2    1    1    2    0  502 -0.22066080814E+02 -0.64516683296E+02 -0.75997572386E+02  0.10210262168E+03  0.00000000000E+00 0. -1.
<scales pt_clust_5="13000.00000" pt_clust_6="13000.00000" pt_clust_7="13000.00000" pt_clust_8="13000.00000" pt_clust_9="68.18588"></scales>
<clustering>
<clus scale="   68.186">  2  9  1 -1</clus>
<clus scale="   90.629">  7  8 -1 -1</clus>
<clus scale="   91.747">  5  6 -1 -1</clus>
<clus scale="  134.418">  1  7  2 -1</clus>
<clus scale="   68.186">  2  5  1 -1</clus>
</clustering>
</event>
<event>
 9    1  0.1445593E-005  0.1252954E+03  0.7546771E-02  0.1235655E+00
         -3   -1    0    0    0  501 -0.00000000000E+00  0.00000000000E+00  0.37104072593E+03  0.37104072593E+03  0.00000000000E+00 0.  1.
         21   -1    0    0  501  502  0.00000000000E+00 -0.00000000000E+00 -0.84024082009E+02  0.84024082009E+02  0.00000000000E+00 0. -1.
         23    2    1    2    0    0  0.33339722621E+02 -0.69779663723E+02  0.26067825498E+03  0.28713408969E+03  0.92261011636E+02 0.  0.
         23    2    1    2    0    0 -0.42242545487E+02  0.88706747067E+02  0.39008072668E+01  0.13725597603E+03  0.95763599739E+02 0.  0.
        -11    1    3    3    0    0 -0.41991851923E+01 -0.60624487916E+02  0.22972122366E+03  0.23762323601E+03  0.00000000000E+00 0.  1.
         11    1    3    3    0    0  0.37538907814E+02 -0.91551758072E+01  0.30957031318E+02  0.49510853678E+02  0.00000000000E+00 0. -1.
        -11    1    4    4    0    0  0.61927076791E+01  0.49096099733E+02  0.41218348016E+02  0.64402863683E+02  0.00000000000E+00 0.  1.
         11    1    4    4    0    0 -0.48435253166E+02  0.39610647334E+02 -0.37317540749E+02  0.72853112350E+02  0.00000000000E+00 0. -1.
         -3    1    1    2    0  502  0.89028228657E+01 -0.18927083343E+02  0.22437581681E+02  0.30674742225E+02  0.00000000000E+00 0.  1.
<scales pt_clust_5="13000.00000" pt_clust_6="13000.00000" pt_clust_7="13000.00000" pt_clust_8="13000.00000" pt_clust_9="20.91639"></scales>
<clustering>
<clus scale="   20.916">  2  9  1 -1</clus>
<clus scale="   92.261">  5  6 -1 -1</clus>
<clus scale="   95.764">  7  8 -1 -1</clus>
<clus scale="  122.639">  1  5  2 -1</clus>
<clus scale="   20.916">  2  5  1 -1</clus>
</clustering>
</event>
<event>
 9    1  0.1445593E-005  0.1204604E+03  0.7546771E-02  0.1242899E+00
         21   -1    0    0  501  502  0.00000000000E+00  0.00000000000E+00  0.45058363107E+02  0.45058363107E+02  0.00000000000E+00 0. -1.
         -2   -1    0    0    0  501 -0.00000000000E+00 -0.00000000000E+00 -0.86398419102E+03  0.86398419102E+03  0.00000000000E+00 0.  1.
         23    2    1    2    0    0  0.51746019842E+02 -0.46849871011E+02 -0.48887013892E+03  0.50196094623E+03  0.89990098516E+02 0.  0.
         23    2    1    2    0    0 -0.87477236954E+02  0.40101883910E+02 -0.34347774783E+03  0.36832071433E+03  0.91775581023E+02 0.  0.
        -11    1    4    4    0    0 -0.28537432248E+02 -0.15085262286E+02 -0.28182718363E+02  0.42851088573E+02  0.00000000000E+00 0.  1.
         11    1    4    4    0    0 -0.58939804706E+02  0.55187146196E+02 -0.31529502947E+03  0.32546962576E+03  0.00000000000E+00 0. -1.
        -11    1    3    3    0    0  0.54350392744E+02 -0.68722317138E+02 -0.43545902632E+03  0.44418609351E+03  0.00000000000E+00 0. -1.
         11    1    3    3    0    0 -0.26043729025E+01  0.21872446127E+02 -0.53411112601E+02  0.57774852723E+02  0.00000000000E+00 0.  1.
         -2    1    1    2    0  502  0.35731217112E+02  0.67479871012E+01  0.13422058840E+02  0.38760893562E+02  0.00000000000E+00 0.  1.
<scales pt_clust_5="13000.00000" pt_clust_6="13000.00000" pt_clust_7="13000.00000" pt_clust_8="13000.00000" pt_clust_9="36.36283"></scales>
<clustering>
<clus scale="   36.363">  1  9  2 -1</clus>
<clus scale="   89.990">  7  8 -1 -1</clus>
<clus scale="   91.776">  5  6 -1 -1</clus>
<clus scale="  119.106">  2  7  1 -1</clus>
<clus scale="   36.363">  1  5  2 -1</clus>
</clustering>
</event>
<event>
 9    1  0.1445593E-005  0.9472448E+02  0.7546771E-02  0.1291923E+00
         21   -1    0    0  501  502  0.00000000000E+00  0.00000000000E+00  0.67385080488E+02  0.67385080488E+02  0.00000000000E+00 0.  1.
         -3   -1    0    0    0  501 -0.00000000000E+00 -0.00000000000E+00 -0.32265818325E+03  0.32265818325E+03  0.00000000000E+00 0.  1.
         23    2    1    2    0    0  0.59677978285E+01  0.37922541156E+02 -0.13421628676E+03  0.16660946893E+03  0.90944872136E+02 0.  0.
         23    2    1    2    0    0  0.57223803254E+02  0.10577884803E+02 -0.76449078117E+02  0.13213582087E+03  0.90713605961E+02 0.  0.
        -11    1    4    4    0    0  0.51325039732E+02 -0.26509096834E+02 -0.74849503308E+02  0.94548612174E+02  0.00000000000E+00 0.  1.
         11    1    4    4    0    0  0.58987635215E+01  0.37086981637E+02 -0.15995748089E+01  0.37587208697E+02  0.00000000000E+00 0. -1.
        -13    1    3    3    0    0  0.35964929037E+02  0.52647900787E+02 -0.73470041238E+02  0.97278592391E+02  0.00000000000E+00 0.  1.
         13    1    3    3    0    0 -0.29997131209E+02 -0.14725359632E+02 -0.60746245525E+02  0.69330876544E+02  0.00000000000E+00 0. -1.
         -3    1    1    2    0  502 -0.63191601082E+02 -0.48500425958E+02 -0.44607737886E+02  0.91297973936E+02  0.00000000000E+00 0.  1.
<scales pt_clust_5="13000.00000" pt_clust_6="13000.00000" pt_clust_7="13000.00000" pt_clust_8="13000.00000" pt_clust_9="79.65846"></scales>
<clustering>
<clus scale="   79.658">  1  9  2 -1</clus>
<clus scale="   90.714">  5  6 -1 -1</clus>
<clus scale="   90.945">  7  8 -1 -1</clus>
<clus scale="   94.502">  1  5  2 -1</clus>
<clus scale="   79.658">  1  5  2 -1</clus>
</clustering>
</event>
<event>
 9    1  0.1445593E-005  0.1018777E+03  0.7546771E-02  0.1276809E+00
          2   -1    0    0  502    0 -0.00000000000E+00  0.00000000000E+00  0.44585903146E+03  0.44585903146E+03  0.00000000000E+00 0. -1.
         21   -1    0    0  501  502  0.00000000000E+00 -0.00000000000E+00 -0.70825918838E+02  0.70825918838E+02  0.00000000000E+00 0. -1.
         23    2    1    2    0    0  0.99646925201E+01  0.26853232218E+02  0.18129316634E+03  0.20485558934E+03  0.90984664337E+02 0.  0.
         23    2    1    2    0    0 -0.27810402762E+02 -0.57693231522E+02  0.23356052407E+03  0.25839479026E+03  0.90085635736E+02 0.  0.
        -11    1    4    4    0    0  0.22516469279E+02 -0.55782791201E+02  0.12513080327E+03  0.13883958048E+03  0.00000000000E+00 0. -1.
         11    1    4    4    0    0 -0.50326872041E+02 -0.19104403212E+01  0.10842972080E+03  0.11955520978E+03  0.00000000000E+00 0.  1.
        -13    1    3    3    0    0  0.30664444654E+02 -0.17561828080E+02  0.12651988422E+03  0.13136212191E+03  0.00000000000E+00 0.  1.
         13    1    3    3    0    0 -0.20699752134E+02  0.44415060298E+02  0.54773282123E+02  0.73493467426E+02  0.00000000000E+00 0. -1.
          2    1    1    2  501    0  0.17845710242E+02  0.30839999304E+02 -0.39820577782E+02  0.53434570701E+02  0.00000000000E+00 0. -1.
<scales pt_clust_5="13000.00000" pt_clust_6="13000.00000" pt_clust_7="13000.00000" pt_clust_8="13000.00000" pt_clust_9="35.63110"></scales>
<clustering>
<clus scale="   35.631">  2  9  1 -1</clus>
<clus scale="   90.086">  5  6 -1 -1</clus>
<clus scale="   90.985">  7  8 -1 -1</clus>
<clus scale="  101.076">  2  5  1 -1</clus>
<clus scale="   35.631">  2  5  1 -1</clus>
</clustering>
</event>
<event>
 9    1  0.1445593E-005  0.1837543E+03  0.7546771E-02  0.1164534E+00
         21   -1    0    0  501  502  0.00000000000E+00  0.00000000000E+00  0.24643170409E+03  0.24643170409E+03  0.00000000000E+00 0. -1.
          3   -1    0    0  502    0 -0.00000000000E+00 -0.00000000000E+00 -0.29676180242E+03  0.29676180242E+03  0.00000000000E+00 0. -1.
         23    2    1    2    0    0 -0.17643826615E+01  0.15328160046E+03 -0.13013168034E+03  0.22092024973E+03  0.91504865597E+02 0.  0.
         23    2    1    2    0    0 -0.67629046253E+02 -0.16244689157E+03 -0.19794694351E+02  0.20054048058E+03  0.94138057908E+02 0.  0.
        -11    1    4    4    0    0 -0.60942388919E+02 -0.43888762801E+02 -0.31039227999E+02  0.81262734031E+02  0.00000000000E+00 0.  1.
         11    1    4    4    0    0 -0.66866573343E+01 -0.11855812877E+03  0.11244533648E+02  0.11927774655E+03  0.00000000000E+00 0. -1.
        -13    1    3    3    0    0 -0.34298454991E+02  0.76857774903E+02 -0.10411911802E+03  0.13388163547E+03  0.00000000000E+00 0. -1.
         13    1    3    3    0    0  0.32534072330E+02  0.76423825553E+02 -0.26012562320E+02  0.87038614264E+02  0.00000000000E+00 0.  1.
          3    1    1    2  501    0  0.69393428915E+02  0.91652911166E+01  0.99596276365E+02  0.12173277621E+03  0.00000000000E+00 0. -1.
<scales pt_clust_5="13000.00000" pt_clust_6="13000.00000" pt_clust_7="13000.00000" pt_clust_8="13000.00000" pt_clust_9="69.99608"></scales>
<clustering>
<clus scale="   69.996">  1  9  2 -1</clus>
<clus scale="   91.505">  7  8 -1 -1</clus>
<clus scale="   94.138">  5  6 -1 -1</clus>
<clus scale="  182.419">  2  7  1 -1</clus>
<clus scale="   69.996">  1  5  2 -1</clus>
</clustering>
</event>
<event>
 9    1  0.1445593E-005  0.9278238E+02  0.7546771E-02  0.1298306E+00
         21   -1    0    0  501  502  0.00000000000E+00  0.00000000000E+00  0.13878468690E+03  0.13878468690E+03  0.00000000000E+00 0.  1.
         -2   -1    0    0    0  501 -0.00000000000E+00 -0.00000000000E+00 -0.14624423751E+03  0.14624423751E+03  0.00000000000E+00 0.  1.
         23    2    1    2    0    0 -0.61938083603E+01  0.20681247022E+01 -0.84359285012E+02  0.12297484767E+03  0.89239474389E+02 0.  0.
         23    2    1    2    0    0 -0.21752182054E+02  0.29400271673E+02  0.62182280972E+02  0.11746885737E+03  0.92707944574E+02 0.  0.
        -11    1    4    4    0    0 -0.30109865632E+02  0.56802992451E+02  0.61263214195E+02  0.88805210282E+02  0.00000000000E+00 0.  1.
         11    1    4    4    0    0  0.83576835779E+01 -0.27402720778E+02  0.91906677754E+00  0.28663647091E+02  0.00000000000E+00 0. -1.
        -13    1    3    3    0    0 -0.41453097294E+02 -0.88091184962E+01 -0.72925443648E+02  0.84345006818E+02  0.00000000000E+00 0.  1.
         13    1    3    3    0    0  0.35259288934E+02  0.10877243198E+02 -0.11433841365E+02  0.38629840849E+02  0.00000000000E+00 0. -1.
         -2    1    1    2    0  502  0.27945990415E+02 -0.31468396375E+02  0.14717453424E+02  0.44585219367E+02  0.00000000000E+00 0.  1.
<scales pt_clust_5="13000.00000" pt_clust_6="13000.00000" pt_clust_7="13000.00000" pt_clust_8="13000.00000" pt_clust_9="42.08608"></scales>
<clustering>
<clus scale="   42.086">  1  9  2 -1</clus>
<clus scale="   89.239">  7  8 -1 -1</clus>
<clus scale="   89.317">  2  7  1 -1</clus>
<clus scale="   92.708">  5  6 -1 -1</clus>
<clus scale="   42.086">  1  5  2 -1</clus>
</clustering>
</event>
<event>
 9    1  0.1445593E-005  0.2423822E+03  0.7546771E-02  0.1119741E+00
         -2   -1    0    0    0  501 -0.00000000000E+00  0.00000000000E+00  0.37581993313E+03  0.37581993313E+03  0.00000000000E+00 0.  1.
         21   -1    0    0  501  502  0.00000000000E+00 -0.00000000000E+00 -0.48378610717E+03  0.48378610717E+03  0.00000000000E+00 0. -1.
         23    2    1    2    0    0 -0.20288063771E+02  0.20874020793E+03  0.27074943670E+03  0.35438449378E+03  0.91099023132E+02 0.  0.
         23    2    1    2    0    0  0.16754764702E+02 -0.25962771674E+03 -0.32144636840E+03  0.42852872501E+03  0.11234690454E+03 0.  0.
        -11    1    3    3    0    0  0.13975429550E+02  0.11434288934E+03  0.20247607458E+03  0.23295100290E+03  0.00000000000E+00 0. -1.
         11    1    3    3    0    0 -0.34263493321E+02  0.94397318590E+02  0.68273362125E+02  0.12143349088E+03  0.00000000000E+00 0.  1.
        -13    1    4    4    0    0  0.76304686803E+01 -0.15883574040E+03 -0.27389425082E+03  0.31670976795E+03  0.00000000000E+00 0. -1.
         13    1    4    4    0    0  0.91242960217E+01 -0.10079197634E+03 -0.47552117583E+02  0.11181895706E+03  0.00000000000E+00 0.  1.
         -2    1    1    2    0  502  0.35332990693E+01  0.50887508804E+02 -0.57269242335E+02  0.76692821517E+02  0.00000000000E+00 0.  1.
<scales pt_clust_5="13000.00000" pt_clust_6="13000.00000" pt_clust_7="13000.00000" pt_clust_8="13000.00000" pt_clust_9="51.01003"></scales>
<clustering>
<clus scale="   51.010">  2  9  1 -1</clus>
<clus scale="   91.099">  5  6 -1 -1</clus>
<clus scale="  112.347">  7  8 -1 -1</clus>
<clus scale="  233.295">  1  5  2 -1</clus>
<clus scale="   51.010">  2  5  1 -1</clus>
</clustering>
</event>
<event>
 9    1  0.1445593E-005  0.9482758E+02  0.7546771E-02  0.1292756E+00
         21   -1    0    0  501  502  0.00000000000E+00  0.00000000000E+00  0.61414218644E+02  0.61414218644E+02  0.00000000000E+00 0. -1.
          1   -1    0    0  502    0 -0.00000000000E+00 -0.00000000000E+00 -0.40428600328E+03  0.40428600328E+03  0.00000000000E+00 0. -1.
         23    2    1    2    0    0 -0.84014895779E+01 -0.13491318945E+02 -0.22967073456E+03  0.24710540350E+03  0.89776574948E+02 0.  0.
         23    2    1    2    0    0  0.56618741084E+01  0.36976546941E+02 -0.14698707917E+03  0.17735700581E+03  0.91929234878E+02 0.  0.
        -13    1    4    4    0    0 -0.43152765232E+02  0.18236358877E+02 -0.73684844913E+02  0.87316563733E+02  0.00000000000E+00 0.  1.
         13    1    4    4    0    0  0.48814639340E+02  0.18740188063E+02 -0.73302234259E+02  0.90040442080E+02  0.00000000000E+00 0. -1.
        -13    1    3    3    0    0 -0.10342872320E+02  0.37896178218E+02 -0.87253675396E+02  0.95688553137E+02  0.00000000000E+00 0. -1.
         13    1    3    3    0    0  0.19413827426E+01 -0.51387497163E+02 -0.14241705917E+03  0.15141685036E+03  0.00000000000E+00 0.  1.
          1    1    1    2  501    0  0.27396154695E+01 -0.23485227995E+02  0.33786029099E+02  0.41237812614E+02  0.00000000000E+00 0. -1.
<scales pt_clust_5="13000.00000" pt_clust_6="13000.00000" pt_clust_7="13000.00000" pt_clust_8="13000.00000" pt_clust_9="23.64448"></scales>
<clustering>
<clus scale="   23.644">  1  9  2 -1</clus>
<clus scale="   89.777">  7  8 -1 -1</clus>
<clus scale="   91.929">  5  6 -1 -1</clus>
<clus scale="   92.742">  2  7  1 -1</clus>
<clus scale="   23.644">  1  5  2 -1</clus>
</clustering>
</event>
<event>
 9    1  0.1445593E-005  0.1137428E+03  0.7546771E-02  0.1254175E+00
         -4   -1    0    0    0  501 -0.00000000000E+00  0.00000000000E+00  0.74847103874E+03  0.74847103874E+03  0.00000000000E+00 0.  1.
         21   -1    0    0  501  502  0.00000000000E+00 -0.00000000000E+00 -0.38020059111E+02  0.38020059111E+02  0.00000000000E+00 0.  1.
         23    2    1    2    0    0  0.52712839362E+02 -0.86956422352E+02  0.44789604700E+03  0.46873558725E+03  0.93606191114E+02 0.  0.
         23    2    1    2    0    0 -0.10260288770E+02  0.15228957013E+02  0.15814151011E+03  0.18415457072E+03  0.92557949624E+02 0.  0.
        -13    1    3    3    0    0 -0.95169537538E+01 -0.43384362426E+02  0.67323434620E+02  0.80654945049E+02  0.00000000000E+00 0. -1.
         13    1    3    3    0    0  0.62229793116E+02 -0.43572059925E+02  0.38057261238E+03  0.38808064220E+03  0.00000000000E+00 0.  1.
        -13    1    4    4    0    0 -0.33196213768E+02  0.29733542481E+02  0.14899510627E+03  0.15551724615E+03  0.00000000000E+00 0. -1.
         13    1    4    4    0    0  0.22935924998E+02 -0.14504585469E+02  0.91464038369E+01  0.28637324566E+02  0.00000000000E+00 0.  1.
         -4    1    1    2    0  502 -0.42452550592E+02  0.71727465339E+02  0.10441342252E+03  0.13360093989E+03  0.00000000000E+00 0.  1.
<scales pt_clust_5="13000.00000" pt_clust_6="13000.00000" pt_clust_7="13000.00000" pt_clust_8="13000.00000" pt_clust_9="83.34896"></scales>
<clustering>
<clus scale="   83.349">  2  9  1 -1</clus>
<clus scale="   92.558">  7  8 -1 -1</clus>
<clus scale="   93.606">  5  6 -1 -1</clus>
<clus scale="  112.882">  2  7  1 -1</clus>
<clus scale="   83.349">  2  5  1 -1</clus>
</clustering>
</event>
<event>
 9    1  0.1445593E-005  0.1329956E+03  0.7546771E-02  0.1223090E+00
         21   -1    0    0  501  502  0.00000000000E+00  0.00000000000E+00  0.13014736860E+03  0.13014736860E+03  0.00000000000E+00 0. -1.
          1   -1    0    0  502    0 -0.00000000000E+00 -0.00000000000E+00 -0.23224901510E+03  0.23224901510E+03  0.00000000000E+00 0. -1.
         23    2    1    2    0    0  0.90575710579E+02 -0.57591679066E+02 -0.11858920120E+03  0.18398580262E+03  0.90920933118E+02 0.  0.
         23    2    1    2    0    0 -0.78922759487E+02  0.25164884577E+02 -0.23883965710E+02  0.12533376947E+03  0.90972724321E+02 0.  0.
        -11    1    4    4    0    0 -0.32366826122E+02  0.52880326717E+02  0.79271745045E+01  0.62504243716E+02  0.00000000000E+00 0.  1.
         11    1    4    4    0    0 -0.46555933366E+02 -0.27715442140E+02 -0.31811140214E+02  0.62829525752E+02  0.00000000000E+00 0. -1.
        -11    1    3    3    0    0  0.30561831996E+02  0.43310089484E+01  0.69911217142E+01  0.31648996766E+02  0.00000000000E+00 0.  1.
         11    1    3    3    0    0  0.60013878582E+02 -0.61922688014E+02 -0.12558032292E+03  0.15233680585E+03  0.00000000000E+00 0. -1.
          1    1    1    2  501    0 -0.11652951091E+02  0.32426794489E+02  0.40371520418E+02  0.53076811611E+02  0.00000000000E+00 0. -1.
<scales pt_clust_5="13000.00000" pt_clust_6="13000.00000" pt_clust_7="13000.00000" pt_clust_8="13000.00000" pt_clust_9="34.45705"></scales>
<clustering>
<clus scale="   34.457">  1  9  2 -1</clus>
<clus scale="   90.921">  7  8 -1 -1</clus>
<clus scale="   90.973">  5  6 -1 -1</clus>
<clus scale="  132.960">  2  7  1 -1</clus>
<clus scale="   34.457">  1  5  2 -1</clus>
</clustering>
</event>
<event>
 9    1  0.1445593E-005  0.1161210E+03  0.7546771E-02  0.1250774E+00
          1   -1    0    0  502    0 -0.00000000000E+00  0.00000000000E+00  0.11480138312E+04  0.11480138312E+04  0.00000000000E+00 0. -1.
         21   -1    0    0  501  502  0.00000000000E+00 -0.00000000000E+00 -0.37146344809E+02  0.37146344809E+02  0.00000000000E+00 0.  1.
         23    2    1    2    0    0 -0.55653152117E+02  0.89849518385E+01  0.61374462589E+03  0.62337520934E+03  0.93467551089E+02 0.  0.
         23    2    1    2    0    0  0.11590433290E+03  0.67229592709E+02  0.35004033622E+03  0.38551208012E+03  0.90209170351E+02 0.  0.
        -13    1    4    4    0    0  0.44143608305E+02 -0.40070823926E+01  0.41108804347E+02  0.60453690196E+02  0.00000000000E+00 0. -1.
         13    1    4    4    0    0  0.71760724600E+02  0.71236675102E+02  0.30893153187E+03  0.32505838992E+03  0.00000000000E+00 0.  1.
        -13    1    3    3    0    0  0.79248802149E+01  0.38227021376E+02  0.20530455241E+03  0.20898341592E+03  0.00000000000E+00 0.  1.
         13    1    3    3    0    0 -0.63578032332E+02 -0.29242069537E+02  0.40844007348E+03  0.41439179341E+03  0.00000000000E+00 0. -1.
          1    1    1    2  501    0 -0.60251180788E+02 -0.76214544548E+02  0.14708252432E+03  0.17627288659E+03  0.00000000000E+00 0. -1.
<scales pt_clust_5="13000.00000" pt_clust_6="13000.00000" pt_clust_7="13000.00000" pt_clust_8="13000.00000" pt_clust_9="97.15380"></scales>
<clustering>
<clus scale="   90.209">  5  6 -1 -1</clus>
<clus scale="   93.468">  7  8 -1 -1</clus>
<clus scale="   97.154">  2  9  1 -1</clus>
<clus scale="  113.515">  2  5  1 -1</clus>
<clus scale="   97.154">  2  5  1 -1</clus>
</clustering>
</event>
<event>
 9    1  0.1445593E-005  0.1004588E+03  0.7546771E-02  0.1279678E+00
         21   -1    0    0  501  502  0.00000000000E+00  0.00000000000E+00  0.25349776356E+03  0.25349776356E+03  0.00000000000E+00 0.  1.
          3   -1    0    0  502    0 -0.00000000000E+00 -0.00000000000E+00 -0.97258134485E+02  0.97258134485E+02  0.00000000000E+00 0. -1.
         23    2    1    2    0    0  0.45881614228E+01 -0.46002667785E+02 -0.42255469782E+02  0.11081269676E+03  0.91414617919E+02 0.  0.
         23    2    1    2    0    0 -0.22304168012E+02  0.21770980478E+02  0.10717589736E+03  0.14381709598E+03  0.90693068192E+02 0.  0.
        -13    1    3    3    0    0 -0.22070466164E+02 -0.36243041993E+02 -0.62783892566E+02  0.75779157658E+02  0.00000000000E+00 0.  1.
         13    1    3    3    0    0  0.26658627587E+02 -0.97596257916E+01  0.20528422783E+02  0.35033539107E+02  0.00000000000E+00 0. -1.
        -13    1    4    4    0    0 -0.19150056713E+02 -0.28726287491E+02  0.78270980805E+02  0.85546891827E+02  0.00000000000E+00 0.  1.
         13    1    4    4    0    0 -0.31541112990E+01  0.50497267969E+02  0.28904916557E+02  0.58270204149E+02  0.00000000000E+00 0. -1.
          3    1    1    2  501    0  0.17716006589E+02  0.24231687306E+02  0.91319201500E+02  0.96126105308E+02  0.00000000000E+00 0. -1.
<scales pt_clust_5="13000.00000" pt_clust_6="13000.00000" pt_clust_7="13000.00000" pt_clust_8="13000.00000" pt_clust_9="30.01719"></scales>
<clustering>
<clus scale="   30.017">  1  9  2 -1</clus>
<clus scale="   90.693">  7  8 -1 -1</clus>
<clus scale="   91.415">  5  6 -1 -1</clus>
<clus scale="   99.803">  1  7  2 -1</clus>
<clus scale="   30.017">  1  5  2 -1</clus>
</clustering>
</event>
<event>
 9    1  0.1445593E-005  0.1216257E+03  0.7546771E-02  0.1241047E+00
          1   -1    0    0  502    0 -0.00000000000E+00  0.00000000000E+00  0.17073925889E+03  0.17073925889E+03  0.00000000000E+00 0. -1.
         21   -1    0    0  501  502  0.00000000000E+00 -0.00000000000E+00 -0.14281958436E+03  0.14281958436E+03  0.00000000000E+00 0.  1.
         23    2    1    2    0    0 -0.75671134701E+02 -0.22316803149E+02  0.50298370275E+02  0.13127901374E+03  0.92087420786E+02 0.  0.
         23    2    1    2    0    0  0.76594099253E+02  0.15234614957E+01  0.30834800782E+02  0.12514060363E+03  0.94023447934E+02 0.  0.
        -11    1    4    4    0    0  0.93634288710E+02 -0.13350914294E+02  0.37214363610E+02  0.10163924337E+03  0.00000000000E+00 0.  1.
         11    1    4    4    0    0 -0.17040189457E+02  0.14874375790E+02 -0.63795628280E+01  0.23501360253E+02  0.00000000000E+00 0. -1.
        -13    1    3    3    0    0  0.55544030447E+01  0.25107965355E+02  0.19621015053E+02  0.32345719179E+02  0.00000000000E+00 0.  1.
         13    1    3    3    0    0 -0.81225537745E+02 -0.47424768505E+02  0.30677355221E+02  0.98933294563E+02  0.00000000000E+00 0. -1.
          1    1    1    2  501    0 -0.92296455224E+00  0.20793341653E+02 -0.53213496529E+02  0.57139225875E+02  0.00000000000E+00 0. -1.
<scales pt_clust_5="13000.00000" pt_clust_6="13000.00000" pt_clust_7="13000.00000" pt_clust_8="13000.00000" pt_clust_9="20.81382"></scales>
<clustering>
<clus scale="   20.814">  2  9  1 -1</clus>
<clus scale="   92.087">  7  8 -1 -1</clus>
<clus scale="   94.023">  5  6 -1 -1</clus>
<clus scale="  120.135">  1  7  2 -1</clus>
<clus scale="   20.814">  2  5  1 -1</clus>
</clustering>
</event>
<event>
 9    1  0.1445593E-005  0.1257914E+03  0.7546771E-02  0.1234046E+00
         21   -1    0    0  501  502  0.00000000000E+00  0.00000000000E+00  0.68991151146E+02  0.68991151146E+02  0.00000000000E+00 0. -1.
          2   -1    0    0  502    0 -0.00000000000E+00 -0.00000000000E+00 -0.72352318780E+03  0.72352318780E+03  0.00000000000E+00 0. -1.
         23    2    1    2    0    0  0.50541559157E+01  0.89530000644E+02 -0.60789767489E+03  0.62131441643E+03  0.91928534285E+02 0.  0.
         23    2    1    2    0    0  0.62413611817E+01 -0.68472853133E+02 -0.73056037065E+02  0.13557553349E+03  0.91192403873E+02 0.  0.
        -11    1    3    3    0    0  0.48538490123E+02  0.48414587650E+02 -0.33010586445E+03  0.33714957966E+03  0.00000000000E+00 0. -1.
         11    1    3    3    0    0 -0.43484334207E+02  0.41115412993E+02 -0.27779181044E+03  0.28416483677E+03  0.00000000000E+00 0.  1.
        -11    1    4    4    0    0 -0.98311406819E+01 -0.27956444699E+02  0.17965907078E+02  0.34655272968E+02  0.00000000000E+00 0.  1.
         11    1    4    4    0    0  0.16072501864E+02 -0.40516408434E+02 -0.91021944143E+02  0.10092026052E+03  0.00000000000E+00 0. -1.
          2    1    1    2  501    0 -0.11295517097E+02 -0.21057147510E+02  0.26421675302E+02  0.35624389027E+02  0.00000000000E+00 0. -1.
<scales pt_clust_5="13000.00000" pt_clust_6="13000.00000" pt_clust_7="13000.00000" pt_clust_8="13000.00000" pt_clust_9="23.89544"></scales>
<clustering>
<clus scale="   23.895">  1  9  2 -1</clus>
<clus scale="   91.192">  7  8 -1 -1</clus>
<clus scale="   91.929">  5  6 -1 -1</clus>
<clus scale="  125.254">  1  7  2 -1</clus>
<clus scale="   23.895">  1  5  2 -1</clus>
</clustering>
</event>
<event>
 9    1  0.1445593E-005  0.1399154E+03  0.7546771E-02  0.1214053E+00
         -1   -1    0    0    0  501 -0.00000000000E+00  0.00000000000E+00  0.27821732188E+03  0.27821732188E+03  0.00000000000E+00 0.  1.
         21   -1    0    0  501  502  0.00000000000E+00 -0.00000000000E+00 -0.11088247806E+03  0.11088247806E+03  0.00000000000E+00 0. -1.
         23    2    1    2    0    0 -0.11494486039E+02  0.12572553889E+03  0.13458780846E+03  0.20552529942E+03  0.90486110414E+02 0.  0.
         23    2    1    2    0    0 -0.10811067081E+02 -0.78457802985E+02  0.44224751297E+02  0.13006268387E+03  0.93209265026E+02 0.  0.
        -11    1    3    3    0    0 -0.43626753758E+02  0.39216029166E+02  0.76800710991E+02  0.96641294464E+02  0.00000000000E+00 0.  1.
         11    1    3    3    0    0  0.32132267718E+02  0.86509509729E+02  0.57787097465E+02  0.10888400496E+03  0.00000000000E+00 0. -1.
        -11    1    4    4    0    0  0.16486507867E+02 -0.47183732001E+02 -0.19798310849E+02  0.53759488648E+02  0.00000000000E+00 0.  1.
         11    1    4    4    0    0 -0.27297574948E+02 -0.31274070984E+02  0.64023062147E+02  0.76303195219E+02  0.00000000000E+00 0. -1.
         -1    1    1    2    0  502  0.22305553120E+02 -0.47267735909E+02 -0.11477715930E+02  0.53511816648E+02  0.00000000000E+00 0.  1.
<scales pt_clust_5="13000.00000" pt_clust_6="13000.00000" pt_clust_7="13000.00000" pt_clust_8="13000.00000" pt_clust_9="52.26640"></scales>
<clustering>
<clus scale="   52.266">  2  9  1 -1</clus>
<clus scale="   90.486">  5  6 -1 -1</clus>
<clus scale="   93.209">  7  8 -1 -1</clus>
<clus scale="  138.116">  1  5  2 -1</clus>
<clus scale="   52.266">  2  5  1 -1</clus>
</clustering>
</event>
<event>
 9    1  0.1445593E-005  0.1138466E+03  0.7546771E-02  0.1254687E+00
         21   -1    0    0  501  502  0.00000000000E+00  0.00000000000E+00  0.66320122753E+03  0.66320122753E+03  0.00000000000E+00 0. -1.
          1   -1    0    0  502    0 -0.00000000000E+00 -0.00000000000E+00 -0.45628491302E+03  0.45628491302E+03  0.00000000000E+00 0. -1.
         23    2    1    2    0    0  0.53350728295E+02  0.22647504588E+02 -0.28288386113E+03  0.30267459639E+03  0.90716165827E+02 0.  0.
         23    2    1    2    0    0 -0.11804283488E+03  0.25389295356E+02 -0.12628416731E+03  0.19548029560E+03  0.87670564456E+02 0.  0.
        -11    1    3    3    0    0 -0.18392695621E+02  0.28347261133E+02 -0.11855634281E+03  0.12327799839E+03  0.00000000000E+00 0.  1.
         11    1    3    3    0    0  0.71743423916E+02 -0.56997565456E+01 -0.16432751832E+03  0.17939659801E+03  0.00000000000E+00 0. -1.
        -13    1    4    4    0    0 -0.63198303743E+02  0.21797697765E+02 -0.10981107899E+02  0.67747693352E+02  0.00000000000E+00 0.  1.
         13    1    4    4    0    0 -0.54844531132E+02  0.35915975903E+01 -0.11530305941E+03  0.12773260225E+03  0.00000000000E+00 0. -1.
          1    1    1    2  501    0  0.64692106580E+02 -0.48036799943E+02  0.61608434295E+03  0.62133124855E+03  0.00000000000E+00 0. -1.
<scales pt_clust_5="13000.00000" pt_clust_6="13000.00000" pt_clust_7="13000.00000" pt_clust_8="13000.00000" pt_clust_9="80.57669"></scales>
<clustering>
<clus scale="   80.577">  1  9  2 -1</clus>
<clus scale="   87.671">  7  8 -1 -1</clus>
<clus scale="   90.716">  5  6 -1 -1</clus>
<clus scale="  111.435">  1  7  2 -1</clus>
<clus scale="   80.577">  1  5  2 -1</clus>
</clustering>
</event>
<event>
 9    1  0.1445593E-005  0.9910155E+02  0.7546771E-02  0.1284206E+00
          1   -1    0    0  502    0 -0.00000000000E+00  0.00000000000E+00  0.35569703144E+03  0.35569703144E+03  0.00000000000E+00 0. -1.
         21   -1    0    0  501  502  0.00000000000E+00 -0.00000000000E+00 -0.81266317467E+02  0.81266317467E+02  0.00000000000E+00 0.  1.
         23    2    1    2    0    0 -0.20994557249E+02  0.53048339911E+02  0.15215184293E+03  0.18580155646E+03  0.90095156788E+02 0.  0.
         23    2    1    2    0    0 -0.55558625330E+02  0.28711553210E+01  0.11093072531E+03  0.15568320782E+03  0.94003356310E+02 0.  0.
        -13    1    4    4    0    0 -0.75799345012E+02  0.22391943063E+02  0.67472052104E+02  0.10392024650E+03  0.00000000000E+00 0.  1.
         13    1    4    4    0    0  0.20240719681E+02 -0.19520787742E+02  0.43458673206E+02  0.51762961315E+02  0.00000000000E+00 0. -1.
        -13    1    3    3    0    0  0.13482725499E+02 -0.20167170246E+02  0.23250496371E+02  0.33601848523E+02  0.00000000000E+00 0. -1.
         13    1    3    3    0    0 -0.34477282748E+02  0.73215510157E+02  0.12890134656E+03  0.15219970794E+03  0.00000000000E+00 0.  1.
          1    1    1    2  501    0  0.76553182579E+02 -0.55919495232E+02  0.11348145734E+02  0.95478584623E+02  0.00000000000E+00 0. -1.
<scales pt_clust_5="13000.00000" pt_clust_6="13000.00000" pt_clust_7="13000.00000" pt_clust_8="13000.00000" pt_clust_9="94.80179"></scales>
<clustering>
<clus scale="   90.095">  7  8 -1 -1</clus>
<clus scale="   94.003">  5  6 -1 -1</clus>
<clus scale="   94.802">  2  9  1 -1</clus>
<clus scale="   95.402">  1  7  2 -1</clus>
<clus scale="   94.802">  2  5  1 -1</clus>
</clustering>
</event>
<event>
 9    1  0.1445593E-005  0.9810120E+02  0.7546771E-02  0.1284552E+00
         21   -1    0    0  501  502  0.00000000000E+00  0.00000000000E+00  0.13350914977E+03  0.13350914977E+03  0.00000000000E+00 0.  1.
          2   -1    0    0  502    0 -0.00000000000E+00 -0.00000000000E+00 -0.33744107788E+03  0.33744107788E+03  0.00000000000E+00 0. -1.
         23    2    1    2    0    0 -0.11091604021E+02  0.34599108692E+02 -0.27959943655E+03  0.29613183268E+03  0.90543334410E+02 0.  0.
         23    2    1    2    0    0 -0.16345537929E+02 -0.45127138581E+02  0.10567237289E+02  0.10339233898E+03  0.90965235163E+02 0.  0.
        -11    1    3    3    0    0  0.33450447663E+02  0.80925026831E+01 -0.18583329435E+03  0.18899321241E+03  0.00000000000E+00 0.  1.
         11    1    3    3    0    0 -0.44542051684E+02  0.26506606009E+02 -0.93766142200E+02  0.10713862027E+03  0.00000000000E+00 0. -1.
        -13    1    4    4    0    0 -0.69519649090E+01 -0.70717108684E+02 -0.62993015913E+01  0.71336669934E+02  0.00000000000E+00 0.  1.
         13    1    4    4    0    0 -0.93935730201E+01  0.25589970102E+02  0.16866538881E+02  0.32055669042E+02  0.00000000000E+00 0. -1.
          2    1    1    2  501    0  0.27437141950E+02  0.10528029889E+02  0.65100271148E+02  0.71426055997E+02  0.00000000000E+00 0. -1.
<scales pt_clust_5="13000.00000" pt_clust_6="13000.00000" pt_clust_7="13000.00000" pt_clust_8="13000.00000" pt_clust_9="29.38769"></scales>
<clustering>
<clus scale="   29.388">  1  9  2 -1</clus>
<clus scale="   90.543">  5  6 -1 -1</clus>
<clus scale="   90.965">  7  8 -1 -1</clus>
<clus scale="   97.710">  2  5  1 -1</clus>
<clus scale="   29.388">  1  5  2 -1</clus>
</clustering>
</event>
<event>
 9    1  0.1445593E-005  0.1184424E+03  0.7546771E-02  0.1248712E+00
          4   -1    0    0  502    0 -0.00000000000E+00  0.00000000000E+00  0.17210684929E+03  0.17210684929E+03  0.00000000000E+00 0. -1.
         21   -1    0    0  501  502  0.00000000000E+00 -0.00000000000E+00 -0.35756197064E+03  0.35756197064E+03  0.00000000000E+00 0. -1.
         23    2    1    2    0    0 -0.75385406696E+02  0.34803412285E+02  0.10833931244E+03  0.16036575936E+03  0.84175608735E+02 0.  0.
         23    2    1    2    0    0  0.32735354403E+02 -0.33318664998E+02 -0.39562778744E+02  0.11151445364E+03  0.93212247288E+02 0.  0.
        -11    1    3    3    0    0 -0.85260131267E+02  0.97977593497E+01  0.10091814445E+03  0.13247549944E+03  0.00000000000E+00 0. -1.
         11    1    3    3    0    0  0.98747245711E+01  0.25005652935E+02  0.74211679828E+01  0.27890259918E+02  0.00000000000E+00 0.  1.
        -13    1    4    4    0    0  0.41789268997E+02  0.55359144787E+01 -0.54512345741E+02  0.68909978889E+02  0.00000000000E+00 0.  1.
         13    1    4    4    0    0 -0.90539145939E+01 -0.38854579477E+02  0.14949566997E+02  0.42604474755E+02  0.00000000000E+00 0. -1.
          4    1    1    2  501    0  0.42650052293E+02 -0.14847472870E+01 -0.25423165504E+03  0.25778860693E+03  0.00000000000E+00 0. -1.
<scales pt_clust_5="13000.00000" pt_clust_6="13000.00000" pt_clust_7="13000.00000" pt_clust_8="13000.00000" pt_clust_9="42.67589"></scales>
<clustering>
<clus scale="   42.676">  2  9  1 -1</clus>
<clus scale="   84.176">  5  6 -1 -1</clus>
<clus scale="   93.212">  7  8 -1 -1</clus>
<clus scale="  111.470">  1  5  2 -1</clus>
<clus scale="   42.676">  2  5  1 -1</clus>
</clustering>
</event>
<event>
 9    1  0.1445593E-005  0.1279703E+03  0.7546771E-02  0.1230677E+00
         21   -1    0    0  501  502  0.00000000000E+00  0.00000000000E+00  0.27544741995E+03  0.27544741995E+03  0.00000000000E+00 0. -1.
          3   -1    0    0  502    0 -0.00000000000E+00 -0.00000000000E+00 -0.24195531877E+03  0.24195531877E+03  0.00000000000E+00 0. -1.
         23    2    1    2    0    0 -0.40266673314E+02 -0.68778512597E+02 -0.12183489133E+03  0.17157071868E+03  0.90779303735E+02 0.  0.
         23    2    1    2    0    0  0.83204202763E+01  0.12758904221E+03 -0.20438820953E+02  0.15775527332E+03  0.90115413618E+02 0.  0.
        -11    1    3    3    0    0 -0.47426130345E+02 -0.44252233478E+02 -0.12954977547E+03  0.14488147684E+03  0.00000000000E+00 0. -1.
         11    1    3    3    0    0  0.71594570307E+01 -0.24526279119E+02  0.77148841394E+01  0.26689241834E+02  0.00000000000E+00 0.  1.
        -13    1    4    4    0    0  0.37950893115E+02  0.11628078068E+03 -0.27253057242E+02  0.12531647686E+03  0.00000000000E+00 0. -1.
         13    1    4    4    0    0 -0.29630472838E+02  0.11308261535E+02  0.68142362892E+01  0.32438796460E+02  0.00000000000E+00 0.  1.
          3    1    1    2  501    0  0.31946253038E+02 -0.58810529615E+02  0.17576581347E+03  0.18807674673E+03  0.00000000000E+00 0. -1.
<scales pt_clust_5="13000.00000" pt_clust_6="13000.00000" pt_clust_7="13000.00000" pt_clust_8="13000.00000" pt_clust_9="66.92714"></scales>
<clustering>
<clus scale="   66.927">  1  9  2 -1</clus>
<clus scale="   90.115">  7  8 -1 -1</clus>
<clus scale="   90.779">  5  6 -1 -1</clus>
<clus scale="  127.500">  1  7  2 -1</clus>
<clus scale="   66.927">  1  5  2 -1</clus>
</clustering>
</event>
<event>
 9    1  0.1445593E-005  0.1018115E+03  0.7546771E-02  0.1277123E+00
         -3   -1    0    0    0  501 -0.00000000000E+00  0.00000000000E+00  0.15033663303E+03  0.15033663303E+03  0.00000000000E+00 0.  1.
         21   -1    0    0  501  502  0.00000000000E+00 -0.00000000000E+00 -0.11950773578E+03  0.11950773578E+03  0.00000000000E+00 0. -1.
         23    2    1    2    0    0 -0.41438492839E+02  0.21046819483E+02  0.69210609830E+02  0.12381181147E+03  0.91537636235E+02 0.  0.
         23    2    1    2    0    0  0.26582969613E+02 -0.35179993038E+02  0.22914332688E+01  0.10048326582E+03  0.90262671459E+02 0.  0.
        -11    1    3    3    0    0 -0.11980900490E+02 -0.19364451456E+02  0.70192770006E+02  0.73793962611E+02  0.00000000000E+00 0.  1.
         11    1    3    3    0    0 -0.29457592349E+02  0.40411270940E+02 -0.98216017557E+00  0.50017848860E+02  0.00000000000E+00 0. -1.
        -13    1    4    4    0    0  0.38269717541E+02  0.87368368664E+01  0.28049359713E+02  0.48245934330E+02  0.00000000000E+00 0. -1.
         13    1    4    4    0    0 -0.11686747928E+02 -0.43916829905E+02 -0.25757926444E+02  0.52237331485E+02  0.00000000000E+00 0.  1.
         -3    1    1    2    0  502  0.14855523226E+02  0.14133173555E+02 -0.40673145854E+02  0.45549291528E+02  0.00000000000E+00 0.  1.
<scales pt_clust_5="13000.00000" pt_clust_6="13000.00000" pt_clust_7="13000.00000" pt_clust_8="13000.00000" pt_clust_9="20.50447"></scales>
<clustering>
<clus scale="   20.504">  2  9  1 -1</clus>
<clus scale="   90.263">  7  8 -1 -1</clus>
<clus scale="   91.538">  5  6 -1 -1</clus>
<clus scale="  100.667">  2  7  1 -1</clus>
<clus scale="   20.504">  2  5  1 -1</clus>
</clustering>
</event>
<event>
 9    1  0.1445593E-005  0.1110412E+03  0.7546771E-02  0.1259228E+00
         21   -1    0    0  501  502  0.00000000000E+00  0.00000000000E+00  0.17641666050E+03  0.17641666050E+03  0.00000000000E+00 0. -1.
          2   -1    0    0  502    0 -0.00000000000E+00 -0.00000000000E+00 -0.25158263283E+03  0.25158263283E+03  0.00000000000E+00 0. -1.
         23    2    1    2    0    0  0.55159930330E+02 -0.19581175277E+02 -0.16602259643E+03  0.19830118626E+03  0.91289745363E+02 0.  0.
         23    2    1    2    0    0 -0.65736198543E+02  0.48285058825E+02 -0.12481036362E+02  0.12192778440E+03  0.89765882359E+02 0.  0.
        -11    1    3    3    0    0 -0.91598933826E+01 -0.39127854150E+02 -0.49290357068E+02  0.63595848269E+02  0.00000000000E+00 0.  1.
         11    1    3    3    0    0  0.64319823713E+02  0.19546678873E+02 -0.11673223936E+03  0.13470533799E+03  0.00000000000E+00 0. -1.
        -11    1    4    4    0    0 -0.23081844933E+02 -0.14763224656E+02 -0.33191226955E+02  0.43039306622E+02  0.00000000000E+00 0.  1.
         11    1    4    4    0    0 -0.42654353610E+02  0.63048283481E+02  0.20710190593E+02  0.78888477778E+02  0.00000000000E+00 0. -1.
          2    1    1    2  501    0  0.10576268213E+02 -0.28703883548E+02  0.10333766045E+03  0.10777032267E+03  0.00000000000E+00 0. -1.
<scales pt_clust_5="13000.00000" pt_clust_6="13000.00000" pt_clust_7="13000.00000" pt_clust_8="13000.00000" pt_clust_9="30.59036"></scales>
<clustering>
<clus scale="   30.590">  1  9  2 -1</clus>
<clus scale="   89.766">  7  8 -1 -1</clus>
<clus scale="   91.290">  5  6 -1 -1</clus>
<clus scale="  109.792">  1  7  2 -1</clus>
<clus scale="   30.590">  1  5  2 -1</clus>
</clustering>
</event>
<event>
 9    1  0.3282556E-005  0.1148717E+03  0.7546771E-02  0.1255138E+00
         21   -1    0    0  501  502  0.00000000000E+00  0.00000000000E+00  0.43603758301E+03  0.43603758301E+03  0.00000000000E+00 0. -1.
          1   -1    0    0  502    0 -0.00000000000E+00 -0.00000000000E+00 -0.49218632384E+03  0.49218632384E+03  0.00000000000E+00 0. -1.
         23    2    1    2    0    0  0.47172547063E+02  0.41209380392E+02 -0.37542651757E+03  0.39298657953E+03  0.97825964711E+02 0.  0.
         23    2    1    2    0    0 -0.69803250536E+02  0.90917113609E+01 -0.75684367607E+02  0.13644233733E+03  0.89068708953E+02 0.  0.
        -11    1    4    4    0    0  0.13699977006E+02 -0.15295575472E+02  0.88459356055E+00  0.20553016926E+02  0.00000000000E+00 0.  1.
         11    1    4    4    0    0 -0.83503227542E+02  0.24387286833E+02 -0.76568961167E+02  0.11588932040E+03  0.00000000000E+00 0. -1.
        -13    1    3    3    0    0  0.37719370777E+02  0.72402553371E+02 -0.29797187289E+03  0.30895326135E+03  0.00000000000E+00 0. -1.
         13    1    3    3    0    0  0.94531762863E+01 -0.31193172979E+02 -0.77454644677E+02  0.84033318180E+02  0.00000000000E+00 0.  1.
          1    1    1    2  501    0  0.22630703473E+02 -0.50301091753E+02  0.39496214435E+03  0.39879498999E+03  0.00000000000E+00 0. -1.
<scales pt_clust_5="13000.00000" pt_clust_6="13000.00000" pt_clust_7="13000.00000" pt_clust_8="13000.00000" pt_clust_9="55.15749"></scales>
<clustering>
<clus scale="   55.157">  1  9  2 -1</clus>
<clus scale="   89.069">  5  6 -1 -1</clus>
<clus scale="   97.826">  7  8 -1 -1</clus>
<clus scale="  107.512">  1  5  2 -1</clus>
<clus scale="   55.157">  1  5  2 -1</clus>
</clustering>
</event>
<event>
 9    1  0.1445593E-005  0.1005240E+03  0.7546771E-02  0.1280670E+00
         -4   -1    0    0    0  501 -0.00000000000E+00  0.00000000000E+00  0.97898046501E+02  0.97898046501E+02  0.00000000000E+00 0.  1.
         21   -1    0    0  501  502  0.00000000000E+00 -0.00000000000E+00 -0.27070990312E+03  0.27070990312E+03  0.00000000000E+00 0.  1.
         23    2    1    2    0    0  0.77306857981E+01 -0.48238682791E+02  0.33943146194E+02  0.10837942280E+03  0.90593753050E+02 0.  0.
         23    2    1    2    0    0  0.15062553343E+02  0.32487549923E+02 -0.62498934901E+02  0.11333590255E+03  0.87501934434E+02 0.  0.
        -11    1    3    3    0    0  0.35094946115E+02 -0.45182287846E+02  0.50448624099E+02  0.76276851347E+02  0.00000000000E+00 0.  1.
         11    1    3    3    0    0 -0.27364260317E+02 -0.30563949448E+01 -0.16505477906E+02  0.32102571449E+02  0.00000000000E+00 0. -1.
        -11    1    4    4    0    0  0.44841928159E+02  0.22214107011E+01 -0.53660839005E+02  0.69965840445E+02  0.00000000000E+00 0.  1.
         11    1    4    4    0    0 -0.29779374816E+02  0.30266139222E+02 -0.88380958965E+01  0.43370062104E+02  0.00000000000E+00 0. -1.
         -4    1    1    2    0  502 -0.22793239141E+02  0.15751132868E+02 -0.14425606791E+03  0.14689262428E+03  0.00000000000E+00 0.  1.
<scales pt_clust_5="13000.00000" pt_clust_6="13000.00000" pt_clust_7="13000.00000" pt_clust_8="13000.00000" pt_clust_9="27.70614"></scales>
<clustering>
<clus scale="   27.706">  2  9  1 -1</clus>
<clus scale="   87.502">  7  8 -1 -1</clus>
<clus scale="   90.594">  5  6 -1 -1</clus>
<clus scale="   97.747">  2  7  1 -1</clus>
<clus scale="   27.706">  2  5  1 -1</clus>
</clustering>
</event>
<event>
 9    1  0.1445593E-005  0.9528662E+02  0.7546771E-02  0.1292738E+00
         21   -1    0    0  501  502  0.00000000000E+00  0.00000000000E+00  0.10528607779E+03  0.10528607779E+03  0.00000000000E+00 0.  1.
          1   -1    0    0  502    0 -0.00000000000E+00 -0.00000000000E+00 -0.23856253595E+03  0.23856253595E+03  0.00000000000E+00 0. -1.
         23    2    1    2    0    0  0.21400406561E+02  0.42174138212E+00 -0.14665733702E+03  0.17200588385E+03  0.87289714812E+02 0.  0.
         23    2    1    2    0    0 -0.60817357641E+02 -0.26927324412E+02  0.36896599460E+02  0.11884054994E+03  0.91312022580E+02 0.  0.
        -11    1    4    4    0    0 -0.81390353425E+02 -0.35847846382E+01  0.31024660968E+02  0.87176659145E+02  0.00000000000E+00 0.  1.
         11    1    4    4    0    0  0.20572995783E+02 -0.23342539774E+02  0.58719384922E+01  0.31663890794E+02  0.00000000000E+00 0. -1.
        -13    1    3    3    0    0  0.45373030652E+02 -0.15325183839E+02 -0.13066877829E+03  0.13916861280E+03  0.00000000000E+00 0. -1.
         13    1    3    3    0    0 -0.23972624091E+02  0.15746925221E+02 -0.15988558731E+02  0.32837271050E+02  0.00000000000E+00 0.  1.
          1    1    1    2  501    0  0.39416951081E+02  0.26505583030E+02 -0.23515720597E+02  0.53002179950E+02  0.00000000000E+00 0. -1.
<scales pt_clust_5="13000.00000" pt_clust_6="13000.00000" pt_clust_7="13000.00000" pt_clust_8="13000.00000" pt_clust_9="47.49994"></scales>
<clustering>
<clus scale="   47.500">  1  9  2 -1</clus>
<clus scale="   87.290">  7  8 -1 -1</clus>
<clus scale="   91.312">  5  6 -1 -1</clus>
<clus scale="   91.439">  2  7  1 -1</clus>
<clus scale="   47.500">  1  5  2 -1</clus>
</clustering>
</event>
<event>
 9    1  0.1445593E-005  0.1022539E+03  0.7546771E-02  0.1275853E+00
         21   -1    0    0  501  502  0.00000000000E+00  0.00000000000E+00  0.64125804889E+02  0.64125804889E+02  0.00000000000E+00 0. -1.
         -1   -1    0    0    0  501 -0.00000000000E+00 -0.00000000000E+00 -0.30005201465E+03  0.30005201465E+03  0.00000000000E+00 0.  1.
         23    2    1    2    0    0 -0.20752292347E+02 -0.45739674898E+02 -0.21520173096E+03  0.23929561714E+03  0.91803223661E+02 0.  0.
         23    2    1    2    0    0  0.39799846788E+01  0.26361630353E+02 -0.59695806998E+01  0.95309817773E+02  0.91310183645E+02 0.  0.
        -11    1    4    4    0    0 -0.32393062589E+02 -0.97153623658E+00 -0.29731916842E+02  0.43980009841E+02  0.00000000000E+00 0.  1.
         11    1    4    4    0    0  0.36373047267E+02  0.27333166590E+02  0.23762336142E+02  0.51329807931E+02  0.00000000000E+00 0. -1.
        -13    1    3    3    0    0 -0.41390324909E+02 -0.52492355872E+02 -0.20437877318E+03  0.21503322848E+03  0.00000000000E+00 0.  1.
         13    1    3    3    0    0  0.20638032562E+02  0.67526809746E+01 -0.10822957777E+02  0.24262388659E+02  0.00000000000E+00 0. -1.
         -1    1    1    2    0  502  0.16772307668E+02  0.19378044545E+02 -0.14754898103E+02  0.29572384633E+02  0.00000000000E+00 0.  1.
<scales pt_clust_5="13000.00000" pt_clust_6="13000.00000" pt_clust_7="13000.00000" pt_clust_8="13000.00000" pt_clust_9="25.62848"></scales>
<clustering>
<clus scale="   25.628">  1  9  2 -1</clus>
<clus scale="   91.310">  5  6 -1 -1</clus>
<clus scale="   91.803">  7  8 -1 -1</clus>
<clus scale="  101.811">  1  5  2 -1</clus>
<clus scale="   25.628">  1  5  2 -1</clus>
</clustering>
</event>
<event>
 9    1  0.1445593E-005  0.1170599E+03  0.7546771E-02  0.1248551E+00
         21   -1    0    0  501  502  0.00000000000E+00  0.00000000000E+00  0.18715714287E+03  0.18715714287E+03  0.00000000000E+00 0. -1.
          1   -1    0    0  502    0 -0.00000000000E+00 -0.00000000000E+00 -0.17649132372E+03  0.17649132372E+03  0.00000000000E+00 0. -1.
         23    2    1    2    0    0  0.97164446721E+02 -0.31171909813E+02 -0.73884747661E+02  0.15651466061E+03  0.92872306862E+02 0.  0.
         23    2    1    2    0    0 -0.35424579800E+02  0.43130919390E+01 -0.12599927731E+01  0.98061997509E+02  0.91329426570E+02 0.  0.
        -11    1    4    4    0    0  0.11417207078E+02 -0.17721339528E+02  0.30688362633E+02  0.37231359003E+02  0.00000000000E+00 0.  1.
         11    1    4    4    0    0 -0.46841786878E+02  0.22034431467E+02 -0.31948355406E+02  0.60830638506E+02  0.00000000000E+00 0. -1.
        -13    1    3    3    0    0  0.27760203821E+02  0.21634800604E+02 -0.58040155075E+02  0.67877486064E+02  0.00000000000E+00 0. -1.
         13    1    3    3    0    0  0.69404242900E+02 -0.52806710418E+02 -0.15844592587E+02  0.88637174548E+02  0.00000000000E+00 0.  1.
          1    1    1    2  501    0 -0.61739866921E+02  0.26858817874E+02  0.85810559586E+02  0.10907180846E+03  0.00000000000E+00 0. -1.
<scales pt_clust_5="13000.00000" pt_clust_6="13000.00000" pt_clust_7="13000.00000" pt_clust_8="13000.00000" pt_clust_9="67.32910"></scales>
<clustering>
<clus scale="   67.329">  1  9  2 -1</clus>
<clus scale="   91.329">  5  6 -1 -1</clus>
<clus scale="   92.872">  7  8 -1 -1</clus>
<clus scale="  115.840">  1  5  2 -1</clus>
<clus scale="   67.329">  1  5  2 -1</clus>
</clustering>
</event>
<event>
 9    1  0.1445593E-005  0.1179016E+03  0.7546771E-02  0.1247742E+00
          1   -1    0    0  502    0 -0.00000000000E+00  0.00000000000E+00  0.26043791594E+03  0.26043791594E+03  0.00000000000E+00 0. -1.
         21   -1    0    0  501  502  0.00000000000E+00 -0.00000000000E+00 -0.12819343794E+03  0.12819343794E+03  0.00000000000E+00 0. -1.
         23    2    1    2    0    0  0.50830239607E+02 -0.53051099680E+02  0.14482241193E+03  0.18614573721E+03  0.90986658628E+02 0.  0.
         23    2    1    2    0    0 -0.16087299576E+02  0.61889602451E+02 -0.70752258693E+02  0.13415229336E+03  0.94349518307E+02 0.  0.
        -11    1    4    4    0    0 -0.26288686527E+02  0.42646046821E+02  0.95056255554E+01  0.50991541122E+02  0.00000000000E+00 0.  1.
         11    1    4    4    0    0  0.10201386951E+02  0.19243555630E+02 -0.80257884248E+02  0.83160752240E+02  0.00000000000E+00 0. -1.
        -13    1    3    3    0    0  0.76548516124E+02 -0.30807309094E+02  0.10958594326E+03  0.13717814904E+03  0.00000000000E+00 0. -1.
         13    1    3    3    0    0 -0.25718276517E+02 -0.22243790586E+02  0.35236468679E+02  0.48967588174E+02  0.00000000000E+00 0.  1.
          1    1    1    2  501    0 -0.34742940031E+02 -0.88385027710E+01  0.58174324762E+02  0.68333323311E+02  0.00000000000E+00 0. -1.
<scales pt_clust_5="13000.00000" pt_clust_6="13000.00000" pt_clust_7="13000.00000" pt_clust_8="13000.00000" pt_clust_9="35.84958"></scales>
<clustering>
<clus scale="   35.850">  2  9  1 -1</clus>
<clus scale="   90.987">  7  8 -1 -1</clus>
<clus scale="   94.350">  5  6 -1 -1</clus>
<clus scale="  115.228">  1  7  2 -1</clus>
<clus scale="   35.850">  2  5  1 -1</clus>
</clustering>
</event>
<event>
 9    1  0.1445593E-005  0.1342698E+03  0.7546771E-02  0.1222012E+00
         21   -1    0    0  501  502  0.00000000000E+00  0.00000000000E+00  0.67459033082E+03  0.67459033082E+03  0.00000000000E+00 0.  1.
          3   -1    0    0  502    0 -0.00000000000E+00 -0.00000000000E+00 -0.24586282775E+03  0.24586282775E+03  0.00000000000E+00 0. -1.
         23    2    1    2    0    0 -0.30390790429E+01  0.93643193619E+02 -0.20411793051E+03  0.24390310214E+03  0.95112091585E+02 0.  0.
         23    2    1    2    0    0  0.50437079660E+02 -0.12425491250E+03  0.56679505241E+03  0.58968061043E+03  0.92105421054E+02 0.  0.
        -13    1    4    4    0    0  0.59201556152E+02 -0.27281612106E+02  0.23901066353E+03  0.24774020242E+03  0.00000000000E+00 0. -1.
         13    1    4    4    0    0 -0.87644764921E+01 -0.96973300396E+02  0.32778438888E+03  0.34194040801E+03  0.00000000000E+00 0.  1.
        -13    1    3    3    0    0  0.43711642340E+02  0.44600245323E+02 -0.12504392859E+03  0.13977078964E+03  0.00000000000E+00 0. -1.
         13    1    3    3    0    0 -0.46750721383E+02  0.49042948296E+02 -0.79074001917E+02  0.10413231250E+03  0.00000000000E+00 0.  1.
          3    1    1    2  501    0 -0.47398000617E+02  0.30611718883E+02  0.66050381172E+02  0.86869446001E+02  0.00000000000E+00 0. -1.
<scales pt_clust_5="13000.00000" pt_clust_6="13000.00000" pt_clust_7="13000.00000" pt_clust_8="13000.00000" pt_clust_9="56.42382"></scales>
<clustering>
<clus scale="   56.424">  1  9  2 -1</clus>
<clus scale="   92.105">  5  6 -1 -1</clus>
<clus scale="   95.112">  7  8 -1 -1</clus>
<clus scale="  132.157">  1  5  2 -1</clus>
<clus scale="   56.424">  1  5  2 -1</clus>
</clustering>
</event>
<event>
 9    1  0.1445593E-005  0.1361174E+03  0.7546771E-02  0.1236381E+00
         21   -1    0    0  501  502  0.00000000000E+00  0.00000000000E+00  0.23097027143E+03  0.23097027143E+03  0.00000000000E+00 0. -1.
          1   -1    0    0  502    0 -0.00000000000E+00 -0.00000000000E+00 -0.20505971537E+03  0.20505971537E+03  0.00000000000E+00 0. -1.
         23    2    1    2    0    0 -0.10135283941E+02  0.28437256862E+02  0.48289188062E+02  0.10589410017E+03  0.89276610647E+02 0.  0.
         23    2    1    2    0    0 -0.51392694587E+02  0.57405182462E+02 -0.13237238330E+03  0.17764574971E+03  0.89994447058E+02 0.  0.
        -11    1    4    4    0    0 -0.17867904328E+02  0.74310328744E+02 -0.64185102810E+02  0.99804881573E+02  0.00000000000E+00 0.  1.
         11    1    4    4    0    0 -0.33524790259E+02 -0.16905146282E+02 -0.68187280485E+02  0.77840868139E+02  0.00000000000E+00 0. -1.
        -13    1    3    3    0    0 -0.29469377507E+02  0.49261188513E+02  0.10086857351E+02  0.58282532508E+02  0.00000000000E+00 0. -1.
         13    1    3    3    0    0  0.19334093565E+02 -0.20823931651E+02  0.38202330711E+02  0.47611567662E+02  0.00000000000E+00 0.  1.
          1    1    1    2  501    0  0.61527978528E+02 -0.85842439325E+02  0.10999375130E+03  0.15249013691E+03  0.00000000000E+00 0. -1.
<scales pt_clust_5="13000.00000" pt_clust_6="13000.00000" pt_clust_7="13000.00000" pt_clust_8="13000.00000" pt_clust_9="102.12220"></scales>
<clustering>
<clus scale="   89.277">  7  8 -1 -1</clus>
<clus scale="   89.994">  5  6 -1 -1</clus>
<clus scale="   94.243">  2  7  1 -1</clus>
<clus scale="  102.122">  1  9  2 -1</clus>
<clus scale="  102.122">  1  5  2 -1</clus>
</clustering>
</event>
<event>
 9    1  0.1445593E-005  0.9619854E+02  0.7546771E-02  0.1289097E+00
         -3   -1    0    0    0  501 -0.00000000000E+00  0.00000000000E+00  0.33269326965E+03  0.33269326965E+03  0.00000000000E+00 0.  1.
         21   -1    0    0  501  502  0.00000000000E+00 -0.00000000000E+00 -0.14965327423E+03  0.14965327423E+03  0.00000000000E+00 0.  1.
         23    2    1    2    0    0  0.18233904129E+02 -0.25521752884E+02  0.22435944926E+03  0.24438468971E+03  0.91667218577E+02 0.  0.
         23    2    1    2    0    0  0.58602375909E+01  0.17001760458E+02  0.73882208200E+02  0.11995956235E+03  0.92780998419E+02 0.  0.
        -11    1    4    4    0    0 -0.37074174553E+02 -0.15772054222E+02  0.35489001699E+02  0.53690980200E+02  0.00000000000E+00 0.  1.
         11    1    4    4    0    0  0.42934412144E+02  0.32773814681E+02  0.38393206501E+02  0.66268582151E+02  0.00000000000E+00 0. -1.
        -13    1    3    3    0    0 -0.36812149871E+02 -0.17654589354E+02  0.83484141912E+02  0.92932345575E+02  0.00000000000E+00 0.  1.
         13    1    3    3    0    0  0.55046054000E+02 -0.78671635308E+01  0.14087530735E+03  0.15145234414E+03  0.00000000000E+00 0. -1.
         -3    1    1    2    0  502 -0.24094141720E+02  0.85199924260E+01 -0.11520166205E+03  0.11800229182E+03  0.00000000000E+00 0.  1.
<scales pt_clust_5="13000.00000" pt_clust_6="13000.00000" pt_clust_7="13000.00000" pt_clust_8="13000.00000" pt_clust_9="25.55617"></scales>
<clustering>
<clus scale="   25.556">  2  9  1 -1</clus>
<clus scale="   91.667">  7  8 -1 -1</clus>
<clus scale="   92.781">  5  6 -1 -1</clus>
<clus scale="   95.125">  1  7  2 -1</clus>
<clus scale="   25.556">  2  5  1 -1</clus>
</clustering>
</event>
<event>
 9    1  0.1445593E-005  0.1203766E+03  0.7546771E-02  0.1242551E+00
         21   -1    0    0  501  502  0.00000000000E+00  0.00000000000E+00  0.46101890649E+02  0.46101890649E+02  0.00000000000E+00 0.  1.
          3   -1    0    0  502    0 -0.00000000000E+00 -0.00000000000E+00 -0.60592436011E+03  0.60592436011E+03  0.00000000000E+00 0. -1.
         23    2    1    2    0    0  0.54901673378E+02 -0.55725785115E+02 -0.43219625726E+03  0.44836050149E+03  0.90077620073E+02 0.  0.
         23    2    1    2    0    0 -0.77320064539E+02  0.40227445208E+02 -0.12352821975E+03  0.17610533664E+03  0.90317378118E+02 0.  0.
        -13    1    4    4    0    0 -0.97672753231E+02  0.27446286841E+02 -0.10125430702E+03  0.14333771337E+03  0.00000000000E+00 0.  1.
         13    1    4    4    0    0  0.20352688692E+02  0.12781158366E+02 -0.22273912736E+02  0.32767623270E+02  0.00000000000E+00 0. -1.
        -13    1    3    3    0    0  0.23938752505E+02  0.23920858649E+02 -0.12511386903E+03  0.12960999797E+03  0.00000000000E+00 0.  1.
         13    1    3    3    0    0  0.30962920873E+02 -0.79646643764E+02 -0.30708238823E+03  0.31875050352E+03  0.00000000000E+00 0. -1.
          3    1    1    2  501    0  0.22418391161E+02  0.15498339907E+02 -0.40979924466E+01  0.27560412628E+02  0.00000000000E+00 0. -1.
<scales pt_clust_5="13000.00000" pt_clust_6="13000.00000" pt_clust_7="13000.00000" pt_clust_8="13000.00000" pt_clust_9="27.25404"></scales>
<clustering>
<clus scale="   27.254">  1  9  2 -1</clus>
<clus scale="   90.078">  7  8 -1 -1</clus>
<clus scale="   90.317">  5  6 -1 -1</clus>
<clus scale="  120.197">  2  7  1 -1</clus>
<clus scale="   27.254">  1  5  2 -1</clus>
</clustering>
</event>
<event>
 9    1  0.1445593E-005  0.1081273E+03  0.7546771E-02  0.1270724E+00
         -3   -1    0    0    0  501 -0.00000000000E+00  0.00000000000E+00  0.25633208686E+03  0.25633208686E+03  0.00000000000E+00 0.  1.
         21   -1    0    0  501  502  0.00000000000E+00 -0.00000000000E+00 -0.66997388798E+02  0.66997388798E+02  0.00000000000E+00 0. -1.
         23    2    1    2    0    0  0.25339141950E+02  0.25888175740E+02  0.13099482462E+03  0.16953900987E+03  0.10134871501E+03 0.  0.
         23    2    1    2    0    0 -0.50356557171E+02  0.49768743084E+01  0.52277864213E+02  0.11360003988E+03  0.87243577673E+02 0.  0.
        -11    1    4    4    0    0 -0.54083494881E+02  0.38367113068E+02  0.41888310596E+02  0.78432712234E+02  0.00000000000E+00 0. -1.
         11    1    4    4    0    0  0.37269377107E+01 -0.33390238760E+02  0.10389553617E+02  0.35167327643E+02  0.00000000000E+00 0.  1.
        -13    1    3    3    0    0  0.32837454710E+02  0.59289819837E+02  0.11053064398E+03  0.12965571498E+03  0.00000000000E+00 0.  1.
         13    1    3    3    0    0 -0.74983127594E+01 -0.33401644097E+02  0.20464180638E+02  0.39883294896E+02  0.00000000000E+00 0. -1.
         -3    1    1    2    0  502  0.25017415220E+02 -0.30865050048E+02  0.60620092346E+01  0.40190425909E+02  0.00000000000E+00 0.  1.
<scales pt_clust_5="13000.00000" pt_clust_6="13000.00000" pt_clust_7="13000.00000" pt_clust_8="13000.00000" pt_clust_9="39.73062"></scales>
<clustering>
<clus scale="   39.731">  2  9  1 -1</clus>
<clus scale="   87.244">  5  6 -1 -1</clus>
<clus scale="   95.034">  2  5  1 -1</clus>
<clus scale="  101.349">  7  8 -1 -1</clus>
<clus scale="   39.731">  2  5  1 -1</clus>
</clustering>
</event>
<event>
 9    1  0.1445593E-005  0.2398573E+03  0.7546771E-02  0.1121381E+00
         21   -1    0    0  501  502  0.00000000000E+00  0.00000000000E+00  0.84536899775E+02  0.84536899775E+02  0.00000000000E+00 0.  1.
          1   -1    0    0  502    0 -0.00000000000E+00 -0.00000000000E+00 -0.11396980559E+04  0.11396980559E+04  0.00000000000E+00 0. -1.
         23    2    1    2    0    0 -0.12290454982E+03  0.16353940304E+03 -0.67353612220E+03  0.71018231903E+03  0.94113514698E+02 0.  0.
         23    2    1    2    0    0  0.17628139455E+03 -0.19218509275E+03 -0.35982441196E+03  0.44967150425E+03  0.68706727143E+02 0.  0.
        -11    1    4    4    0    0  0.40489920610E+02 -0.10220222893E+02 -0.69888375852E+02  0.81414198431E+02  0.00000000000E+00 0. -1.
         11    1    4    4    0    0  0.13579147394E+03 -0.18196486985E+03 -0.28993603611E+03  0.36825730582E+03  0.00000000000E+00 0.  1.
        -13    1    3    3    0    0 -0.33506777536E+02  0.15513727914E+02 -0.44574113965E+02  0.57881184597E+02  0.00000000000E+00 0.  1.
         13    1    3    3    0    0 -0.89397772284E+02  0.14802567512E+03 -0.62896200823E+03  0.65230113444E+03  0.00000000000E+00 0. -1.
          1    1    1    2  501    0 -0.53376844727E+02  0.28645689712E+02 -0.21800621991E+02  0.64381132417E+02  0.00000000000E+00 0. -1.
<scales pt_clust_5="13000.00000" pt_clust_6="13000.00000" pt_clust_7="13000.00000" pt_clust_8="13000.00000" pt_clust_9="60.57774"></scales>
<clustering>
<clus scale="   60.578">  1  9  2 -1</clus>
<clus scale="   68.707">  5  6 -1 -1</clus>
<clus scale="   94.114">  7  8 -1 -1</clus>
<clus scale="  231.073">  1  5  2 -1</clus>
<clus scale="   60.578">  1  5  2 -1</clus>
</clustering>
</event>
<event>
 9    1  0.1445593E-005  0.2016163E+03  0.7546771E-02  0.1149516E+00
          2   -1    0    0  502    0 -0.00000000000E+00  0.00000000000E+00  0.60662805533E+03  0.60662805533E+03  0.00000000000E+00 0. -1.
         21   -1    0    0  501  502  0.00000000000E+00 -0.00000000000E+00 -0.17156326497E+03  0.17156326497E+03  0.00000000000E+00 0. -1.
         23    2    1    2    0    0 -0.17034408238E+03 -0.87449441732E+02  0.39483523998E+03  0.44655461829E+03  0.82774688912E+02 0.  0.
         23    2    1    2    0    0  0.12315230753E+03  0.95209543622E+02  0.13411516397E+03  0.22627166399E+03  0.94766242267E+02 0.  0.
        -11    1    3    3    0    0 -0.66003865803E+02 -0.24041976447E+02  0.68456108384E+02  0.98085502025E+02  0.00000000000E+00 0.  1.
         11    1    3    3    0    0 -0.10434021658E+03 -0.63407465285E+02  0.32637913159E+03  0.34846911626E+03  0.00000000000E+00 0. -1.
        -11    1    4    4    0    0  0.75773424003E+01  0.60854127862E+02  0.38722846555E+02  0.72526545768E+02  0.00000000000E+00 0. -1.
         11    1    4    4    0    0  0.11557496513E+03  0.34355415760E+02  0.95392317416E+02  0.15374511823E+03  0.00000000000E+00 0.  1.
          2    1    1    2  501    0  0.47191774855E+02 -0.77601018903E+01 -0.93885613591E+02  0.10536503801E+03  0.00000000000E+00 0. -1.
<scales pt_clust_5="13000.00000" pt_clust_6="13000.00000" pt_clust_7="13000.00000" pt_clust_8="13000.00000" pt_clust_9="47.82555"></scales>
<clustering>
<clus scale="   47.826">  2  9  1 -1</clus>
<clus scale="   82.775">  5  6 -1 -1</clus>
<clus scale="   94.766">  7  8 -1 -1</clus>
<clus scale="  196.265">  1  5  2 -1</clus>
<clus scale="   47.826">  2  5  1 -1</clus>
</clustering>
</event>
<event>
 9    1  0.1445593E-005  0.9347891E+02  0.7546771E-02  0.1294868E+00
          3   -1    0    0  502    0 -0.00000000000E+00  0.00000000000E+00  0.33538878356E+03  0.33538878356E+03  0.00000000000E+00 0. -1.
         21   -1    0    0  501  502  0.00000000000E+00 -0.00000000000E+00 -0.40993516762E+02  0.40993516762E+02  0.00000000000E+00 0. -1.
         23    2    1    2    0    0  0.20340788458E+02 -0.14534449167E+02  0.21060029165E+03  0.23086397485E+03  0.91217839001E+02 0.  0.
         23    2    1    2    0    0  0.51880695073E+01  0.19013323662E+02  0.62705259286E+02  0.11210337342E+03  0.90811861823E+02 0.  0.
        -11    1    4    4    0    0 -0.27873035668E+02  0.43582423576E+02  0.35258975477E+02  0.62606142780E+02  0.00000000000E+00 0.  1.
         11    1    4    4    0    0  0.33061105175E+02 -0.24569099914E+02  0.27446283809E+02  0.49497230639E+02  0.00000000000E+00 0. -1.
        -13    1    3    3    0    0  0.30600852749E+02  0.23845307417E+02  0.40092013497E+02  0.55788712308E+02  0.00000000000E+00 0. -1.
         13    1    3    3    0    0 -0.10260064291E+02 -0.38379756584E+02  0.17050827815E+03  0.17507526254E+03  0.00000000000E+00 0.  1.
          3    1    1    2  501    0 -0.25528857965E+02 -0.44788744948E+01  0.21089715862E+02  0.33414952056E+02  0.00000000000E+00 0. -1.
<scales pt_clust_5="13000.00000" pt_clust_6="13000.00000" pt_clust_7="13000.00000" pt_clust_8="13000.00000" pt_clust_9="25.91878"></scales>
<clustering>
<clus scale="   25.919">  2  9  1 -1</clus>
<clus scale="   90.812">  5  6 -1 -1</clus>
<clus scale="   91.218">  7  8 -1 -1</clus>
<clus scale="   93.083">  2  5  1 -1</clus>
<clus scale="   25.919">  2  5  1 -1</clus>
</clustering>
</event>
<event>
 9    1  0.1445593E-005  0.2309234E+03  0.7546771E-02  0.1154137E+00
         21   -1    0    0  501  502  0.00000000000E+00  0.00000000000E+00  0.12475823495E+03  0.12475823495E+03  0.00000000000E+00 0. -1.
          2   -1    0    0  502    0 -0.00000000000E+00 -0.00000000000E+00 -0.77554684089E+03  0.77554684089E+03  0.00000000000E+00 0. -1.
         23    2    1    2    0    0 -0.22358170713E+02  0.74308958597E+02 -0.89053675496E+02  0.14712785133E+03  0.87717377940E+02 0.  0.
         23    2    1    2    0    0  0.10555393871E+03  0.13834386745E+03 -0.46622137616E+03  0.50565833778E+03  0.89706874503E+02 0.  0.
        -11    1    3    3    0    0 -0.42859877813E+02  0.79843957711E+02 -0.52161159067E+02  0.10456009384E+03  0.00000000000E+00 0. -1.
         11    1    3    3    0    0  0.20501707100E+02 -0.55349991145E+01 -0.36892516429E+02  0.42567757489E+02  0.00000000000E+00 0.  1.
        -11    1    4    4    0    0  0.92080046657E+02  0.59480387348E+02 -0.32940766557E+03  0.34716863569E+03  0.00000000000E+00 0. -1.
         11    1    4    4    0    0  0.13473892052E+02  0.78863480100E+02 -0.13681371059E+03  0.15848970208E+03  0.00000000000E+00 0.  1.
          2    1    1    2  501    0 -0.83195767997E+02 -0.21265282605E+03 -0.95513554284E+02  0.24751888673E+03  0.00000000000E+00 0. -1.
<scales pt_clust_5="13000.00000" pt_clust_6="13000.00000" pt_clust_7="13000.00000" pt_clust_8="13000.00000" pt_clust_9="212.78697"></scales>
<clustering>
<clus scale="   87.717">  5  6 -1 -1</clus>
<clus scale="   89.707">  7  8 -1 -1</clus>
<clus scale="  117.116">  2  5  1 -1</clus>
<clus scale="  212.787">  1  9  2 -1</clus>
<clus scale="  212.787">  1  5  2 -1</clus>
</clustering>
</event>
<event>
 9    1  0.1445593E-005  0.9518917E+02  0.7546771E-02  0.1292214E+00
         21   -1    0    0  501  502  0.00000000000E+00  0.00000000000E+00  0.41515856053E+03  0.41515856053E+03  0.00000000000E+00 0. -1.
          4   -1    0    0  502    0 -0.00000000000E+00 -0.00000000000E+00 -0.39670231837E+02  0.39670231837E+02  0.00000000000E+00 0. -1.
         23    2    1    2    0    0  0.30872620141E+02  0.23482504882E+02  0.11029330285E+03  0.14846104390E+03  0.91496022815E+02 0.  0.
         23    2    1    2    0    0  0.11398399885E+02  0.48940361760E+01  0.12318050008E+03  0.15550293235E+03  0.94094905595E+02 0.  0.
        -11    1    3    3    0    0  0.44620207140E+02  0.49968278035E+02  0.59748123611E+02  0.89764302315E+02  0.00000000000E+00 0. -1.
         11    1    3    3    0    0 -0.13747586999E+02 -0.26485773153E+02  0.50545179241E+02  0.58696741582E+02  0.00000000000E+00 0.  1.
        -13    1    4    4    0    0 -0.32448713059E+02 -0.84354974042E+00  0.99605007245E+01  0.33953528978E+02  0.00000000000E+00 0.  1.
         13    1    4    4    0    0  0.43847112944E+02  0.57375859164E+01  0.11321999935E+03  0.12154940337E+03  0.00000000000E+00 0. -1.
          4    1    1    2  501    0 -0.42271020025E+02 -0.28376541058E+02  0.14201452576E+03  0.15086481612E+03  0.00000000000E+00 0. -1.
<scales pt_clust_5="13000.00000" pt_clust_6="13000.00000" pt_clust_7="13000.00000" pt_clust_8="13000.00000" pt_clust_9="50.91235"></scales>
<clustering>
<clus scale="   50.912">  1  9  2 -1</clus>
<clus scale="   91.496">  5  6 -1 -1</clus>
<clus scale="   92.621">  2  5  1 -1</clus>
<clus scale="   94.095">  7  8 -1 -1</clus>
<clus scale="   50.912">  1  5  2 -1</clus>
</clustering>
</event>
<event>
 9    1  0.1445593E-005  0.1381609E+03  0.7546771E-02  0.1217208E+00
         21   -1    0    0  501  502  0.00000000000E+00  0.00000000000E+00  0.21426255133E+03  0.21426255133E+03  0.00000000000E+00 0. -1.
         -3   -1    0    0    0  501 -0.00000000000E+00 -0.00000000000E+00 -0.12457917156E+03  0.12457917156E+03  0.00000000000E+00 0.  1.
         23    2    1    2    0    0  0.76976511460E+02 -0.62562282212E+02 -0.93232167915E+01  0.13810376768E+03  0.95636320530E+02 0.  0.
         23    2    1    2    0    0 -0.98106649718E+02  0.35979611933E+02  0.93064879922E+02  0.16626441319E+03  0.89796080234E+02 0.  0.
        -11    1    3    3    0    0  0.82598759780E+01  0.18282078614E+02  0.19685937585E+02  0.28106869058E+02  0.00000000000E+00 0. -1.
         11    1    3    3    0    0  0.68716635482E+02 -0.80844360826E+02 -0.29009154377E+02  0.10999689862E+03  0.00000000000E+00 0.  1.
        -11    1    4    4    0    0 -0.10789840511E+03  0.11826882963E+02  0.87953142578E+02  0.13970574890E+03  0.00000000000E+00 0. -1.
         11    1    4    4    0    0  0.97917553922E+01  0.24152728970E+02  0.51117373444E+01  0.26558664293E+02  0.00000000000E+00 0.  1.
         -3    1    1    2    0  502  0.21130138258E+02  0.26582670279E+02  0.59417166417E+01  0.34473542009E+02  0.00000000000E+00 0.  1.
<scales pt_clust_5="13000.00000" pt_clust_6="13000.00000" pt_clust_7="13000.00000" pt_clust_8="13000.00000" pt_clust_9="33.95765"></scales>
<clustering>
<clus scale="   33.958">  1  9  2 -1</clus>
<clus scale="   89.796">  7  8 -1 -1</clus>
<clus scale="   95.636">  5  6 -1 -1</clus>
<clus scale="  134.184">  1  7  2 -1</clus>
<clus scale="   33.958">  1  5  2 -1</clus>
</clustering>
</event>
<event>
 9    1  0.1445593E-005  0.1054469E+03  0.7546771E-02  0.1270236E+00
         21   -1    0    0  501  502  0.00000000000E+00  0.00000000000E+00  0.27211126754E+03  0.27211126754E+03  0.00000000000E+00 0.  1.
          2   -1    0    0  502    0 -0.00000000000E+00 -0.00000000000E+00 -0.26605284354E+03  0.26605284354E+03  0.00000000000E+00 0. -1.
         23    2    1    2    0    0  0.51209932276E+02  0.15033449316E+02 -0.22391194022E+03  0.24767415935E+03  0.91419201876E+02 0.  0.
         23    2    1    2    0    0 -0.38612105086E+02  0.72991910765E+01  0.24295956781E+03  0.26174675277E+03  0.89094546097E+02 0.  0.
        -13    1    4    4    0    0 -0.50019867218E+02 -0.16221428654E+02  0.22227952634E+03  0.22841477556E+03  0.00000000000E+00 0.  1.
         13    1    4    4    0    0  0.11407762133E+02  0.23520619730E+02  0.20680041470E+02  0.33331977207E+02  0.00000000000E+00 0. -1.
        -13    1    3    3    0    0  0.45574046875E+02 -0.19836086404E+02 -0.51086879106E+02  0.71276456766E+02  0.00000000000E+00 0.  1.
         13    1    3    3    0    0  0.56358854015E+01  0.34869535720E+02 -0.17282506112E+03  0.17639770258E+03  0.00000000000E+00 0. -1.
          2    1    1    2  501    0 -0.12597827190E+02 -0.22332640392E+02 -0.12989203593E+02  0.28743198966E+02  0.00000000000E+00 0. -1.
<scales pt_clust_5="13000.00000" pt_clust_6="13000.00000" pt_clust_7="13000.00000" pt_clust_8="13000.00000" pt_clust_9="25.64084"></scales>
<clustering>
<clus scale="   25.641">  1  9  2 -1</clus>
<clus scale="   89.095">  5  6 -1 -1</clus>
<clus scale="   91.419">  7  8 -1 -1</clus>
<clus scale="  103.438">  1  5  2 -1</clus>
<clus scale="   25.641">  1  5  2 -1</clus>
</clustering>
</event>
<event>
 9    1  0.1445593E-005  0.1001259E+03  0.7546771E-02  0.1280147E+00
         21   -1    0    0  501  502  0.00000000000E+00  0.00000000000E+00  0.13392786603E+03  0.13392786603E+03  0.00000000000E+00 0. -1.
         -3   -1    0    0    0  501 -0.00000000000E+00 -0.00000000000E+00 -0.11406692653E+03  0.11406692653E+03  0.00000000000E+00 0.  1.
         23    2    1    2    0    0  0.31357319156E+02  0.10007793258E+02 -0.18679381776E+02  0.97242422861E+02  0.89575287383E+02 0.  0.
         23    2    1    2    0    0 -0.54295358402E+02 -0.31108762866E+02  0.12579593552E+02  0.11018928369E+03  0.89820326176E+02 0.  0.
        -13    1    4    4    0    0  0.16535248527E+02 -0.34443953572E+02  0.20112523485E+00  0.38207863495E+02  0.00000000000E+00 0.  1.
         13    1    4    4    0    0 -0.70830606929E+02  0.33351907060E+01  0.12378468317E+02  0.71981420192E+02  0.00000000000E+00 0. -1.
        -13    1    3    3    0    0  0.51274120358E+02 -0.86139764499E+01 -0.37505309960E+02  0.64108379202E+02  0.00000000000E+00 0.  1.
         13    1    3    3    0    0 -0.19916801202E+02  0.18621769708E+02  0.18825928184E+02  0.33134043658E+02  0.00000000000E+00 0. -1.
         -3    1    1    2    0  502  0.22938039245E+02  0.21100969607E+02  0.25960727727E+02  0.40563086013E+02  0.00000000000E+00 0.  1.
<scales pt_clust_5="13000.00000" pt_clust_6="13000.00000" pt_clust_7="13000.00000" pt_clust_8="13000.00000" pt_clust_9="31.16736"></scales>
<clustering>
<clus scale="   31.167">  1  9  2 -1</clus>
<clus scale="   89.575">  7  8 -1 -1</clus>
<clus scale="   89.820">  5  6 -1 -1</clus>
<clus scale="   99.906">  2  7  1 -1</clus>
<clus scale="   31.167">  1  5  2 -1</clus>
</clustering>
</event>
<event>
 9    1  0.1445593E-005  0.1133484E+03  0.7546771E-02  0.1257560E+00
          1   -1    0    0  502    0 -0.00000000000E+00  0.00000000000E+00  0.58162888138E+03  0.58162888138E+03  0.00000000000E+00 0. -1.
         21   -1    0    0  501  502  0.00000000000E+00 -0.00000000000E+00 -0.26346540005E+02  0.26346540005E+02  0.00000000000E+00 0.  1.
         23    2    1    2    0    0  0.37510785602E+02 -0.62188433237E+02  0.35190889780E+03  0.37124288609E+03  0.93311027549E+02 0.  0.
         23    2    1    2    0    0 -0.22443157289E+02  0.48098709831E+02  0.17424566604E+03  0.20103966271E+03  0.85077685988E+02 0.  0.
        -11    1    4    4    0    0 -0.30393781827E+02 -0.11779625895E+02  0.10083356250E+03  0.10597145317E+03  0.00000000000E+00 0. -1.
         11    1    4    4    0    0  0.79506245382E+01  0.59878335726E+02  0.73412103541E+02  0.95068209545E+02  0.00000000000E+00 0.  1.
        -11    1    3    3    0    0  0.35553495367E+02  0.10693749081E+02  0.61639955305E+02  0.71957566609E+02  0.00000000000E+00 0. -1.
         11    1    3    3    0    0  0.19572902342E+01 -0.72882182318E+02  0.29026894249E+03  0.29928531948E+03  0.00000000000E+00 0.  1.
          1    1    1    2  501    0 -0.15067628313E+02  0.14089723406E+02  0.29127777542E+02  0.35692872582E+02  0.00000000000E+00 0. -1.
<scales pt_clust_5="13000.00000" pt_clust_6="13000.00000" pt_clust_7="13000.00000" pt_clust_8="13000.00000" pt_clust_9="20.62895"></scales>
<clustering>
<clus scale="   20.629">  2  9  1 -1</clus>
<clus scale="   85.078">  5  6 -1 -1</clus>
<clus scale="   93.311">  7  8 -1 -1</clus>
<clus scale="  106.673">  2  5  1 -1</clus>
<clus scale="   20.629">  2  5  1 -1</clus>
</clustering>
</event>
<event>
 9    1  0.1445593E-005  0.1054567E+03  0.7546771E-02  0.1272592E+00
          2   -1    0    0  502    0 -0.00000000000E+00  0.00000000000E+00  0.36330460710E+03  0.36330460710E+03  0.00000000000E+00 0. -1.
         21   -1    0    0  501  502  0.00000000000E+00 -0.00000000000E+00 -0.10485781391E+03  0.10485781391E+03  0.00000000000E+00 0.  1.
         23    2    1    2    0    0 -0.78699795072E+01  0.41895746957E+02  0.30142210476E+03  0.31739387651E+03  0.89813124979E+02 0.  0.
         23    2    1    2    0    0  0.33840822184E+02 -0.23635964700E+02 -0.11581571121E+02  0.10612023818E+03  0.97074775760E+02 0.  0.
        -11    1    3    3    0    0  0.91583974332E+00 -0.24698475960E+02  0.36442878367E+02  0.44033360772E+02  0.00000000000E+00 0.  1.
         11    1    3    3    0    0 -0.87858192505E+01  0.66594222916E+02  0.26497922639E+03  0.27336051574E+03  0.00000000000E+00 0. -1.
        -13    1    4    4    0    0  0.57517362883E+02 -0.25262202567E+02 -0.35722895831E+02  0.72267220772E+02  0.00000000000E+00 0.  1.
         13    1    4    4    0    0 -0.23676540698E+02  0.16262378670E+01  0.24141324710E+02  0.33853017411E+02  0.00000000000E+00 0. -1.
          2    1    1    2  501    0 -0.25970842677E+02 -0.18259782257E+02 -0.31393740445E+02  0.44648306312E+02  0.00000000000E+00 0. -1.
<scales pt_clust_5="13000.00000" pt_clust_6="13000.00000" pt_clust_7="13000.00000" pt_clust_8="13000.00000" pt_clust_9="31.74751"></scales>
<clustering>
<clus scale="   31.748">  2  9  1 -1</clus>
<clus scale="   89.813">  5  6 -1 -1</clus>
<clus scale="   97.075">  7  8 -1 -1</clus>
<clus scale="   98.813">  1  5  2 -1</clus>
<clus scale="   31.748">  2  5  1 -1</clus>
</clustering>
</event>
<event>
 9    1  0.1445593E-005  0.1310222E+03  0.7546771E-02  0.1227240E+00
          2   -1    0    0  502    0 -0.00000000000E+00  0.00000000000E+00  0.16765157170E+03  0.16765157170E+03  0.00000000000E+00 0. -1.
         21   -1    0    0  501  502  0.00000000000E+00 -0.00000000000E+00 -0.15621800413E+03  0.15621800413E+03  0.00000000000E+00 0. -1.
         23    2    1    2    0    0  0.10144655627E+03  0.56860327685E+02  0.30523526563E+02  0.14985695248E+03  0.89447861292E+02 0.  0.
         23    2    1    2    0    0 -0.44289065542E+02 -0.49269431716E+02 -0.11168951271E+02  0.11581174009E+03  0.94332472895E+02 0.  0.
        -11    1    3    3    0    0  0.71927940755E+02 -0.42608200633E+01 -0.68379640907E+01  0.72377765935E+02  0.00000000000E+00 0. -1.
         11    1    3    3    0    0  0.29518615514E+02  0.61121147748E+02  0.37361490654E+02  0.77479186545E+02  0.00000000000E+00 0.  1.
        -11    1    4    4    0    0 -0.65349763699E+01 -0.43203013832E+02  0.34913885407E+02  0.55930186076E+02  0.00000000000E+00 0. -1.
         11    1    4    4    0    0 -0.37754089172E+02 -0.60664178849E+01 -0.46082836677E+02  0.59881554016E+02  0.00000000000E+00 0.  1.
          2    1    1    2  501    0 -0.57157490726E+02 -0.75908959682E+01 -0.79210077235E+01  0.58200883250E+02  0.00000000000E+00 0. -1.
<scales pt_clust_5="13000.00000" pt_clust_6="13000.00000" pt_clust_7="13000.00000" pt_clust_8="13000.00000" pt_clust_9="57.65935"></scales>
<clustering>
<clus scale="   57.659">  2  9  1 -1</clus>
<clus scale="   89.448">  5  6 -1 -1</clus>
<clus scale="   94.332">  7  8 -1 -1</clus>
<clus scale="  127.551">  1  5  2 -1</clus>
<clus scale="   57.659">  2  5  1 -1</clus>
</clustering>
</event>
<event>
 9    1  0.1445593E-005  0.1214083E+03  0.7546771E-02  0.1241091E+00
         21   -1    0    0  501  502  0.00000000000E+00  0.00000000000E+00  0.60126249340E+03  0.60126249340E+03  0.00000000000E+00 0.  1.
         -3   -1    0    0    0  501 -0.00000000000E+00 -0.00000000000E+00 -0.25884023394E+03  0.25884023394E+03  0.00000000000E+00 0.  1.
         23    2    1    2    0    0  0.90569611482E+01  0.78226756012E+02 -0.21937967325E+03  0.25045306878E+03  0.91639755147E+02 0.  0.
         23    2    1    2    0    0 -0.55171552393E+02 -0.84660847204E+02  0.18228161321E+03  0.22728383115E+03  0.90664183363E+02 0.  0.
        -11    1    3    3    0    0  0.30224046523E+02  0.43093062325E+02 -0.39108022996E+02  0.65573946591E+02  0.00000000000E+00 0. -1.
         11    1    3    3    0    0 -0.21167085375E+02  0.35133693687E+02 -0.18027165026E+03  0.18487912219E+03  0.00000000000E+00 0.  1.
        -13    1    4    4    0    0 -0.34268428131E+02 -0.68313439979E+02  0.18542885547E+03  0.20056149105E+03  0.00000000000E+00 0. -1.
         13    1    4    4    0    0 -0.20903124262E+02 -0.16347407225E+02 -0.31472422611E+01  0.26722340106E+02  0.00000000000E+00 0.  1.
         -3    1    1    2    0  502  0.46114591244E+02  0.64340911927E+01  0.37952031950E+03  0.38236582740E+03  0.00000000000E+00 0.  1.
<scales pt_clust_5="13000.00000" pt_clust_6="13000.00000" pt_clust_7="13000.00000" pt_clust_8="13000.00000" pt_clust_9="46.56128"></scales>
<clustering>
<clus scale="   46.561">  1  9  2 -1</clus>
<clus scale="   90.664">  7  8 -1 -1</clus>
<clus scale="   91.640">  5  6 -1 -1</clus>
<clus scale="  120.674">  1  7  2 -1</clus>
<clus scale="   46.561">  1  5  2 -1</clus>
</clustering>
</event>
<event>
 9    1  0.1445593E-005  0.9407901E+02  0.7546771E-02  0.1293724E+00
         -2   -1    0    0    0  501 -0.00000000000E+00  0.00000000000E+00  0.24611155683E+02  0.24611155683E+02  0.00000000000E+00 0.  1.
         21   -1    0    0  501  502  0.00000000000E+00 -0.00000000000E+00 -0.53555141165E+03  0.53555141165E+03  0.00000000000E+00 0. -1.
         23    2    1    2    0    0 -0.79164250471E+01  0.20771403951E+02 -0.16886730043E+03  0.19374737319E+03  0.92345863225E+02 0.  0.
         23    2    1    2    0    0 -0.67876668225E+01 -0.50703583336E+01 -0.17936214923E+03  0.20228859777E+03  0.93156402113E+02 0.  0.
        -11    1    4    4    0    0 -0.43891144732E+02  0.20248625163E+02 -0.10083365545E+03  0.11182068448E+03  0.00000000000E+00 0. -1.
         11    1    4    4    0    0  0.37103477909E+02 -0.25318983496E+02 -0.78528493786E+02  0.90467913287E+02  0.00000000000E+00 0.  1.
        -11    1    3    3    0    0 -0.32209479696E+02 -0.14974945370E+02 -0.13275976321E+03  0.13742945208E+03  0.00000000000E+00 0. -1.
         11    1    3    3    0    0  0.24293054649E+02  0.35746349321E+02 -0.36107537223E+02  0.56317921111E+02  0.00000000000E+00 0.  1.
         -2    1    1    2    0  502  0.14704091870E+02 -0.15701045617E+02 -0.16271080630E+03  0.16412659638E+03  0.00000000000E+00 0.  1.
<scales pt_clust_5="13000.00000" pt_clust_6="13000.00000" pt_clust_7="13000.00000" pt_clust_8="13000.00000" pt_clust_9="21.51123"></scales>
<clustering>
<clus scale="   21.511">  2  9  1 -1</clus>
<clus scale="   92.346">  7  8 -1 -1</clus>
<clus scale="   93.156">  5  6 -1 -1</clus>
<clus scale="   93.276">  1  7  2 -1</clus>
<clus scale="   21.511">  2  5  1 -1</clus>
</clustering>
</event>
<event>
 9    1  0.1445593E-005  0.9786122E+02  0.7546771E-02  0.1285067E+00
          1   -1    0    0  502    0 -0.00000000000E+00  0.00000000000E+00  0.17612336205E+03  0.17612336205E+03  0.00000000000E+00 0. -1.
         21   -1    0    0  501  502  0.00000000000E+00 -0.00000000000E+00 -0.12094484599E+03  0.12094484599E+03  0.00000000000E+00 0.  1.
         23    2    1    2    0    0 -0.24903531581E+02  0.12524217040E+02  0.10819913994E+03  0.14454297367E+03  0.91698284921E+02 0.  0.
         23    2    1    2    0    0  0.55453176573E+02 -0.18716858212E+02 -0.26574267982E+02  0.11164688614E+03  0.91287786108E+02 0.  0.
        -11    1    4    4    0    0  0.24080482353E+02  0.33166038601E+01  0.32888836600E+02  0.40896761051E+02  0.00000000000E+00 0. -1.
         11    1    4    4    0    0  0.31372694220E+02 -0.22033462072E+02 -0.59463104582E+02  0.70750125089E+02  0.00000000000E+00 0.  1.
        -13    1    3    3    0    0 -0.21480936541E+02 -0.36505110496E+02  0.71878867130E+02  0.83430361781E+02  0.00000000000E+00 0.  1.
         13    1    3    3    0    0 -0.34225950404E+01  0.49029327536E+02  0.36320272807E+02  0.61112611892E+02  0.00000000000E+00 0. -1.
          1    1    1    2  501    0 -0.30549644992E+02  0.61926411722E+01 -0.26446355898E+02  0.40878348231E+02  0.00000000000E+00 0. -1.
<scales pt_clust_5="13000.00000" pt_clust_6="13000.00000" pt_clust_7="13000.00000" pt_clust_8="13000.00000" pt_clust_9="31.17097"></scales>
<clustering>
<clus scale="   31.171">  2  9  1 -1</clus>
<clus scale="   91.288">  5  6 -1 -1</clus>
<clus scale="   91.698">  7  8 -1 -1</clus>
<clus scale="   97.477">  2  5  1 -1</clus>
<clus scale="   31.171">  2  5  1 -1</clus>
</clustering>
</event>
<event>
 9    1  0.1445593E-005  0.1310877E+03  0.7546771E-02  0.1226299E+00
          1   -1    0    0  502    0 -0.00000000000E+00  0.00000000000E+00  0.36677743494E+03  0.36677743494E+03  0.00000000000E+00 0. -1.
         21   -1    0    0  501  502  0.00000000000E+00 -0.00000000000E+00 -0.10348681763E+03  0.10348681763E+03  0.00000000000E+00 0.  1.
         23    2    1    2    0    0 -0.94940657399E+02 -0.47960556421E+02  0.24488444937E+03  0.28191643798E+03  0.90523704405E+02 0.  0.
         23    2    1    2    0    0  0.34773250316E+02  0.70644623045E+02  0.31435462367E+02  0.12273953563E+03  0.88752259751E+02 0.  0.
        -11    1    4    4    0    0  0.24487704737E+02 -0.50008172628E+01 -0.18867527432E+02  0.31315163228E+02  0.00000000000E+00 0. -1.
         11    1    4    4    0    0  0.10285545579E+02  0.75645440308E+02  0.50302989799E+02  0.91424372407E+02  0.00000000000E+00 0.  1.
        -13    1    3    3    0    0 -0.91776955133E+02 -0.20560890995E+02  0.23412595341E+03  0.25231076432E+03  0.00000000000E+00 0.  1.
         13    1    3    3    0    0 -0.31637022667E+01 -0.27399665426E+02  0.10758495964E+02  0.29605673660E+02  0.00000000000E+00 0. -1.
          1    1    1    2  501    0  0.60167407083E+02 -0.22684066624E+02 -0.13029294437E+02  0.65608278953E+02  0.00000000000E+00 0. -1.
<scales pt_clust_5="13000.00000" pt_clust_6="13000.00000" pt_clust_7="13000.00000" pt_clust_8="13000.00000" pt_clust_9="64.30151"></scales>
<clustering>
<clus scale="   64.302">  2  9  1 -1</clus>
<clus scale="   88.752">  5  6 -1 -1</clus>
<clus scale="   90.524">  7  8 -1 -1</clus>
<clus scale="  129.871">  2  5  1 -1</clus>
<clus scale="   64.302">  2  5  1 -1</clus>
</clustering>
</event>
<event>
 9    1  0.1445593E-005  0.1290589E+03  0.7546771E-02  0.1230497E+00
         21   -1    0    0  501  502  0.00000000000E+00  0.00000000000E+00  0.93803749571E+03  0.93803749571E+03  0.00000000000E+00 0. -1.
          1   -1    0    0  502    0 -0.00000000000E+00 -0.00000000000E+00 -0.34934077104E+02  0.34934077104E+02  0.00000000000E+00 0. -1.
         23    2    1    2    0    0 -0.83394313481E+02 -0.36249327534E+02  0.15601913639E+03  0.20300224344E+03  0.92732489738E+02 0.  0.
         23    2    1    2    0    0  0.32378676384E+02  0.65984486584E+02  0.57680475189E+03  0.58974199138E+03  0.98435580166E+02 0.  0.
        -11    1    3    3    0    0  0.49058669370E+01  0.21252680133E+02  0.13119936324E+02  0.25453421624E+02  0.00000000000E+00 0.  1.
         11    1    3    3    0    0 -0.88300180418E+02 -0.57502007668E+02  0.14289920006E+03  0.17754882181E+03  0.00000000000E+00 0. -1.
        -13    1    4    4    0    0 -0.33297037621E+02  0.70310333816E+01  0.18700686519E+03  0.19007813070E+03  0.00000000000E+00 0.  1.
         13    1    4    4    0    0  0.65675714004E+02  0.58953453203E+02  0.38979788671E+03  0.39966386068E+03  0.00000000000E+00 0. -1.
          1    1    1    2  501    0  0.51015637097E+02 -0.29735159050E+02  0.17027953033E+03  0.18022733799E+03  0.00000000000E+00 0. -1.
<scales pt_clust_5="13000.00000" pt_clust_6="13000.00000" pt_clust_7="13000.00000" pt_clust_8="13000.00000" pt_clust_9="59.04892"></scales>
<clustering>
<clus scale="   59.049">  1  9  2 -1</clus>
<clus scale="   92.732">  5  6 -1 -1</clus>
<clus scale="   98.436">  7  8 -1 -1</clus>
<clus scale="  124.764">  2  5  1 -1</clus>
<clus scale="   59.049">  1  5  2 -1</clus>
</clustering>
</event>
<event>
 9    1  0.1445593E-005  0.9795199E+02  0.7546771E-02  0.1286153E+00
         21   -1    0    0  501  502  0.00000000000E+00  0.00000000000E+00  0.12855379316E+03  0.12855379316E+03  0.00000000000E+00 0. -1.
         -1   -1    0    0    0  501 -0.00000000000E+00 -0.00000000000E+00 -0.13855167710E+03  0.13855167710E+03  0.00000000000E+00 0.  1.
         23    2    1    2    0    0 -0.32415013358E+02  0.34505127621E+01 -0.79743640732E+02  0.12735759632E+03  0.93799093667E+02 0.  0.
         23    2    1    2    0    0  0.14288442068E+02  0.16905138122E+02  0.50345802353E+02  0.10629218173E+03  0.90958148672E+02 0.  0.
        -11    1    3    3    0    0 -0.10230440742E+02 -0.27649176161E+02 -0.83901777138E+02  0.88930574422E+02  0.00000000000E+00 0.  1.
         11    1    3    3    0    0 -0.22184572616E+02  0.31099688923E+02  0.41581364052E+01  0.38427021894E+02  0.00000000000E+00 0. -1.
        -11    1    4    4    0    0  0.48999611539E+02 -0.20247505334E+01  0.10487065412E+02  0.50150175340E+02  0.00000000000E+00 0.  1.
         11    1    4    4    0    0 -0.34711169471E+02  0.18929888656E+02  0.39858736941E+02  0.56142006386E+02  0.00000000000E+00 0. -1.
         -1    1    1    2    0  502  0.18126571290E+02 -0.20355650884E+02  0.19399954434E+02  0.33455692217E+02  0.00000000000E+00 0.  1.
<scales pt_clust_5="13000.00000" pt_clust_6="13000.00000" pt_clust_7="13000.00000" pt_clust_8="13000.00000" pt_clust_9="27.25665"></scales>
<clustering>
<clus scale="   27.257">  1  9  2 -1</clus>
<clus scale="   90.958">  7  8 -1 -1</clus>
<clus scale="   93.799">  5  6 -1 -1</clus>
<clus scale="   95.235">  1  7  2 -1</clus>
<clus scale="   27.257">  1  5  2 -1</clus>
</clustering>
</event>
<event>
 9    1  0.1445593E-005  0.1002595E+03  0.7546771E-02  0.1279912E+00
         21   -1    0    0  501  502  0.00000000000E+00  0.00000000000E+00  0.37831419875E+02  0.37831419875E+02  0.00000000000E+00 0.  1.
          3   -1    0    0  502    0 -0.00000000000E+00 -0.00000000000E+00 -0.51380957996E+03  0.51380957996E+03  0.00000000000E+00 0. -1.
         23    2    1    2    0    0  0.91528557544E+01 -0.42506112860E+02 -0.33763634277E+03  0.35265968672E+03  0.92086971260E+02 0.  0.
         23    2    1    2    0    0  0.30042479448E+02  0.28679913326E+02 -0.10198660806E+03  0.14376230067E+03  0.92418844788E+02 0.  0.
        -13    1    3    3    0    0 -0.23248273728E+02  0.11425817034E+02 -0.34948296876E+02  0.43501896290E+02  0.00000000000E+00 0. -1.
         13    1    3    3    0    0  0.32401129482E+02 -0.53931929895E+02 -0.30268804590E+03  0.30915779043E+03  0.00000000000E+00 0.  1.
        -13    1    4    4    0    0  0.32458389335E+02 -0.21324659644E+02 -0.11761363489E+02  0.40578538888E+02  0.00000000000E+00 0.  1.
         13    1    4    4    0    0 -0.24159098870E+01  0.50004572970E+02 -0.90225244571E+02  0.10318376179E+03  0.00000000000E+00 0. -1.
          3    1    1    2  501    0 -0.39195335203E+02  0.13826199534E+02 -0.36355209251E+02  0.55219012440E+02  0.00000000000E+00 0. -1.
<scales pt_clust_5="13000.00000" pt_clust_6="13000.00000" pt_clust_7="13000.00000" pt_clust_8="13000.00000" pt_clust_9="41.56246"></scales>
<clustering>
<clus scale="   41.562">  1  9  2 -1</clus>
<clus scale="   92.087">  5  6 -1 -1</clus>
<clus scale="   92.419">  7  8 -1 -1</clus>
<clus scale="   99.954">  2  5  1 -1</clus>
<clus scale="   41.562">  1  5  2 -1</clus>
</clustering>
</event>
<event>
 9    1  0.1445593E-005  0.2472189E+03  0.7546771E-02  0.1148121E+00
         21   -1    0    0  501  502  0.00000000000E+00  0.00000000000E+00  0.88593634942E+03  0.88593634942E+03  0.00000000000E+00 0. -1.
          4   -1    0    0  502    0 -0.00000000000E+00 -0.00000000000E+00 -0.12447622990E+03  0.12447622990E+03  0.00000000000E+00 0. -1.
         23    2    1    2    0    0  0.37835341498E+02 -0.47268254163E+02  0.30465798056E+03  0.32392258947E+03  0.91888834636E+02 0.  0.
         23    2    1    2    0    0 -0.87267301403E+02  0.25100326211E+03  0.16901874134E+03  0.33044117849E+03  0.10002908595E+03 0.  0.
        -11    1    3    3    0    0  0.45042690035E+02  0.13544816738E+02  0.10430387790E+03  0.11441855151E+03  0.00000000000E+00 0. -1.
         11    1    3    3    0    0 -0.72073485367E+01 -0.60813070901E+02  0.20035410267E+03  0.20950403796E+03  0.00000000000E+00 0.  1.
        -11    1    4    4    0    0  0.14324164623E+02  0.68616891439E+02  0.71112987775E+02  0.99852473746E+02  0.00000000000E+00 0.  1.
         11    1    4    4    0    0 -0.10159146603E+03  0.18238637067E+03  0.97905753568E+02  0.23058870475E+03  0.00000000000E+00 0. -1.
          4    1    1    2  501    0  0.49431959905E+02 -0.20373500795E+03  0.28778339761E+03  0.35604881135E+03  0.00000000000E+00 0. -1.
<scales pt_clust_5="13000.00000" pt_clust_6="13000.00000" pt_clust_7="13000.00000" pt_clust_8="13000.00000" pt_clust_9="226.07827"></scales>
<clustering>
<clus scale="   91.889">  5  6 -1 -1</clus>
<clus scale="  100.029">  7  8 -1 -1</clus>
<clus scale="  110.043">  2  5  1 -1</clus>
<clus scale="  226.078">  1  9  2 -1</clus>
<clus scale="  226.078">  1  5  2 -1</clus>
</clustering>
</event>
<event>
 9    1  0.1445593E-005  0.1180566E+03  0.7546771E-02  0.1246627E+00
         21   -1    0    0  501  502  0.00000000000E+00  0.00000000000E+00  0.10567720213E+03  0.10567720213E+03  0.00000000000E+00 0. -1.
          2   -1    0    0  502    0 -0.00000000000E+00 -0.00000000000E+00 -0.73822965680E+03  0.73822965680E+03  0.00000000000E+00 0. -1.
         23    2    1    2    0    0 -0.17207288715E+02  0.42860448125E+02 -0.33642917929E+03  0.35191025606E+03  0.92320782299E+02 0.  0.
         23    2    1    2    0    0  0.56672561934E+02 -0.13581239066E+03 -0.34022667525E+03  0.38180276779E+03  0.91446039844E+02 0.  0.
        -13    1    4    4    0    0  0.27927523412E+02 -0.37234885205E+02 -0.30873228151E+02  0.55852837499E+02  0.00000000000E+00 0.  1.
         13    1    4    4    0    0  0.28745038523E+02 -0.98577505453E+02 -0.30935344710E+03  0.32594993029E+03  0.00000000000E+00 0. -1.
        -13    1    3    3    0    0 -0.53130603807E+02  0.39299108479E+02 -0.19269587883E+03  0.20371299101E+03  0.00000000000E+00 0. -1.
         13    1    3    3    0    0  0.35923315092E+02  0.35613396465E+01 -0.14373330046E+03  0.14819726505E+03  0.00000000000E+00 0.  1.
          2    1    1    2  501    0 -0.39465273220E+02  0.92951942533E+02  0.44103399874E+02  0.11019383509E+03  0.00000000000E+00 0. -1.
<scales pt_clust_5="13000.00000" pt_clust_6="13000.00000" pt_clust_7="13000.00000" pt_clust_8="13000.00000" pt_clust_9="100.98303"></scales>
<clustering>
<clus scale="   91.446">  5  6 -1 -1</clus>
<clus scale="   92.321">  7  8 -1 -1</clus>
<clus scale="  100.983">  1  9  2 -1</clus>
<clus scale="  117.374">  1  5  2 -1</clus>
<clus scale="  100.983">  1  5  2 -1</clus>
</clustering>
</event>
<event>
 9    1  0.1445593E-005  0.1310838E+03  0.7546771E-02  0.1226105E+00
         -1   -1    0    0    0  501 -0.00000000000E+00  0.00000000000E+00  0.71434044480E+03  0.71434044480E+03  0.00000000000E+00 0.  1.
         21   -1    0    0  501  502  0.00000000000E+00 -0.00000000000E+00 -0.38409638969E+02  0.38409638969E+02  0.00000000000E+00 0. -1.
         23    2    1    2    0    0  0.91408964782E+02 -0.76458618900E+01  0.32675447574E+03  0.35127626485E+03  0.90622672603E+02 0.  0.
         23    2    1    2    0    0 -0.97723388682E+02 -0.18966537379E+02  0.34931634441E+03  0.37412219468E+03  0.89643281083E+02 0.  0.
        -13    1    3    3    0    0  0.38748966253E+02 -0.37644501604E+02  0.23629041844E+03  0.24238760845E+03  0.00000000000E+00 0.  1.
         13    1    3    3    0    0  0.52659998529E+02  0.29998639714E+02  0.90464057301E+02  0.10888865640E+03  0.00000000000E+00 0. -1.
        -13    1    4    4    0    0 -0.49983274161E+02 -0.54630203889E+02  0.20639788094E+03  0.21927807033E+03  0.00000000000E+00 0.  1.
         13    1    4    4    0    0 -0.47740114521E+02  0.35663666510E+02  0.14291846348E+03  0.15484412435E+03  0.00000000000E+00 0. -1.
         -1    1    1    2    0  502  0.63144238997E+01  0.26612399269E+02 -0.14001432211E+00  0.27351624231E+02  0.00000000000E+00 0.  1.
<scales pt_clust_5="13000.00000" pt_clust_6="13000.00000" pt_clust_7="13000.00000" pt_clust_8="13000.00000" pt_clust_9="27.35127"></scales>
<clustering>
<clus scale="   27.351">  2  9  1 -1</clus>
<clus scale="   89.643">  7  8 -1 -1</clus>
<clus scale="   90.623">  5  6 -1 -1</clus>
<clus scale="  130.409">  2  7  1 -1</clus>
<clus scale="   27.351">  2  5  1 -1</clus>
</clustering>
</event>
<event>
 9    1  0.1445593E-005  0.1239898E+03  0.7546771E-02  0.1236684E+00
         21   -1    0    0  501  502  0.00000000000E+00  0.00000000000E+00  0.33205592104E+03  0.33205592104E+03  0.00000000000E+00 0.  1.
          3   -1    0    0  502    0 -0.00000000000E+00 -0.00000000000E+00 -0.14240704303E+03  0.14240704303E+03  0.00000000000E+00 0. -1.
         23    2    1    2    0    0 -0.46931044227E+02 -0.74584134375E+02 -0.90856743707E+02  0.15526813033E+03  0.89932910587E+02 0.  0.
         23    2    1    2    0    0  0.45094746454E+02  0.54477077159E+02  0.15795557002E+03  0.19499265618E+03  0.89838108677E+02 0.  0.
        -11    1    4    4    0    0  0.42328241393E+02  0.74405929842E+02  0.15123252718E+03  0.17377916933E+03  0.00000000000E+00 0.  1.
         11    1    4    4    0    0  0.27665050608E+01 -0.19928852683E+02  0.67230428422E+01  0.21213486855E+02  0.00000000000E+00 0. -1.
        -13    1    3    3    0    0 -0.16499013941E+02 -0.24921128251E+02  0.15752852196E+02  0.33785092077E+02  0.00000000000E+00 0.  1.
         13    1    3    3    0    0 -0.30432030286E+02 -0.49663006124E+02 -0.10660959590E+03  0.12148303825E+03  0.00000000000E+00 0. -1.
          3    1    1    2  501    0  0.18362977733E+01  0.20107057216E+02  0.12255005170E+03  0.12420217756E+03  0.00000000000E+00 0. -1.
<scales pt_clust_5="13000.00000" pt_clust_6="13000.00000" pt_clust_7="13000.00000" pt_clust_8="13000.00000" pt_clust_9="20.19073"></scales>
<clustering>
<clus scale="   20.191">  1  9  2 -1</clus>
<clus scale="   89.838">  5  6 -1 -1</clus>
<clus scale="   89.933">  7  8 -1 -1</clus>
<clus scale="  123.921">  1  5  2 -1</clus>
<clus scale="   20.191">  1  5  2 -1</clus>
</clustering>
</event>
<event>
 9    1  0.1445593E-005  0.1949358E+03  0.7546771E-02  0.1154399E+00
         21   -1    0    0  501  502  0.00000000000E+00  0.00000000000E+00  0.37488818612E+03  0.37488818612E+03  0.00000000000E+00 0. -1.
          1   -1    0    0  502    0 -0.00000000000E+00 -0.00000000000E+00 -0.45907181760E+03  0.45907181760E+03  0.00000000000E+00 0. -1.
         23    2    1    2    0    0  0.50716412450E+02  0.20048608146E+03 -0.31089505087E+03  0.38472666447E+03  0.92693313408E+02 0.  0.
         23    2    1    2    0    0  0.29579423979E+02 -0.12179001049E+03 -0.40515515886E+02  0.15931830365E+03  0.89627372336E+02 0.  0.
        -11    1    4    4    0    0 -0.10454023367E+02 -0.93333180498E+02  0.26137182670E+01  0.93953183605E+02  0.00000000000E+00 0.  1.
         11    1    4    4    0    0  0.40033447346E+02 -0.28456829991E+02 -0.43129234153E+02  0.65365120043E+02  0.00000000000E+00 0. -1.
        -13    1    3    3    0    0 -0.20048960436E+02  0.42719581678E+02 -0.10982273116E+03  0.11953223730E+03  0.00000000000E+00 0.  1.
         13    1    3    3    0    0  0.70765372886E+02  0.15776649978E+03 -0.20107231971E+03  0.26519442717E+03  0.00000000000E+00 0. -1.
          1    1    1    2  501    0 -0.80295836429E+02 -0.78696070967E+02  0.26722693527E+03  0.28991503560E+03  0.00000000000E+00 0. -1.
<scales pt_clust_5="13000.00000" pt_clust_6="13000.00000" pt_clust_7="13000.00000" pt_clust_8="13000.00000" pt_clust_9="112.42995"></scales>
<clustering>
<clus scale="   89.627">  5  6 -1 -1</clus>
<clus scale="   92.693">  7  8 -1 -1</clus>
<clus scale="  112.430">  1  9  2 -1</clus>
<clus scale="  193.497">  1  5  2 -1</clus>
<clus scale="  112.430">  1  5  2 -1</clus>
</clustering>
</event>
<event>
 9    1  0.1445593E-005  0.1514657E+03  0.7546771E-02  0.1198916E+00
          1   -1    0    0  502    0 -0.00000000000E+00  0.00000000000E+00  0.93409390137E+03  0.93409390137E+03  0.00000000000E+00 0. -1.
         21   -1    0    0  501  502  0.00000000000E+00 -0.00000000000E+00 -0.36531317761E+02  0.36531317761E+02  0.00000000000E+00 0.  1.
         23    2    1    2    0    0  0.77642031009E+02  0.11114495789E+03  0.60181265789E+03  0.62371775792E+03  0.91999346244E+02 0.  0.
         23    2    1    2    0    0 -0.39319496652E+02 -0.90110677622E+02  0.25051232191E+03  0.28399881010E+03  0.90735570042E+02 0.  0.
        -11    1    4    4    0    0 -0.27355028676E+02 -0.15672884856E+02  0.17307005322E+03  0.17591810661E+03  0.00000000000E+00 0. -1.
         11    1    4    4    0    0 -0.11964467976E+02 -0.74437792766E+02  0.77442268690E+02  0.10808070348E+03  0.00000000000E+00 0.  1.
        -11    1    3    3    0    0  0.45530919148E+02  0.12137166186E+03  0.49655090747E+03  0.51319289610E+03  0.00000000000E+00 0.  1.
         11    1    3    3    0    0  0.32111111860E+02 -0.10226703971E+02  0.10526175042E+03  0.11052486182E+03  0.00000000000E+00 0. -1.
          1    1    1    2  501    0 -0.38322534357E+02 -0.21034280269E+02  0.45237603818E+02  0.62908651115E+02  0.00000000000E+00 0. -1.
<scales pt_clust_5="13000.00000" pt_clust_6="13000.00000" pt_clust_7="13000.00000" pt_clust_8="13000.00000" pt_clust_9="43.71564"></scales>
<clustering>
<clus scale="   43.716">  2  9  1 -1</clus>
<clus scale="   90.736">  5  6 -1 -1</clus>
<clus scale="   91.999">  7  8 -1 -1</clus>
<clus scale="  150.701">  2  5  1 -1</clus>
<clus scale="   43.716">  2  5  1 -1</clus>
</clustering>
</event>
<event>
 9    1  0.1445593E-005  0.1133155E+03  0.7546771E-02  0.1254891E+00
         -1   -1    0    0    0  501 -0.00000000000E+00  0.00000000000E+00  0.28242296802E+03  0.28242296802E+03  0.00000000000E+00 0.  1.
         21   -1    0    0  501  502  0.00000000000E+00 -0.00000000000E+00 -0.72277459786E+02  0.72277459786E+02  0.00000000000E+00 0.  1.
         23    2    1    2    0    0  0.59159718123E+02 -0.11109155398E+02  0.13879523731E+03  0.17712087380E+03  0.92110805306E+02 0.  0.
         23    2    1    2    0    0 -0.79632419026E+02  0.17048208405E+02  0.22526361204E+02  0.12430500104E+03  0.91171995512E+02 0.  0.
        -13    1    4    4    0    0 -0.93759399873E+02 -0.72804262596E+01  0.19133794140E+02  0.95968389323E+02  0.00000000000E+00 0.  1.
         13    1    4    4    0    0  0.14126980847E+02  0.24328634665E+02  0.33925670645E+01  0.28336611721E+02  0.00000000000E+00 0. -1.
        -13    1    3    3    0    0  0.53341975829E+02 -0.47838465756E+02  0.10326684977E+03  0.12568980648E+03  0.00000000000E+00 0. -1.
         13    1    3    3    0    0  0.58177422943E+01  0.36729310357E+02  0.35528387537E+02  0.51431067321E+02  0.00000000000E+00 0.  1.
         -1    1    1    2    0  502  0.20472700903E+02 -0.59390530073E+01  0.48823909722E+02  0.53274552963E+02  0.00000000000E+00 0.  1.
<scales pt_clust_5="13000.00000" pt_clust_6="13000.00000" pt_clust_7="13000.00000" pt_clust_8="13000.00000" pt_clust_9="21.31676"></scales>
<clustering>
<clus scale="   21.317">  2  9  1 -1</clus>
<clus scale="   91.172">  5  6 -1 -1</clus>
<clus scale="   92.111">  7  8 -1 -1</clus>
<clus scale="  112.554">  2  5  1 -1</clus>
<clus scale="   21.317">  2  5  1 -1</clus>
</clustering>
</event>
<event>
 9    1  0.1445593E-005  0.1047087E+03  0.7546771E-02  0.1272428E+00
         21   -1    0    0  501  502  0.00000000000E+00  0.00000000000E+00  0.36530698875E+03  0.36530698875E+03  0.00000000000E+00 0. -1.
         -1   -1    0    0    0  501 -0.00000000000E+00 -0.00000000000E+00 -0.10420009084E+03  0.10420009084E+03  0.00000000000E+00 0.  1.
         23    2    1    2    0    0 -0.49199779806E+02 -0.50402123572E+01 -0.48523948240E+02  0.11448894566E+03  0.91143420237E+02 0.  0.
         23    2    1    2    0    0  0.23146585208E+02  0.19103826506E+02  0.92622978458E+02  0.13599994100E+03  0.94953921558E+02 0.  0.
        -13    1    3    3    0    0 -0.28172621467E+02  0.27574165497E+02 -0.61948049409E+02  0.73427460998E+02  0.00000000000E+00 0.  1.
         13    1    3    3    0    0 -0.21027158339E+02 -0.32614377854E+02  0.13424101169E+02  0.41061484663E+02  0.00000000000E+00 0. -1.
        -13    1    4    4    0    0  0.49664041110E+02  0.41553935312E+02  0.62921210713E+02  0.90290228025E+02  0.00000000000E+00 0.  1.
         13    1    4    4    0    0 -0.26517455902E+02 -0.22450108806E+02  0.29701767744E+02  0.45709712973E+02  0.00000000000E+00 0. -1.
         -1    1    1    2    0  502  0.26053194598E+02 -0.14063614149E+02  0.21700786770E+03  0.21901819293E+03  0.00000000000E+00 0.  1.
<scales pt_clust_5="13000.00000" pt_clust_6="13000.00000" pt_clust_7="13000.00000" pt_clust_8="13000.00000" pt_clust_9="29.60666"></scales>
<clustering>
<clus scale="   29.607">  1  9  2 -1</clus>
<clus scale="   91.143">  5  6 -1 -1</clus>
<clus scale="   94.954">  7  8 -1 -1</clus>
<clus scale="  101.266">  2  5  1 -1</clus>
<clus scale="   29.607">  1  5  2 -1</clus>
</clustering>
</event>
<event>
 9    1  0.1445593E-005  0.2839226E+03  0.7546771E-02  0.1134805E+00
         21   -1    0    0  501  502  0.00000000000E+00  0.00000000000E+00  0.37354022116E+03  0.37354022116E+03  0.00000000000E+00 0. -1.
          3   -1    0    0  502    0 -0.00000000000E+00 -0.00000000000E+00 -0.69017668112E+03  0.69017668112E+03  0.00000000000E+00 0. -1.
         23    2    1    2    0    0 -0.13157434746E+02 -0.40135730599E+02 -0.10545612225E+03  0.14538436808E+03  0.90728307622E+02 0.  0.
         23    2    1    2    0    0 -0.86073930512E+02 -0.22044512750E+03 -0.47421641875E+03  0.53500861453E+03  0.73131594111E+02 0.  0.
        -13    1    3    3    0    0  0.22505261996E+02 -0.56499221485E+02 -0.65646555286E+02  0.89488094554E+02  0.00000000000E+00 0. -1.
         13    1    3    3    0    0 -0.35662696742E+02  0.16363490886E+02 -0.39809566962E+02  0.55896273531E+02  0.00000000000E+00 0.  1.
        -13    1    4    4    0    0  0.12625535497E+02 -0.22223548327E+02 -0.62445887684E+02  0.67474284994E+02  0.00000000000E+00 0.  1.
         13    1    4    4    0    0 -0.98699466009E+02 -0.19822157918E+03 -0.41177053106E+03  0.46753432953E+03  0.00000000000E+00 0. -1.
          3    1    1    2  501    0  0.99231365258E+02  0.26058085810E+03  0.26303608104E+03  0.38332391966E+03  0.00000000000E+00 0. -1.
<scales pt_clust_5="13000.00000" pt_clust_6="13000.00000" pt_clust_7="13000.00000" pt_clust_8="13000.00000" pt_clust_9="274.34250"></scales>
<clustering>
<clus scale="   73.132">  7  8 -1 -1</clus>
<clus scale="   90.728">  5  6 -1 -1</clus>
<clus scale="  100.078">  2  5  1 -1</clus>
<clus scale="  274.343">  1  9  2 -1</clus>
<clus scale="  274.343">  1  5  2 -1</clus>
</clustering>
</event>
<event>
 9    1  0.1445593E-005  0.1109346E+03  0.7546771E-02  0.1258855E+00
         21   -1    0    0  501  502  0.00000000000E+00  0.00000000000E+00  0.70666953085E+03  0.70666953085E+03  0.00000000000E+00 0. -1.
          1   -1    0    0  502    0 -0.00000000000E+00 -0.00000000000E+00 -0.68710829526E+02  0.68710829526E+02  0.00000000000E+00 0. -1.
         23    2    1    2    0    0 -0.61225302406E+02  0.27959650240E+02 -0.97020940705E+01  0.11374502741E+03  0.91178511364E+02 0.  0.
         23    2    1    2    0    0  0.24003952067E+02 -0.15122746071E+02  0.43506252203E+03  0.44542191787E+03  0.91194296327E+02 0.  0.
        -11    1    4    4    0    0  0.57401342680E+02  0.30517108975E+01  0.26101728132E+03  0.26727186202E+03  0.00000000000E+00 0.  1.
         11    1    4    4    0    0 -0.33397390613E+02 -0.18174456969E+02  0.17404524070E+03  0.17815005585E+03  0.00000000000E+00 0. -1.
        -13    1    3    3    0    0  0.17169882541E+01 -0.26538094510E+02 -0.14611651069E+02  0.30343349450E+02  0.00000000000E+00 0.  1.
         13    1    3    3    0    0 -0.62942290660E+02  0.54497744750E+02  0.49095569984E+01  0.83401677959E+02  0.00000000000E+00 0. -1.
          1    1    1    2  501    0  0.37221350339E+02 -0.12836904169E+02  0.21259827337E+03  0.21621341510E+03  0.00000000000E+00 0. -1.
<scales pt_clust_5="13000.00000" pt_clust_6="13000.00000" pt_clust_7="13000.00000" pt_clust_8="13000.00000" pt_clust_9="39.37277"></scales>
<clustering>
<clus scale="   39.373">  1  9  2 -1</clus>
<clus scale="   91.179">  7  8 -1 -1</clus>
<clus scale="   91.194">  5  6 -1 -1</clus>
<clus scale="  110.922">  2  7  1 -1</clus>
<clus scale="   39.373">  1  5  2 -1</clus>
</clustering>
</event>
<event>
 9    1  0.1445593E-005  0.1032078E+03  0.7546771E-02  0.1277765E+00
         21   -1    0    0  501  502  0.00000000000E+00  0.00000000000E+00  0.59388365854E+03  0.59388365854E+03  0.00000000000E+00 0. -1.
          2   -1    0    0  502    0 -0.00000000000E+00 -0.00000000000E+00 -0.41364011145E+02  0.41364011145E+02  0.00000000000E+00 0. -1.
         23    2    1    2    0    0  0.10524525647E+02 -0.16215895243E+02  0.87624957045E+02  0.12768976950E+03  0.90845050719E+02 0.  0.
         23    2    1    2    0    0 -0.59260432535E+02 -0.12330742899E+02  0.16087438324E+03  0.19833557514E+03  0.98957501473E+02 0.  0.
        -11    1    4    4    0    0 -0.69558467457E+02 -0.36477312086E+02  0.15115499494E+03  0.17034320411E+03  0.00000000000E+00 0. -1.
         11    1    4    4    0    0  0.10298034922E+02  0.24146569187E+02  0.97193883013E+01  0.27992371027E+02  0.00000000000E+00 0.  1.
        -11    1    3    3    0    0 -0.24692273662E+02 -0.33414490061E+02  0.76325807765E+02  0.86901469813E+02  0.00000000000E+00 0.  1.
         11    1    3    3    0    0  0.35216799308E+02  0.17198594818E+02  0.11299149280E+02  0.40788299691E+02  0.00000000000E+00 0. -1.
          2    1    1    2  501    0  0.48735906888E+02  0.28546638141E+02  0.30402030712E+03  0.30922232505E+03  0.00000000000E+00 0. -1.
<scales pt_clust_5="13000.00000" pt_clust_6="13000.00000" pt_clust_7="13000.00000" pt_clust_8="13000.00000" pt_clust_9="56.48096"></scales>
<clustering>
<clus scale="   56.481">  1  9  2 -1</clus>
<clus scale="   90.845">  7  8 -1 -1</clus>
<clus scale="   95.457">  2  7  1 -1</clus>
<clus scale="   98.958">  5  6 -1 -1</clus>
<clus scale="   56.481">  1  5  2 -1</clus>
</clustering>
</event>
<event>
 9    1  0.1445593E-005  0.1225954E+03  0.7546771E-02  0.1241588E+00
         21   -1    0    0  501  502  0.00000000000E+00  0.00000000000E+00  0.53059419709E+03  0.53059419709E+03  0.00000000000E+00 0.  1.
          1   -1    0    0  502    0 -0.00000000000E+00 -0.00000000000E+00 -0.63797555975E+02  0.63797555975E+02  0.00000000000E+00 0. -1.
         23    2    1    2    0    0 -0.80919702187E+01  0.84753033196E+02  0.46726042750E+02  0.13470397032E+03  0.93344951283E+02 0.  0.
         23    2    1    2    0    0 -0.36399233607E+02 -0.57157953411E+02  0.37586078791E+03  0.39116433431E+03  0.84535606094E+02 0.  0.
        -13    1    3    3    0    0  0.36013683046E+02  0.58811758355E+02  0.47138295176E+02  0.83533389488E+02  0.00000000000E+00 0. -1.
         13    1    3    3    0    0 -0.44105653264E+02  0.25941274841E+02 -0.41225242567E+00  0.51170580828E+02  0.00000000000E+00 0.  1.
        -13    1    4    4    0    0 -0.61528546218E+02 -0.52377393858E+02  0.31384766395E+03  0.32408256595E+03  0.00000000000E+00 0.  1.
         13    1    4    4    0    0  0.25129312612E+02 -0.47805595533E+01  0.62013123968E+02  0.67081768360E+02  0.00000000000E+00 0. -1.
          1    1    1    2  501    0  0.44491203825E+02 -0.27595079785E+02  0.44209810453E+02  0.68523448442E+02  0.00000000000E+00 0. -1.
<scales pt_clust_5="13000.00000" pt_clust_6="13000.00000" pt_clust_7="13000.00000" pt_clust_8="13000.00000" pt_clust_9="52.35416"></scales>
<clustering>
<clus scale="   52.354">  1  9  2 -1</clus>
<clus scale="   84.536">  7  8 -1 -1</clus>
<clus scale="   93.345">  5  6 -1 -1</clus>
<clus scale="  116.029">  1  7  2 -1</clus>
<clus scale="   52.354">  1  5  2 -1</clus>
</clustering>
</event>
<event>
 9    1  0.1445593E-005  0.9484979E+02  0.7546771E-02  0.1292009E+00
         21   -1    0    0  501  502  0.00000000000E+00  0.00000000000E+00  0.30633184649E+03  0.30633184649E+03  0.00000000000E+00 0. -1.
          1   -1    0    0  502    0 -0.00000000000E+00 -0.00000000000E+00 -0.46947549569E+02  0.46947549569E+02  0.00000000000E+00 0. -1.
         23    2    1    2    0    0 -0.21790414900E+02  0.22518071837E+00  0.63942663154E+02  0.11330039914E+03  0.90958470668E+02 0.  0.
         23    2    1    2    0    0  0.20794388540E+02  0.23251017933E+02  0.91290234863E+02  0.13320991026E+03  0.91858351722E+02 0.  0.
        -11    1    3    3    0    0 -0.71301381473E+01  0.45318768027E+02  0.35495844438E+02  0.58005039245E+02  0.00000000000E+00 0.  1.
         11    1    3    3    0    0 -0.14660276753E+02 -0.45093587309E+02  0.28446818716E+02  0.55295359895E+02  0.00000000000E+00 0. -1.
        -13    1    4    4    0    0  0.24751096467E+02  0.46747726871E+02  0.95349629683E+02  0.10903906926E+03  0.00000000000E+00 0. -1.
         13    1    4    4    0    0 -0.39567079266E+01 -0.23496708938E+02 -0.40593948204E+01  0.24170841004E+02  0.00000000000E+00 0.  1.
          1    1    1    2  501    0  0.99602636028E+00 -0.23476198651E+02  0.10415139890E+03  0.10676908666E+03  0.00000000000E+00 0. -1.
<scales pt_clust_5="13000.00000" pt_clust_6="13000.00000" pt_clust_7="13000.00000" pt_clust_8="13000.00000" pt_clust_9="23.49732"></scales>
<clustering>
<clus scale="   23.497">  1  9  2 -1</clus>
<clus scale="   90.958">  5  6 -1 -1</clus>
<clus scale="   91.858">  7  8 -1 -1</clus>
<clus scale="   93.979">  2  5  1 -1</clus>
<clus scale="   23.497">  1  5  2 -1</clus>
</clustering>
</event>
<event>
 9    1  0.1445593E-005  0.9379667E+02  0.7546771E-02  0.1295356E+00
          4   -1    0    0  502    0 -0.00000000000E+00  0.00000000000E+00  0.44405452621E+03  0.44405452621E+03  0.00000000000E+00 0. -1.
         21   -1    0    0  501  502  0.00000000000E+00 -0.00000000000E+00 -0.27933012896E+02  0.27933012896E+02  0.00000000000E+00 0.  1.
         23    2    1    2    0    0 -0.80628760717E+01 -0.18880231758E+02  0.22219109076E+03  0.24073329794E+03  0.90344710984E+02 0.  0.
         23    2    1    2    0    0  0.14045516044E+02 -0.63114745720E+01  0.17653389819E+03  0.20006044196E+03  0.92859312912E+02 0.  0.
        -13    1    4    4    0    0  0.27340843469E+02  0.22680786092E+02  0.16045707286E+03  0.16434236219E+03  0.00000000000E+00 0.  1.
         13    1    4    4    0    0 -0.13295327424E+02 -0.28992260664E+02  0.16076825330E+02  0.35718079769E+02  0.00000000000E+00 0. -1.
        -13    1    3    3    0    0 -0.33454933875E+02  0.10528779921E+02  0.34987107521E+02  0.49539736575E+02  0.00000000000E+00 0. -1.
         13    1    3    3    0    0  0.25392057803E+02 -0.29409011679E+02  0.18720398324E+03  0.19119356137E+03  0.00000000000E+00 0.  1.
          4    1    1    2  501    0 -0.59826399725E+01  0.25191706330E+02  0.17396524361E+02  0.31193799203E+02  0.00000000000E+00 0. -1.
<scales pt_clust_5="13000.00000" pt_clust_6="13000.00000" pt_clust_7="13000.00000" pt_clust_8="13000.00000" pt_clust_9="25.89236"></scales>
<clustering>
<clus scale="   25.892">  2  9  1 -1</clus>
<clus scale="   90.345">  7  8 -1 -1</clus>
<clus scale="   91.308">  1  7  2 -1</clus>
<clus scale="   92.859">  5  6 -1 -1</clus>
<clus scale="   25.892">  2  5  1 -1</clus>
</clustering>
</event>
<event>
 9    1  0.1445593E-005  0.1772748E+03  0.7546771E-02  0.1188608E+00
         21   -1    0    0  501  502  0.00000000000E+00  0.00000000000E+00  0.10978492796E+03  0.10978492796E+03  0.00000000000E+00 0. -1.
          2   -1    0    0  502    0 -0.00000000000E+00 -0.00000000000E+00 -0.57591579730E+03  0.57591579730E+03  0.00000000000E+00 0. -1.
         23    2    1    2    0    0 -0.22726657685E+02  0.72984352771E+02 -0.22346691012E+03  0.25264607551E+03  0.89718241355E+02 0.  0.
         23    2    1    2    0    0 -0.94105577127E+02 -0.16038096779E+03 -0.18645929969E+03  0.27669959496E+03  0.84956935752E+02 0.  0.
        -13    1    4    4    0    0 -0.21019032118E+02 -0.55107282558E+02 -0.11677079472E+03  0.13082060542E+03  0.00000000000E+00 0.  1.
         13    1    4    4    0    0 -0.73086545009E+02 -0.10527368523E+03 -0.69688504970E+02  0.14587898954E+03  0.00000000000E+00 0. -1.
        -13    1    3    3    0    0 -0.51765534999E+02  0.30949437871E+02 -0.16113058432E+03  0.17204825928E+03  0.00000000000E+00 0. -1.
         13    1    3    3    0    0  0.29038877314E+02  0.42034914901E+02 -0.62336325801E+02  0.80597816228E+02  0.00000000000E+00 0.  1.
          2    1    1    2  501    0  0.11683223481E+03  0.87396615021E+02 -0.56204659526E+02  0.15635505480E+03  0.00000000000E+00 0. -1.
<scales pt_clust_5="13000.00000" pt_clust_6="13000.00000" pt_clust_7="13000.00000" pt_clust_8="13000.00000" pt_clust_9="155.59132"></scales>
<clustering>
<clus scale="   84.957">  5  6 -1 -1</clus>
<clus scale="   89.718">  7  8 -1 -1</clus>
<clus scale="  117.867">  2  7  1 -1</clus>
<clus scale="  155.591">  1  9  2 -1</clus>
<clus scale="  155.591">  1  5  2 -1</clus>
</clustering>
</event>
<event>
 9    1  0.1445593E-005  0.3014188E+03  0.7546771E-02  0.1124765E+00
          2   -1    0    0  502    0 -0.00000000000E+00  0.00000000000E+00  0.63097235273E+03  0.63097235273E+03  0.00000000000E+00 0. -1.
         21   -1    0    0  501  502  0.00000000000E+00 -0.00000000000E+00 -0.19308064316E+03  0.19308064316E+03  0.00000000000E+00 0. -1.
         23    2    1    2    0    0  0.14147624570E+01 -0.54140331759E+02  0.64848119053E+02  0.12515333333E+03  0.92330391659E+02 0.  0.
         23    2    1    2    0    0 -0.25584582991E+03 -0.10399502694E+03  0.18413707290E+03  0.34474202511E+03  0.93105037184E+02 0.  0.
        -11    1    3    3    0    0 -0.18342023521E+02 -0.69058661364E+02  0.69820782179E+02  0.99902303078E+02  0.00000000000E+00 0.  1.
         11    1    3    3    0    0  0.19756785978E+02  0.14918329605E+02 -0.49726631252E+01  0.25251030255E+02  0.00000000000E+00 0. -1.
        -13    1    4    4    0    0 -0.25353905680E+03 -0.81614392421E+02  0.18098626255E+03  0.32202327494E+03  0.00000000000E+00 0. -1.
         13    1    4    4    0    0 -0.23067731190E+01 -0.22380634517E+02  0.31508103564E+01  0.22718750175E+02  0.00000000000E+00 0.  1.
          2    1    1    2  501    0  0.25443106746E+03  0.15813535870E+03  0.18890651762E+03  0.35415763744E+03  0.00000000000E+00 0. -1.
<scales pt_clust_5="13000.00000" pt_clust_6="13000.00000" pt_clust_7="13000.00000" pt_clust_8="13000.00000" pt_clust_9="286.67891"></scales>
<clustering>
<clus scale="   92.330">  5  6 -1 -1</clus>
<clus scale="   93.105">  7  8 -1 -1</clus>
<clus scale="  107.042">  1  5  2 -1</clus>
<clus scale="  286.679">  2  9  1 -1</clus>
<clus scale="  286.679">  2  5  1 -1</clus>
</clustering>
</event>
<event>
 9    1  0.1445593E-005  0.9919923E+02  0.7546771E-02  0.1282903E+00
         -1   -1    0    0    0  501 -0.00000000000E+00  0.00000000000E+00  0.24337913714E+03  0.24337913714E+03  0.00000000000E+00 0.  1.
         21   -1    0    0  501  502  0.00000000000E+00 -0.00000000000E+00 -0.22708122895E+03  0.22708122895E+03  0.00000000000E+00 0.  1.
         23    2    1    2    0    0 -0.41994766501E+02 -0.17176521319E+02  0.16887346822E+03  0.19724715662E+03  0.91266638083E+02 0.  0.
         23    2    1    2    0    0  0.76204585172E+01 -0.75132571434E+01  0.19757717289E+02  0.95759168442E+02  0.93085608594E+02 0.  0.
        -11    1    4    4    0    0 -0.12554573345E+02  0.40049997440E+02  0.71274553541E+01  0.42572529014E+02  0.00000000000E+00 0. -1.
         11    1    4    4    0    0  0.20175031862E+02 -0.47563254583E+02  0.12630261935E+02  0.53186639429E+02  0.00000000000E+00 0.  1.
        -13    1    3    3    0    0 -0.20144250082E+02  0.15990514087E+02  0.20949930547E+01  0.25804579981E+02  0.00000000000E+00 0. -1.
         13    1    3    3    0    0 -0.21850516419E+02 -0.33167035406E+02  0.16677847516E+03  0.17144257663E+03  0.00000000000E+00 0.  1.
         -1    1    1    2    0  502  0.34374307984E+02  0.24689778462E+02 -0.17233327731E+03  0.17745404104E+03  0.00000000000E+00 0.  1.
<scales pt_clust_5="13000.00000" pt_clust_6="13000.00000" pt_clust_7="13000.00000" pt_clust_8="13000.00000" pt_clust_9="42.32231"></scales>
<clustering>
<clus scale="   42.322">  2  9  1 -1</clus>
<clus scale="   91.267">  7  8 -1 -1</clus>
<clus scale="   93.086">  5  6 -1 -1</clus>
<clus scale="   97.494">  1  7  2 -1</clus>
<clus scale="   42.322">  2  5  1 -1</clus>
</clustering>
</event>
<event>
 9    1  0.1445593E-005  0.1219125E+03  0.7546771E-02  0.1241960E+00
          1   -1    0    0  502    0 -0.00000000000E+00  0.00000000000E+00  0.31130106828E+03  0.31130106828E+03  0.00000000000E+00 0. -1.
         21   -1    0    0  501  502  0.00000000000E+00 -0.00000000000E+00 -0.76518254386E+02  0.76518254386E+02  0.00000000000E+00 0.  1.
         23    2    1    2    0    0 -0.76045285778E+02  0.37931983014E+01  0.17084789376E+03  0.20603919330E+03  0.86405280675E+02 0.  0.
         23    2    1    2    0    0  0.82094658741E+02 -0.29515728280E+02  0.80412558048E+02  0.15063922358E+03  0.92818559449E+02 0.  0.
        -11    1    4    4    0    0  0.57192935121E+02  0.49059649109E+01  0.90317058761E+02  0.10701528593E+03  0.00000000000E+00 0. -1.
         11    1    4    4    0    0  0.24901723620E+02 -0.34421693191E+02 -0.99045007127E+01  0.43623937647E+02  0.00000000000E+00 0.  1.
        -13    1    3    3    0    0 -0.52275458485E+02 -0.39657488848E+02  0.99369128815E+02  0.11907839327E+03  0.00000000000E+00 0.  1.
         13    1    3    3    0    0 -0.23769827293E+02  0.43450687149E+02  0.71478764949E+02  0.86960800031E+02  0.00000000000E+00 0. -1.
          1    1    1    2  501    0 -0.60493729628E+01  0.25722529979E+02 -0.16477637923E+02  0.31140905788E+02  0.00000000000E+00 0. -1.
<scales pt_clust_5="13000.00000" pt_clust_6="13000.00000" pt_clust_7="13000.00000" pt_clust_8="13000.00000" pt_clust_9="26.42430"></scales>
<clustering>
<clus scale="   26.424">  2  9  1 -1</clus>
<clus scale="   86.405">  7  8 -1 -1</clus>
<clus scale="   92.819">  5  6 -1 -1</clus>
<clus scale="  117.104">  1  7  2 -1</clus>
<clus scale="   26.424">  2  5  1 -1</clus>
</clustering>
</event>
<event>
 9    1  0.1445593E-005  0.9873875E+02  0.7546771E-02  0.1284088E+00
          1   -1    0    0  502    0 -0.00000000000E+00  0.00000000000E+00  0.57670917542E+03  0.57670917542E+03  0.00000000000E+00 0. -1.
         21   -1    0    0  501  502  0.00000000000E+00 -0.00000000000E+00 -0.29897856783E+02  0.29897856783E+02  0.00000000000E+00 0. -1.
         23    2    1    2    0    0  0.15210803087E+02  0.18727645059E+02  0.28687872684E+03  0.30294093373E+03  0.94295875804E+02 0.  0.
         23    2    1    2    0    0  0.15500645910E+02 -0.24334443172E+02  0.25215106500E+03  0.27149186277E+03  0.96411808494E+02 0.  0.
        -11    1    3    3    0    0 -0.17422655775E+02 -0.30079819584E+02  0.68607550520E+02  0.76911250600E+02  0.00000000000E+00 0.  1.
         11    1    3    3    0    0  0.32633458862E+02  0.48807464643E+02  0.21827117632E+03  0.22602968313E+03  0.00000000000E+00 0. -1.
        -13    1    4    4    0    0 -0.33863387560E+02  0.14550081732E+02  0.75948046578E+02  0.84418834833E+02  0.00000000000E+00 0. -1.
         13    1    4    4    0    0  0.49364033470E+02 -0.38884524905E+02  0.17620301843E+03  0.18707302793E+03  0.00000000000E+00 0.  1.
          1    1    1    2  501    0 -0.30711448997E+02  0.56067981137E+01  0.77815267961E+01  0.32174235715E+02  0.00000000000E+00 0. -1.
<scales pt_clust_5="13000.00000" pt_clust_6="13000.00000" pt_clust_7="13000.00000" pt_clust_8="13000.00000" pt_clust_9="31.21905"></scales>
<clustering>
<clus scale="   31.219">  2  9  1 -1</clus>
<clus scale="   94.296">  5  6 -1 -1</clus>
<clus scale="   96.412">  7  8 -1 -1</clus>
<clus scale="   96.674">  1  5  2 -1</clus>
<clus scale="   31.219">  2  5  1 -1</clus>
</clustering>
</event>
<event>
 9    1  0.1445593E-005  0.1411369E+03  0.7546771E-02  0.1212040E+00
          2   -1    0    0  502    0 -0.00000000000E+00  0.00000000000E+00  0.71254606112E+03  0.71254606112E+03  0.00000000000E+00 0. -1.
         21   -1    0    0  501  502  0.00000000000E+00 -0.00000000000E+00 -0.45160478349E+02  0.45160478349E+02  0.00000000000E+00 0. -1.
         23    2    1    2    0    0  0.88330758424E+02  0.48628812685E+02  0.44170755128E+03  0.46206730176E+03  0.90738890170E+02 0.  0.
         23    2    1    2    0    0 -0.11242262314E+03 -0.55601622018E+02  0.22201563179E+03  0.27029261689E+03  0.89648041940E+02 0.  0.
        -13    1    4    4    0    0 -0.66938473557E+02 -0.78343661097E+02  0.14104158630E+03  0.17467460475E+03  0.00000000000E+00 0. -1.
         13    1    4    4    0    0 -0.45484149579E+02  0.22742039079E+02  0.80974045485E+02  0.95618012146E+02  0.00000000000E+00 0.  1.
        -13    1    3    3    0    0  0.31008725536E+02 -0.10570213038E+02  0.38622557411E+02  0.50645556607E+02  0.00000000000E+00 0.  1.
         13    1    3    3    0    0  0.57322032887E+02  0.59199025723E+02  0.40308499387E+03  0.41142174515E+03  0.00000000000E+00 0. -1.
          2    1    1    2  501    0  0.24091864712E+02  0.69728093335E+01  0.36623997002E+01  0.25346620818E+02  0.00000000000E+00 0. -1.
<scales pt_clust_5="13000.00000" pt_clust_6="13000.00000" pt_clust_7="13000.00000" pt_clust_8="13000.00000" pt_clust_9="25.08063"></scales>
<clustering>
<clus scale="   25.081">  2  9  1 -1</clus>
<clus scale="   89.648">  5  6 -1 -1</clus>
<clus scale="   90.739">  7  8 -1 -1</clus>
<clus scale="  140.438">  2  5  1 -1</clus>
<clus scale="   25.081">  2  5  1 -1</clus>
</clustering>
</event>
<event>
 9    1  0.1445593E-005  0.1023293E+03  0.7546771E-02  0.1275490E+00
         21   -1    0    0  501  502  0.00000000000E+00  0.00000000000E+00  0.47302271844E+02  0.47302271844E+02  0.00000000000E+00 0.  1.
          2   -1    0    0  502    0 -0.00000000000E+00 -0.00000000000E+00 -0.35748266026E+03  0.35748266026E+03  0.00000000000E+00 0. -1.
         23    2    1    2    0    0  0.30566262179E+02  0.39750893810E+02 -0.21725771419E+03  0.24089372238E+03  0.91183557526E+02 0.  0.
         23    2    1    2    0    0 -0.44060831370E+02 -0.10164690850E+02 -0.62806055681E+02  0.11956900857E+03  0.91145320111E+02 0.  0.
        -13    1    3    3    0    0 -0.11009184712E+02 -0.18142129614E+02 -0.11056904385E+03  0.11258708839E+03  0.00000000000E+00 0. -1.
         13    1    3    3    0    0  0.41575446890E+02  0.57893023424E+02 -0.10668867034E+03  0.12830663399E+03  0.00000000000E+00 0.  1.
        -13    1    4    4    0    0  0.90982407678E+01  0.31251617085E+02 -0.31383360969E+02  0.45214565144E+02  0.00000000000E+00 0.  1.
         13    1    4    4    0    0 -0.53159072138E+02 -0.41416307935E+02 -0.31422694712E+02  0.74354443421E+02  0.00000000000E+00 0. -1.
          2    1    1    2  501    0  0.13494569192E+02 -0.29586202959E+02 -0.30116618544E+02  0.44322201161E+02  0.00000000000E+00 0. -1.
<scales pt_clust_5="13000.00000" pt_clust_6="13000.00000" pt_clust_7="13000.00000" pt_clust_8="13000.00000" pt_clust_9="32.51841"></scales>
<clustering>
<clus scale="   32.518">  1  9  2 -1</clus>
<clus scale="   91.145">  7  8 -1 -1</clus>
<clus scale="   91.184">  5  6 -1 -1</clus>
<clus scale="  102.295">  1  7  2 -1</clus>
<clus scale="   32.518">  1  5  2 -1</clus>
</clustering>
</event>
<event>
 9    1  0.1445593E-005  0.9262434E+02  0.7546771E-02  0.1297603E+00
          1   -1    0    0  502    0 -0.00000000000E+00  0.00000000000E+00  0.46040908390E+03  0.46040908390E+03  0.00000000000E+00 0. -1.
         21   -1    0    0  501  502  0.00000000000E+00 -0.00000000000E+00 -0.21041459739E+03  0.21041459739E+03  0.00000000000E+00 0. -1.
         23    2    1    2    0    0  0.12659419136E+02  0.11395302982E+02  0.36259363857E+03  0.37439148202E+03  0.91677266820E+02 0.  0.
         23    2    1    2    0    0 -0.12430227733E+02  0.27949435192E+02  0.64599688630E+02  0.11491776432E+03  0.89984950392E+02 0.  0.
        -13    1    3    3    0    0  0.48930627447E+02  0.18518531616E+02  0.26314514625E+03  0.26829556521E+03  0.00000000000E+00 0. -1.
         13    1    3    3    0    0 -0.36271208311E+02 -0.71232286340E+01  0.99448492324E+02  0.10609591681E+03  0.00000000000E+00 0.  1.
        -13    1    4    4    0    0 -0.33140860088E+02 -0.22364476530E+02  0.20793341407E+02  0.45064947184E+02  0.00000000000E+00 0.  1.
         13    1    4    4    0    0  0.20710632355E+02  0.50313911723E+02  0.43806347223E+02  0.69852817140E+02  0.00000000000E+00 0. -1.
          1    1    1    2  501    0 -0.22919140282E+00 -0.39344738175E+02 -0.17719884070E+03  0.18151443495E+03  0.00000000000E+00 0. -1.
<scales pt_clust_5="13000.00000" pt_clust_6="13000.00000" pt_clust_7="13000.00000" pt_clust_8="13000.00000" pt_clust_9="39.34541"></scales>
<clustering>
<clus scale="   39.345">  2  9  1 -1</clus>
<clus scale="   89.985">  7  8 -1 -1</clus>
<clus scale="   90.950">  2  7  1 -1</clus>
<clus scale="   91.677">  5  6 -1 -1</clus>
<clus scale="   39.345">  2  5  1 -1</clus>
</clustering>
</event>
<event>
 9    1  0.1445593E-005  0.1020041E+03  0.7546771E-02  0.1276945E+00
         21   -1    0    0  501  502  0.00000000000E+00  0.00000000000E+00  0.33184831412E+02  0.33184831412E+02  0.00000000000E+00 0. -1.
         -1   -1    0    0    0  501 -0.00000000000E+00 -0.00000000000E+00 -0.48615831325E+03  0.48615831325E+03  0.00000000000E+00 0.  1.
         23    2    1    2    0    0 -0.98147193561E+00 -0.43190183989E+02 -0.30923256501E+03  0.32552392144E+03  0.92058073445E+02 0.  0.
         23    2    1    2    0    0 -0.25373445261E+02  0.44029047573E+02 -0.11346427180E+03  0.15366999425E+03  0.90321411660E+02 0.  0.
        -11    1    3    3    0    0  0.42105219130E+02 -0.26738382010E+02 -0.21366429722E+03  0.21940880214E+03  0.00000000000E+00 0.  1.
         11    1    3    3    0    0 -0.43086691065E+02 -0.16451801979E+02 -0.95568267790E+02  0.10611511930E+03  0.00000000000E+00 0. -1.
        -11    1    4    4    0    0 -0.20505397959E+02 -0.48513942139E+01  0.80854853269E+01  0.22569502526E+02  0.00000000000E+00 0. -1.
         11    1    4    4    0    0 -0.48680473019E+01  0.48880441787E+02 -0.12154975712E+03  0.13110049173E+03  0.00000000000E+00 0.  1.
         -1    1    1    2    0  502  0.26354917197E+02 -0.83886358386E+00 -0.30276645023E+02  0.40149228964E+02  0.00000000000E+00 0.  1.
<scales pt_clust_5="13000.00000" pt_clust_6="13000.00000" pt_clust_7="13000.00000" pt_clust_8="13000.00000" pt_clust_9="26.36826"></scales>
<clustering>
<clus scale="   26.368">  1  9  2 -1</clus>
<clus scale="   90.321">  7  8 -1 -1</clus>
<clus scale="   92.058">  5  6 -1 -1</clus>
<clus scale="  100.440">  1  7  2 -1</clus>
<clus scale="   26.368">  1  5  2 -1</clus>
</clustering>
</event>
<event>
 9    1  0.1445593E-005  0.1788994E+03  0.7546771E-02  0.1194374E+00
          2   -1    0    0  502    0 -0.00000000000E+00  0.00000000000E+00  0.96029322955E+03  0.96029322955E+03  0.00000000000E+00 0. -1.
         21   -1    0    0  501  502  0.00000000000E+00 -0.00000000000E+00 -0.57562250721E+02  0.57562250721E+02  0.00000000000E+00 0. -1.
         23    2    1    2    0    0  0.44917443054E+02  0.12816780910E+02  0.26353116743E+03  0.28222307890E+03  0.89550787216E+02 0.  0.
         23    2    1    2    0    0 -0.17396607631E+03  0.51698629465E+02  0.47775878682E+03  0.51911683072E+03  0.91059769138E+02 0.  0.
        -11    1    4    4    0    0 -0.17086213602E+03  0.21012115172E+02  0.40068027224E+03  0.43609638736E+03  0.00000000000E+00 0. -1.
         11    1    4    4    0    0 -0.31039402882E+01  0.30686514293E+02  0.77078514582E+02  0.83020443355E+02  0.00000000000E+00 0.  1.
        -11    1    3    3    0    0  0.61592790861E+02  0.29563234498E+02  0.23719376256E+03  0.24683706715E+03  0.00000000000E+00 0.  1.
         11    1    3    3    0    0 -0.16675347807E+02 -0.16746453588E+02  0.26337404869E+02  0.35386011749E+02  0.00000000000E+00 0. -1.
          2    1    1    2  501    0  0.12904863325E+03 -0.64515410375E+02  0.16144102457E+03  0.21651557065E+03  0.00000000000E+00 0. -1.
<scales pt_clust_5="13000.00000" pt_clust_6="13000.00000" pt_clust_7="13000.00000" pt_clust_8="13000.00000" pt_clust_9="153.99062"></scales>
<clustering>
<clus scale="   89.551">  7  8 -1 -1</clus>
<clus scale="   91.060">  5  6 -1 -1</clus>
<clus scale="  101.001">  1  7  2 -1</clus>
<clus scale="  153.991">  2  9  1 -1</clus>
<clus scale="  153.991">  2  5  1 -1</clus>
</clustering>
</event>
<event>
 9    1  0.1445593E-005  0.1283751E+03  0.7546771E-02  0.1231642E+00
          1   -1    0    0  502    0 -0.00000000000E+00  0.00000000000E+00  0.22024463375E+03  0.22024463375E+03  0.00000000000E+00 0. -1.
         21   -1    0    0  501  502  0.00000000000E+00 -0.00000000000E+00 -0.19540585164E+03  0.19540585164E+03  0.00000000000E+00 0. -1.
         23    2    1    2    0    0  0.96190876808E+02 -0.44055349457E+02  0.13185641117E+03  0.19113394302E+03  0.89176860293E+02 0.  0.
         23    2    1    2    0    0 -0.39766212799E+02  0.28111990015E+02 -0.54744146410E+01  0.10726059235E+03  0.95410847358E+02 0.  0.
        -11    1    4    4    0    0 -0.23800135953E+02  0.48921516871E+02  0.30784438409E+02  0.62509542731E+02  0.00000000000E+00 0. -1.
         11    1    4    4    0    0 -0.15966076846E+02 -0.20809526856E+02 -0.36258853050E+02  0.44751049623E+02  0.00000000000E+00 0.  1.
        -13    1    3    3    0    0  0.16350074637E+02 -0.42887263164E+02  0.12568875828E+02  0.47588012376E+02  0.00000000000E+00 0.  1.
         13    1    3    3    0    0  0.79840802171E+02 -0.11680862927E+01  0.11928753534E+03  0.14354593065E+03  0.00000000000E+00 0. -1.
          1    1    1    2  501    0 -0.56424664009E+02  0.15943359442E+02 -0.10154321442E+03  0.11725595001E+03  0.00000000000E+00 0. -1.
<scales pt_clust_5="13000.00000" pt_clust_6="13000.00000" pt_clust_7="13000.00000" pt_clust_8="13000.00000" pt_clust_9="58.63389"></scales>
<clustering>
<clus scale="   58.634">  2  9  1 -1</clus>
<clus scale="   89.177">  7  8 -1 -1</clus>
<clus scale="   95.411">  5  6 -1 -1</clus>
<clus scale="  123.812">  1  7  2 -1</clus>
<clus scale="   58.634">  2  5  1 -1</clus>
</clustering>
</event>
<event>
 9    1  0.1445593E-005  0.1271196E+03  0.7546771E-02  0.1233027E+00
         21   -1    0    0  501  502  0.00000000000E+00  0.00000000000E+00  0.17249374611E+03  0.17249374611E+03  0.00000000000E+00 0. -1.
         -3   -1    0    0    0  501 -0.00000000000E+00 -0.00000000000E+00 -0.28026140320E+03  0.28026140320E+03  0.00000000000E+00 0.  1.
         23    2    1    2    0    0  0.58217175383E+02 -0.66125807336E+02 -0.19986273490E+03  0.23588210503E+03  0.89069595072E+02 0.  0.
         23    2    1    2    0    0 -0.18069803679E+02  0.77394221817E+02  0.11597669593E+03  0.16881973738E+03  0.93451197717E+02 0.  0.
        -11    1    3    3    0    0  0.78510104880E+02 -0.42899082906E+02 -0.17390918622E+03  0.19557242376E+03  0.00000000000E+00 0.  1.
         11    1    3    3    0    0 -0.20292929497E+02 -0.23226724430E+02 -0.25953548684E+02  0.40309681276E+02  0.00000000000E+00 0. -1.
        -11    1    4    4    0    0  0.26837087968E+02 -0.61950173370E+01  0.30677817609E+02  0.41227854949E+02  0.00000000000E+00 0.  1.
         11    1    4    4    0    0 -0.44906891647E+02  0.83589239154E+02  0.85298878319E+02  0.12759188243E+03  0.00000000000E+00 0. -1.
         -3    1    1    2    0  502 -0.40147371703E+02 -0.11268414481E+02 -0.23881618113E+02  0.48053306892E+02  0.00000000000E+00 0.  1.
<scales pt_clust_5="13000.00000" pt_clust_6="13000.00000" pt_clust_7="13000.00000" pt_clust_8="13000.00000" pt_clust_9="41.69881"></scales>
<clustering>
<clus scale="   41.699">  1  9  2 -1</clus>
<clus scale="   89.070">  5  6 -1 -1</clus>
<clus scale="   93.451">  7  8 -1 -1</clus>
<clus scale="  123.934">  2  5  1 -1</clus>
<clus scale="   41.699">  1  5  2 -1</clus>
</clustering>
</event>
<event>
 9    1  0.1445593E-005  0.1424901E+03  0.7546771E-02  0.1210252E+00
          2   -1    0    0  502    0 -0.00000000000E+00  0.00000000000E+00  0.17037073864E+03  0.17037073864E+03  0.00000000000E+00 0. -1.
         21   -1    0    0  501  502  0.00000000000E+00 -0.00000000000E+00 -0.31905053022E+03  0.31905053022E+03  0.00000000000E+00 0.  1.
         23    2    1    2    0    0 -0.10972516353E+03  0.61228905207E+01  0.10536034625E+03  0.17698051560E+03  0.90245216161E+02 0.  0.
         23    2    1    2    0    0  0.10287546759E+03 -0.42928871819E+02 -0.19389925263E+03  0.24159920706E+03  0.91361954967E+02 0.  0.
        -11    1    3    3    0    0 -0.80205566878E+02  0.45954658310E+02  0.64226189517E+02  0.11256005952E+03  0.00000000000E+00 0. -1.
         11    1    3    3    0    0 -0.29519596649E+02 -0.39831767789E+02  0.41134156734E+02  0.64420456081E+02  0.00000000000E+00 0.  1.
        -11    1    4    4    0    0  0.69143142259E+01  0.21012305562E+02 -0.64936932226E+02  0.68601238277E+02  0.00000000000E+00 0. -1.
         11    1    4    4    0    0  0.95961153367E+02 -0.63941177381E+02 -0.12896232040E+03  0.17299796878E+03  0.00000000000E+00 0.  1.
          2    1    1    2  501    0  0.68496959339E+01  0.36805981298E+02 -0.60140885204E+02  0.70841546192E+02  0.00000000000E+00 0. -1.
<scales pt_clust_5="13000.00000" pt_clust_6="13000.00000" pt_clust_7="13000.00000" pt_clust_8="13000.00000" pt_clust_9="37.43793"></scales>
<clustering>
<clus scale="   37.438">  2  9  1 -1</clus>
<clus scale="   90.245">  5  6 -1 -1</clus>
<clus scale="   91.362">  7  8 -1 -1</clus>
<clus scale="  141.777">  1  5  2 -1</clus>
<clus scale="   37.438">  2  5  1 -1</clus>
</clustering>
</event>
<event>
 9    1  0.1445593E-005  0.1269601E+03  0.7546771E-02  0.1232377E+00
         21   -1    0    0  501  502  0.00000000000E+00  0.00000000000E+00  0.11536183486E+03  0.11536183486E+03  0.00000000000E+00 0.  1.
          1   -1    0    0  502    0 -0.00000000000E+00 -0.00000000000E+00 -0.31921979422E+03  0.31921979422E+03  0.00000000000E+00 0. -1.
         23    2    1    2    0    0  0.69883018478E+02  0.49757824294E+02 -0.23966551484E+03  0.27058685165E+03  0.91750792548E+02 0.  0.
         23    2    1    2    0    0 -0.61278169594E+02 -0.69520947533E+02  0.47353134205E+02  0.13954227545E+03  0.92959943551E+02 0.  0.
        -11    1    3    3    0    0  0.59174280766E+02 -0.13616895203E+02 -0.12983057132E+03  0.14332826863E+03  0.00000000000E+00 0. -1.
         11    1    3    3    0    0  0.10708737712E+02  0.63374719497E+02 -0.10983494352E+03  0.12725858302E+03  0.00000000000E+00 0.  1.
        -13    1    4    4    0    0 -0.23409578798E+02 -0.67308772596E+02 -0.87711045053E+01  0.71801194434E+02  0.00000000000E+00 0. -1.
         13    1    4    4    0    0 -0.37868590796E+02 -0.22121749367E+01  0.56124238711E+02  0.67741081019E+02  0.00000000000E+00 0.  1.
          1    1    1    2  501    0 -0.86048488840E+01  0.19763123239E+02 -0.11545578728E+02  0.24452501971E+02  0.00000000000E+00 0. -1.
<scales pt_clust_5="13000.00000" pt_clust_6="13000.00000" pt_clust_7="13000.00000" pt_clust_8="13000.00000" pt_clust_9="21.55516"></scales>
<clustering>
<clus scale="   21.555">  1  9  2 -1</clus>
<clus scale="   91.751">  5  6 -1 -1</clus>
<clus scale="   92.960">  7  8 -1 -1</clus>
<clus scale="  126.077">  2  5  1 -1</clus>
<clus scale="   21.555">  1  5  2 -1</clus>
</clustering>
</event>
<event>
 9    1  0.1445593E-005  0.9133862E+02  0.7546771E-02  0.1314130E+00
          2   -1    0    0  502    0 -0.00000000000E+00  0.00000000000E+00  0.38711137157E+03  0.38711137157E+03  0.00000000000E+00 0. -1.
         21   -1    0    0  501  502  0.00000000000E+00 -0.00000000000E+00 -0.32981855634E+02  0.32981855634E+02  0.00000000000E+00 0.  1.
         23    2    1    2    0    0 -0.60983853274E+01 -0.15039692236E+01  0.25210029659E+03  0.26814123615E+03  0.91135672237E+02 0.  0.
         23    2    1    2    0    0 -0.17447486179E+02  0.97352339482E+01  0.10406651030E+03  0.12692575805E+03  0.69865012253E+02 0.  0.
        -11    1    4    4    0    0 -0.27909855396E+02 -0.18286864767E+02  0.23024797718E+02  0.40540236324E+02  0.00000000000E+00 0.  1.
         11    1    4    4    0    0  0.10462369217E+02  0.28022098716E+02  0.81041712582E+02  0.86385521728E+02  0.00000000000E+00 0. -1.
        -13    1    3    3    0    0  0.13097228390E+02 -0.40327933772E+02  0.17125131729E+03  0.17642248526E+03  0.00000000000E+00 0.  1.
         13    1    3    3    0    0 -0.19195613718E+02  0.38823964548E+02  0.80848979305E+02  0.91718750885E+02  0.00000000000E+00 0. -1.
          2    1    1    2  501    0  0.23545871506E+02 -0.82312647247E+01 -0.20372909551E+01  0.25026233004E+02  0.00000000000E+00 0. -1.
<scales pt_clust_5="13000.00000" pt_clust_6="13000.00000" pt_clust_7="13000.00000" pt_clust_8="13000.00000" pt_clust_9="24.94317"></scales>
<clustering>
<clus scale="   24.943">  2  9  1 -1</clus>
<clus scale="   69.865">  5  6 -1 -1</clus>
<clus scale="   70.130">  2  5  1 -1</clus>
<clus scale="   91.136">  7  8 -1 -1</clus>
<clus scale="   24.943">  2  5  1 -1</clus>
</clustering>
</event>
<event>
 9    1  0.1445593E-005  0.1113063E+03  0.7546771E-02  0.1258213E+00
         21   -1    0    0  501  502  0.00000000000E+00  0.00000000000E+00  0.25548286890E+03  0.25548286890E+03  0.00000000000E+00 0.  1.
         -2   -1    0    0    0  501 -0.00000000000E+00 -0.00000000000E+00 -0.24921038354E+03  0.24921038354E+03  0.00000000000E+00 0.  1.
         23    2    1    2    0    0 -0.31012051058E+02 -0.72625554591E+02 -0.15494463954E+03  0.19645876029E+03  0.91389193464E+02 0.  0.
         23    2    1    2    0    0 -0.18142358320E+02  0.42314373520E+02 -0.31406289449E+02  0.10714072442E+03  0.91504800096E+02 0.  0.
        -11    1    4    4    0    0 -0.39044456449E+02 -0.14328299124E+02 -0.17862154840E+02  0.45263962605E+02  0.00000000000E+00 0.  1.
         11    1    4    4    0    0  0.20902098130E+02  0.56642672644E+02 -0.13544134609E+02  0.61876761815E+02  0.00000000000E+00 0. -1.
        -11    1    3    3    0    0 -0.43566828781E+02  0.73826609861E-02 -0.81447089514E+02  0.92367185812E+02  0.00000000000E+00 0.  1.
         11    1    3    3    0    0  0.12554777723E+02 -0.72632937252E+02 -0.73497550030E+02  0.10409157448E+03  0.00000000000E+00 0. -1.
         -2    1    1    2    0  502  0.49154409378E+02  0.30311181072E+02  0.19262341436E+03  0.20109376773E+03  0.00000000000E+00 0.  1.
<scales pt_clust_5="13000.00000" pt_clust_6="13000.00000" pt_clust_7="13000.00000" pt_clust_8="13000.00000" pt_clust_9="57.74880"></scales>
<clustering>
<clus scale="   57.749">  1  9  2 -1</clus>
<clus scale="   91.389">  7  8 -1 -1</clus>
<clus scale="   91.505">  5  6 -1 -1</clus>
<clus scale="  111.211">  2  7  1 -1</clus>
<clus scale="   57.749">  1  5  2 -1</clus>
</clustering>
</event>
<event>
 9    1  0.1445593E-005  0.1406780E+03  0.7546771E-02  0.1214888E+00
         21   -1    0    0  501  502  0.00000000000E+00  0.00000000000E+00  0.16158085866E+03  0.16158085866E+03  0.00000000000E+00 0.  1.
          2   -1    0    0  502    0 -0.00000000000E+00 -0.00000000000E+00 -0.63777212212E+03  0.63777212212E+03  0.00000000000E+00 0. -1.
         23    2    1    2    0    0  0.89259460276E+02 -0.47517400314E+02 -0.58356329483E+03  0.59923281289E+03  0.91152018032E+02 0.  0.
         23    2    1    2    0    0 -0.54784999911E+02  0.74645382218E+01  0.65998511752E+02  0.13300468306E+03  0.10137715036E+03 0.  0.
        -11    1    3    3    0    0  0.87486730379E+02  0.10161734347E+01 -0.38503401855E+03  0.39484953595E+03  0.00000000000E+00 0.  1.
         11    1    3    3    0    0  0.17727298968E+01 -0.48533573748E+02 -0.19852927627E+03  0.20438327693E+03  0.00000000000E+00 0. -1.
        -11    1    4    4    0    0 -0.53009126057E+02 -0.36838812448E+02  0.60237922102E+02  0.88293107358E+02  0.00000000000E+00 0.  1.
         11    1    4    4    0    0 -0.17758738541E+01  0.44303350670E+02  0.57605896498E+01  0.44711575700E+02  0.00000000000E+00 0. -1.
          2    1    1    2  501    0 -0.34474460365E+02  0.40052862092E+02  0.41373519615E+02  0.67115484835E+02  0.00000000000E+00 0. -1.
<scales pt_clust_5="13000.00000" pt_clust_6="13000.00000" pt_clust_7="13000.00000" pt_clust_8="13000.00000" pt_clust_9="52.84619"></scales>
<clustering>
<clus scale="   52.846">  1  9  2 -1</clus>
<clus scale="   91.152">  5  6 -1 -1</clus>
<clus scale="  101.377">  7  8 -1 -1</clus>
<clus scale="  133.498">  2  5  1 -1</clus>
<clus scale="   52.846">  1  5  2 -1</clus>
</clustering>
</event>
<event>
 9    1  0.1445593E-005  0.1084360E+03  0.7546771E-02  0.1271742E+00
         21   -1    0    0  501  502  0.00000000000E+00  0.00000000000E+00  0.17859161613E+03  0.17859161613E+03  0.00000000000E+00 0.  1.
         -1   -1    0    0    0  501 -0.00000000000E+00 -0.00000000000E+00 -0.27432332753E+03  0.27432332753E+03  0.00000000000E+00 0.  1.
         23    2    1    2    0    0 -0.40937906455E+02  0.25684286150E+02 -0.18620379307E+03  0.21929120835E+03  0.10526721601E+03 0.  0.
         23    2    1    2    0    0 -0.11402837373E+02  0.25511785899E+02 -0.25579128829E+02  0.96406845996E+02  0.88651633958E+02 0.  0.
        -13    1    4    4    0    0  0.18979128915E+02  0.50059464235E+02 -0.18933895222E+02  0.56785998998E+02  0.00000000000E+00 0.  1.
         13    1    4    4    0    0 -0.30381966288E+02 -0.24547678336E+02 -0.66452336070E+01  0.39620846999E+02  0.00000000000E+00 0. -1.
        -13    1    3    3    0    0 -0.27863503758E+02  0.63900719052E+02 -0.82557944203E+02  0.10805318546E+03  0.00000000000E+00 0.  1.
         13    1    3    3    0    0 -0.13074402696E+02 -0.38216432902E+02 -0.10364584886E+03  0.11123802289E+03  0.00000000000E+00 0. -1.
         -1    1    1    2    0  502  0.52340743828E+02 -0.51196072049E+02  0.11605121049E+03  0.13721688932E+03  0.00000000000E+00 0.  1.
<scales pt_clust_5="13000.00000" pt_clust_6="13000.00000" pt_clust_7="13000.00000" pt_clust_8="13000.00000" pt_clust_9="73.21606"></scales>
<clustering>
<clus scale="   73.216">  1  9  2 -1</clus>
<clus scale="   88.652">  5  6 -1 -1</clus>
<clus scale="   92.392">  1  5  2 -1</clus>
<clus scale="  105.267">  7  8 -1 -1</clus>
<clus scale="   73.216">  1  5  2 -1</clus>
</clustering>
</event>
<event>
 9    1  0.1445593E-005  0.3108409E+03  0.7546771E-02  0.1079973E+00
          1   -1    0    0  502    0 -0.00000000000E+00  0.00000000000E+00  0.11629198508E+04  0.11629198508E+04  0.00000000000E+00 0. -1.
         21   -1    0    0  501  502  0.00000000000E+00 -0.00000000000E+00 -0.32270876199E+03  0.32270876199E+03  0.00000000000E+00 0. -1.
         23    2    1    2    0    0 -0.29061227014E+03  0.57212801894E+02  0.64745953160E+03  0.71783288099E+03  0.91386014895E+02 0.  0.
         23    2    1    2    0    0  0.28639534861E+03 -0.87003236630E+02  0.42831318992E+03  0.53032039567E+03  0.90529964764E+02 0.  0.
        -13    1    3    3    0    0 -0.18847238854E+03  0.11795652930E+02  0.31706467417E+03  0.36904062958E+03  0.00000000000E+00 0.  1.
         13    1    3    3    0    0 -0.10213988160E+03  0.45417148964E+02  0.33039485743E+03  0.34879225141E+03  0.00000000000E+00 0. -1.
        -13    1    4    4    0    0  0.20098249733E+03 -0.10228327916E+03  0.29660413845E+03  0.37259877667E+03  0.00000000000E+00 0. -1.
         13    1    4    4    0    0  0.85412851287E+02  0.15280042528E+02  0.13170905146E+03  0.15772161901E+03  0.00000000000E+00 0.  1.
          1    1    1    2  501    0  0.42169215228E+01  0.29790434736E+02 -0.23556163274E+03  0.23747533609E+03  0.00000000000E+00 0. -1.
<scales pt_clust_5="13000.00000" pt_clust_6="13000.00000" pt_clust_7="13000.00000" pt_clust_8="13000.00000" pt_clust_9="30.08741"></scales>
<clustering>
<clus scale="   30.087">  2  9  1 -1</clus>
<clus scale="   90.530">  7  8 -1 -1</clus>
<clus scale="   91.386">  5  6 -1 -1</clus>
<clus scale="  310.590">  2  7  1 -1</clus>
<clus scale="   30.087">  2  5  1 -1</clus>
</clustering>
</event>
<event>
 9    1  0.1445593E-005  0.1373998E+03  0.7546771E-02  0.1227757E+00
         21   -1    0    0  501  502  0.00000000000E+00  0.00000000000E+00  0.82068031308E+02  0.82068031308E+02  0.00000000000E+00 0. -1.
          2   -1    0    0  502    0 -0.00000000000E+00 -0.00000000000E+00 -0.41016159418E+03  0.41016159418E+03  0.00000000000E+00 0. -1.
         23    2    1    2    0    0  0.42250636757E+01  0.61044505909E+02 -0.67703620006E+02  0.12867263091E+03  0.90711536854E+02 0.  0.
         23    2    1    2    0    0  0.51564040710E+02  0.46814805328E+02 -0.19403138736E+03  0.22517522889E+03  0.90582714298E+02 0.  0.
        -11    1    4    4    0    0 -0.19750799880E+02  0.12485330481E+02 -0.11126220481E+02  0.25879921857E+02  0.00000000000E+00 0.  1.
         11    1    4    4    0    0  0.71314840590E+02  0.34329474846E+02 -0.18290516688E+03  0.19929530703E+03  0.00000000000E+00 0. -1.
        -11    1    3    3    0    0 -0.22203094907E+01 -0.23286237747E+02 -0.23834652701E+02  0.33395648100E+02  0.00000000000E+00 0.  1.
         11    1    3    3    0    0  0.64453731664E+01  0.84330743656E+02 -0.43868967305E+02  0.95276982809E+02  0.00000000000E+00 0. -1.
          2    1    1    2  501    0 -0.55789104386E+02 -0.10785931124E+03 -0.66358555506E+02  0.13838176570E+03  0.00000000000E+00 0. -1.
<scales pt_clust_5="13000.00000" pt_clust_6="13000.00000" pt_clust_7="13000.00000" pt_clust_8="13000.00000" pt_clust_9="103.31248"></scales>
<clustering>
<clus scale="   90.583">  5  6 -1 -1</clus>
<clus scale="   90.712">  7  8 -1 -1</clus>
<clus scale="  109.421">  2  7  1 -1</clus>
<clus scale="  103.312">  1  9  2 -1</clus>
<clus scale="  103.312">  1  5  2 -1</clus>
</clustering>
</event>
<event>
 9    1  0.1445593E-005  0.1257114E+03  0.7546771E-02  0.1234343E+00
         -3   -1    0    0    0  501 -0.00000000000E+00  0.00000000000E+00  0.14632392114E+03  0.14632392114E+03  0.00000000000E+00 0.  1.
         21   -1    0    0  501  502  0.00000000000E+00 -0.00000000000E+00 -0.23783790862E+03  0.23783790862E+03  0.00000000000E+00 0. -1.
         23    2    1    2    0    0  0.79228621131E+02  0.27598711991E+02  0.76583992622E+02  0.14744435712E+03  0.93999293679E+02 0.  0.
         23    2    1    2    0    0 -0.87813423209E+02  0.85297575456E+01 -0.11583127503E+03  0.17260215780E+03  0.92685848653E+02 0.  0.
        -11    1    4    4    0    0 -0.25338288030E+02 -0.33559232106E+02 -0.77281580929E+02  0.87981211919E+02  0.00000000000E+00 0. -1.
         11    1    4    4    0    0 -0.62475135179E+02  0.42088989652E+02 -0.38549694104E+02  0.84620945877E+02  0.00000000000E+00 0.  1.
        -11    1    3    3    0    0  0.60002854903E+02 -0.14047191453E+02  0.42228751395E+01  0.61769724450E+02  0.00000000000E+00 0. -1.
         11    1    3    3    0    0  0.19225766228E+02  0.41645903443E+02  0.72361117482E+02  0.85674632675E+02  0.00000000000E+00 0.  1.
         -3    1    1    2    0  502  0.85848020781E+01 -0.36128469536E+02 -0.52266705071E+02  0.64115314837E+02  0.00000000000E+00 0.  1.
<scales pt_clust_5="13000.00000" pt_clust_6="13000.00000" pt_clust_7="13000.00000" pt_clust_8="13000.00000" pt_clust_9="37.13442"></scales>
<clustering>
<clus scale="   37.134">  2  9  1 -1</clus>
<clus scale="   92.686">  5  6 -1 -1</clus>
<clus scale="   93.999">  7  8 -1 -1</clus>
<clus scale="  124.732">  2  5  1 -1</clus>
<clus scale="   37.134">  2  5  1 -1</clus>
</clustering>
</event>
<event>
 9    1  0.1445593E-005  0.1578708E+03  0.7546771E-02  0.1191894E+00
          4   -1    0    0  502    0 -0.00000000000E+00  0.00000000000E+00  0.41976183717E+03  0.41976183717E+03  0.00000000000E+00 0. -1.
         21   -1    0    0  501  502  0.00000000000E+00 -0.00000000000E+00 -0.97627571018E+02  0.97627571018E+02  0.00000000000E+00 0.  1.
         23    2    1    2    0    0 -0.11185773509E+03 -0.37551124851E+02  0.16812694181E+03  0.22728522297E+03  0.97312199328E+02 0.  0.
         23    2    1    2    0    0  0.12899593392E+03  0.24067544098E+02  0.18945222850E+03  0.24848849058E+03  0.92925698374E+02 0.  0.
        -11    1    4    4    0    0  0.10653860732E+03  0.96103042478E+01  0.74210573900E+02  0.13019232725E+03  0.00000000000E+00 0.  1.
         11    1    4    4    0    0  0.22457326604E+02  0.14457239850E+02  0.11524165460E+03  0.11829616333E+03  0.00000000000E+00 0. -1.
        -11    1    3    3    0    0 -0.18433371560E+02 -0.50359314221E+02  0.90276725449E+02  0.10500350886E+03  0.00000000000E+00 0.  1.
         11    1    3    3    0    0 -0.93424363530E+02  0.12808189370E+02  0.77850216366E+02  0.12228171410E+03  0.00000000000E+00 0. -1.
          4    1    1    2  501    0 -0.17138198831E+02  0.13483580753E+02 -0.35444904166E+02  0.41615694641E+02  0.00000000000E+00 0. -1.
<scales pt_clust_5="13000.00000" pt_clust_6="13000.00000" pt_clust_7="13000.00000" pt_clust_8="13000.00000" pt_clust_9="21.80653"></scales>
<clustering>
<clus scale="   21.807">  2  9  1 -1</clus>
<clus scale="   92.926">  5  6 -1 -1</clus>
<clus scale="   97.312">  7  8 -1 -1</clus>
<clus scale="  155.205">  2  5  1 -1</clus>
<clus scale="   21.807">  2  5  1 -1</clus>
</clustering>
</event>
<event>
 9    1  0.1445593E-005  0.1770520E+03  0.7546771E-02  0.1170936E+00
         -3   -1    0    0    0  501 -0.00000000000E+00  0.00000000000E+00  0.27685568874E+03  0.27685568874E+03  0.00000000000E+00 0.  1.
         21   -1    0    0  501  502  0.00000000000E+00 -0.00000000000E+00 -0.21728155537E+03  0.21728155537E+03  0.00000000000E+00 0.  1.
         23    2    1    2    0    0 -0.46358435053E+02 -0.12572639419E+03  0.78143885036E+02  0.18036027019E+03  0.92017007101E+02 0.  0.
         23    2    1    2    0    0 -0.42627523479E+01  0.18642627010E+03  0.45507925976E+02  0.21202763328E+03  0.90065646650E+02 0.  0.
        -11    1    3    3    0    0 -0.17903801752E+02 -0.99754690286E+02  0.96909166762E+01  0.10181089439E+03  0.00000000000E+00 0.  1.
         11    1    3    3    0    0 -0.28454633301E+02 -0.25971703907E+02  0.68452968360E+02  0.78549375793E+02  0.00000000000E+00 0. -1.
        -13    1    4    4    0    0 -0.25961015214E+02  0.82343475936E+01  0.10181360409E+02  0.29076431882E+02  0.00000000000E+00 0.  1.
         13    1    4    4    0    0  0.21698262866E+02  0.17819192251E+03  0.35326565567E+02  0.18295120140E+03  0.00000000000E+00 0. -1.
         -3    1    1    2    0  502  0.50621187401E+02 -0.60699875908E+02 -0.64077677642E+02  0.10174934064E+03  0.00000000000E+00 0.  1.
<scales pt_clust_5="13000.00000" pt_clust_6="13000.00000" pt_clust_7="13000.00000" pt_clust_8="13000.00000" pt_clust_9="79.03784"></scales>
<clustering>
<clus scale="   79.038">  2  9  1 -1</clus>
<clus scale="   90.066">  7  8 -1 -1</clus>
<clus scale="   92.017">  5  6 -1 -1</clus>
<clus scale="  176.046">  2  7  1 -1</clus>
<clus scale="   79.038">  2  5  1 -1</clus>
</clustering>
</event>
<event>
 9    1  0.1445593E-005  0.1046789E+03  0.7546771E-02  0.1273524E+00
         21   -1    0    0  501  502  0.00000000000E+00  0.00000000000E+00  0.15016459158E+03  0.15016459158E+03  0.00000000000E+00 0. -1.
          2   -1    0    0  502    0 -0.00000000000E+00 -0.00000000000E+00 -0.35457839062E+03  0.35457839062E+03  0.00000000000E+00 0. -1.
         23    2    1    2    0    0  0.10361110646E+02 -0.37155916485E+02 -0.19001341284E+03  0.21445862898E+03  0.91648741080E+02 0.  0.
         23    2    1    2    0    0 -0.30180965810E+01  0.71873848943E+02 -0.12883233768E+03  0.17047648116E+03  0.85378570665E+02 0.  0.
        -11    1    4    4    0    0  0.18454050285E+01  0.44152462527E+02 -0.13466783646E+03  0.14173310003E+03  0.00000000000E+00 0. -1.
         11    1    4    4    0    0 -0.48635016095E+01  0.27721386416E+02  0.58354987855E+01  0.28743381130E+02  0.00000000000E+00 0.  1.
        -13    1    3    3    0    0  0.45000653148E+02 -0.42906646207E+02 -0.14161998384E+03  0.15466822200E+03  0.00000000000E+00 0.  1.
         13    1    3    3    0    0 -0.34639542501E+02  0.57507297220E+01 -0.48393428997E+02  0.59790406982E+02  0.00000000000E+00 0. -1.
          2    1    1    2  501    0 -0.73430140654E+01 -0.34717932458E+02  0.11443195147E+03  0.11980787206E+03  0.00000000000E+00 0. -1.
<scales pt_clust_5="13000.00000" pt_clust_6="13000.00000" pt_clust_7="13000.00000" pt_clust_8="13000.00000" pt_clust_9="35.48598"></scales>
<clustering>
<clus scale="   35.486">  1  9  2 -1</clus>
<clus scale="   85.379">  5  6 -1 -1</clus>
<clus scale="   91.649">  7  8 -1 -1</clus>
<clus scale="   99.236">  1  5  2 -1</clus>
<clus scale="   35.486">  1  5  2 -1</clus>
</clustering>
</event>
<event>
 9    1  0.1445593E-005  0.1109849E+03  0.7546771E-02  0.1261420E+00
          2   -1    0    0  502    0 -0.00000000000E+00  0.00000000000E+00  0.41055263891E+03  0.41055263891E+03  0.00000000000E+00 0. -1.
         21   -1    0    0  501  502  0.00000000000E+00 -0.00000000000E+00 -0.58435363666E+02  0.58435363666E+02  0.00000000000E+00 0.  1.
         23    2    1    2    0    0  0.36790649639E+02  0.57131699951E+02  0.31405873417E+03  0.33193379420E+03  0.83244051936E+02 0.  0.
         23    2    1    2    0    0 -0.10266436264E+02 -0.51167271126E+02  0.27231107022E+02  0.10779089287E+03  0.90298693499E+02 0.  0.
        -11    1    4    4    0    0 -0.11527647274E+02 -0.76663279627E+02  0.13133825837E+02  0.78629781100E+02  0.00000000000E+00 0. -1.
         11    1    4    4    0    0  0.12612110105E+01  0.25496008501E+02  0.14097281185E+02  0.29161111767E+02  0.00000000000E+00 0.  1.
        -13    1    3    3    0    0 -0.27081489161E+02  0.16110673142E+02  0.96087670962E+02  0.10112270445E+03  0.00000000000E+00 0. -1.
         13    1    3    3    0    0  0.63872138800E+02  0.41021026809E+02  0.21797106321E+03  0.23081108975E+03  0.00000000000E+00 0.  1.
          2    1    1    2  501    0 -0.26524213375E+02 -0.59644288257E+01  0.10827434049E+02  0.29263315507E+02  0.00000000000E+00 0. -1.
<scales pt_clust_5="13000.00000" pt_clust_6="13000.00000" pt_clust_7="13000.00000" pt_clust_8="13000.00000" pt_clust_9="27.18655"></scales>
<clustering>
<clus scale="   27.187">  2  9  1 -1</clus>
<clus scale="   83.244">  7  8 -1 -1</clus>
<clus scale="   90.299">  5  6 -1 -1</clus>
<clus scale="  105.325">  1  7  2 -1</clus>
<clus scale="   27.187">  2  5  1 -1</clus>
</clustering>
</event>
<event>
 9    1  0.1445593E-005  0.9606693E+02  0.7546771E-02  0.1291181E+00
          1   -1    0    0  502    0 -0.00000000000E+00  0.00000000000E+00  0.35866817766E+03  0.35866817766E+03  0.00000000000E+00 0. -1.
         21   -1    0    0  501  502  0.00000000000E+00 -0.00000000000E+00 -0.22578393461E+03  0.22578393461E+03  0.00000000000E+00 0. -1.
         23    2    1    2    0    0 -0.18530352277E+01 -0.88885644580E+01  0.32005615492E+03  0.33290383728E+03  0.91140453435E+02 0.  0.
         23    2    1    2    0    0  0.21010718628E+02  0.46569681017E+02 -0.74933479484E+02  0.13161350487E+03  0.95377685176E+02 0.  0.
        -11    1    4    4    0    0  0.17816913160E+01  0.71264567444E+02 -0.31154618412E+02  0.77797321582E+02  0.00000000000E+00 0. -1.
         11    1    4    4    0    0  0.19229027312E+02 -0.24694886427E+02 -0.43778861071E+02  0.53816183288E+02  0.00000000000E+00 0.  1.
        -11    1    3    3    0    0 -0.94084511400E+01  0.37787242551E+02  0.90396443784E+02  0.98427189847E+02  0.00000000000E+00 0. -1.
         11    1    3    3    0    0  0.75554159123E+01 -0.46675807009E+02  0.22965971114E+03  0.23447664743E+03  0.00000000000E+00 0.  1.
          1    1    1    2  501    0 -0.19157683400E+02 -0.37681116559E+02 -0.11223843240E+03  0.11993477012E+03  0.00000000000E+00 0. -1.
<scales pt_clust_5="13000.00000" pt_clust_6="13000.00000" pt_clust_7="13000.00000" pt_clust_8="13000.00000" pt_clust_9="42.27154"></scales>
<clustering>
<clus scale="   42.272">  2  9  1 -1</clus>
<clus scale="   91.140">  7  8 -1 -1</clus>
<clus scale="   91.861">  1  7  2 -1</clus>
<clus scale="   95.378">  5  6 -1 -1</clus>
<clus scale="   42.272">  2  5  1 -1</clus>
</clustering>
</event>
<event>
 9    1  0.1445593E-005  0.9511426E+02  0.7546771E-02  0.1292702E+00
         21   -1    0    0  501  502  0.00000000000E+00  0.00000000000E+00  0.66303725711E+03  0.66303725711E+03  0.00000000000E+00 0. -1.
         -3   -1    0    0    0  501 -0.00000000000E+00 -0.00000000000E+00 -0.17039549043E+02  0.17039549043E+02  0.00000000000E+00 0.  1.
         23    2    1    2    0    0 -0.11570645375E+02 -0.20708385740E+02  0.23994091302E+03  0.25730114532E+03  0.89830510224E+02 0.  0.
         23    2    1    2    0    0  0.21146779122E+02  0.93535190000E+00  0.31656028686E+03  0.33062198385E+03  0.93018384392E+02 0.  0.
        -11    1    4    4    0    0  0.58246352718E+02 -0.74950671584E+00  0.19129308202E+03  0.19996560353E+03  0.00000000000E+00 0. -1.
         11    1    4    4    0    0 -0.37099573596E+02  0.16848586158E+01  0.12526720484E+03  0.13065638032E+03  0.00000000000E+00 0.  1.
        -13    1    3    3    0    0 -0.86936671377E+00 -0.40053217623E+02  0.22928654174E+03  0.23276025061E+03  0.00000000000E+00 0. -1.
         13    1    3    3    0    0 -0.10701278661E+02  0.19344831883E+02  0.10654371272E+02  0.24540894702E+02  0.00000000000E+00 0.  1.
         -3    1    1    2    0  502 -0.95761337463E+01  0.19773033840E+02  0.89496508191E+02  0.92153676992E+02  0.00000000000E+00 0.  1.
<scales pt_clust_5="13000.00000" pt_clust_6="13000.00000" pt_clust_7="13000.00000" pt_clust_8="13000.00000" pt_clust_9="21.96987"></scales>
<clustering>
<clus scale="   21.970">  1  9  2 -1</clus>
<clus scale="   89.831">  7  8 -1 -1</clus>
<clus scale="   91.999">  2  7  1 -1</clus>
<clus scale="   93.018">  5  6 -1 -1</clus>
<clus scale="   21.970">  1  5  2 -1</clus>
</clustering>
</event>
<event>
 9    1  0.1445593E-005  0.9176372E+02  0.7546771E-02  0.1301429E+00
         21   -1    0    0  501  502  0.00000000000E+00  0.00000000000E+00  0.11891954745E+03  0.11891954745E+03  0.00000000000E+00 0. -1.
          1   -1    0    0  502    0 -0.00000000000E+00 -0.00000000000E+00 -0.66306099100E+03  0.66306099100E+03  0.00000000000E+00 0. -1.
         23    2    1    2    0    0  0.83729537319E+01  0.87163226586E+01 -0.35204640122E+03  0.36391394227E+03  0.91381661917E+02 0.  0.
         23    2    1    2    0    0 -0.76094530542E+01  0.14464440732E+02 -0.29740587891E+03  0.31023198658E+03  0.86755431326E+02 0.  0.
        -11    1    3    3    0    0  0.17353832062E+02  0.44595408526E+02 -0.26577330431E+03  0.27004695005E+03  0.00000000000E+00 0. -1.
         11    1    3    3    0    0 -0.89808783305E+01 -0.35879085868E+02 -0.86273096910E+02  0.93866992221E+02  0.00000000000E+00 0.  1.
        -11    1    4    4    0    0 -0.39238904702E+02 -0.64726399512E+01 -0.22504626191E+03  0.22853316326E+03  0.00000000000E+00 0.  1.
         11    1    4    4    0    0  0.31629451648E+02  0.20937080683E+02 -0.72359616999E+02  0.81698823317E+02  0.00000000000E+00 0. -1.
          1    1    1    2  501    0 -0.76350067770E+00 -0.23180763391E+02  0.10531083658E+03  0.10783460960E+03  0.00000000000E+00 0. -1.
<scales pt_clust_5="13000.00000" pt_clust_6="13000.00000" pt_clust_7="13000.00000" pt_clust_8="13000.00000" pt_clust_9="23.19333"></scales>
<clustering>
<clus scale="   23.193">  1  9  2 -1</clus>
<clus scale="   86.755">  7  8 -1 -1</clus>
<clus scale="   87.158">  1  7  2 -1</clus>
<clus scale="   91.382">  5  6 -1 -1</clus>
<clus scale="   23.193">  1  5  2 -1</clus>
</clustering>
</event>
<event>
 9    1  0.1445593E-005  0.9624901E+02  0.7546771E-02  0.1290175E+00
          2   -1    0    0  502    0 -0.00000000000E+00  0.00000000000E+00  0.28561394722E+03  0.28561394722E+03  0.00000000000E+00 0. -1.
         21   -1    0    0  501  502  0.00000000000E+00 -0.00000000000E+00 -0.87765174165E+02  0.87765174165E+02  0.00000000000E+00 0.  1.
         23    2    1    2    0    0 -0.16342455997E+02 -0.10757796426E+02  0.22781476715E+03  0.24730651837E+03  0.94223881493E+02 0.  0.
         23    2    1    2    0    0  0.27341388304E+02 -0.86964158806E+01 -0.96750678278E+01  0.95887100255E+02  0.90981041400E+02 0.  0.
        -11    1    4    4    0    0 -0.97191277061E+01  0.26768546937E+02  0.21658467919E+02  0.35778565945E+02  0.00000000000E+00 0. -1.
         11    1    4    4    0    0  0.37060516010E+02 -0.35464962817E+02 -0.31333535747E+02  0.60108534310E+02  0.00000000000E+00 0.  1.
        -13    1    3    3    0    0 -0.29338765196E+02  0.31988337295E+02  0.16232641490E+03  0.16802940766E+03  0.00000000000E+00 0.  1.
         13    1    3    3    0    0  0.12996309199E+02 -0.42746133721E+02  0.65488352252E+02  0.79277110704E+02  0.00000000000E+00 0. -1.
          2    1    1    2  501    0 -0.10998932306E+02  0.19454212307E+02 -0.20290926266E+02  0.30185502764E+02  0.00000000000E+00 0. -1.
<scales pt_clust_5="13000.00000" pt_clust_6="13000.00000" pt_clust_7="13000.00000" pt_clust_8="13000.00000" pt_clust_9="22.34822"></scales>
<clustering>
<clus scale="   22.348">  2  9  1 -1</clus>
<clus scale="   90.981">  5  6 -1 -1</clus>
<clus scale="   93.077">  2  5  1 -1</clus>
<clus scale="   94.224">  7  8 -1 -1</clus>
<clus scale="   22.348">  2  5  1 -1</clus>
</clustering>
</event>
<event>
 9    1  0.1445593E-005  0.9806894E+02  0.7546771E-02  0.1290763E+00
         21   -1    0    0  501  502  0.00000000000E+00  0.00000000000E+00  0.17794652475E+02  0.17794652475E+02  0.00000000000E+00 0.  1.
          2   -1    0    0  502    0 -0.00000000000E+00 -0.00000000000E+00 -0.67470114605E+03  0.67470114605E+03  0.00000000000E+00 0. -1.
         23    2    1    2    0    0 -0.20097331974E+02 -0.42589050862E+02 -0.36261694351E+03  0.37719545038E+03  0.92561493412E+02 0.  0.
         23    2    1    2    0    0  0.11189327741E+02  0.14541771667E+02 -0.23366081783E+03  0.24790713200E+03  0.80770688552E+02 0.  0.
        -11    1    4    4    0    0  0.30644927359E+02  0.23199708795E+02 -0.21828030672E+03  0.22163851282E+03  0.00000000000E+00 0. -1.
         11    1    4    4    0    0 -0.19455599619E+02 -0.86579371281E+01 -0.15380511106E+02  0.26268619182E+02  0.00000000000E+00 0.  1.
        -13    1    3    3    0    0 -0.31863061971E+02  0.18777433609E+02 -0.86111297279E+02  0.93717673094E+02  0.00000000000E+00 0. -1.
         13    1    3    3    0    0  0.11765729996E+02 -0.61366484470E+02 -0.27650564623E+03  0.28347777729E+03  0.00000000000E+00 0.  1.
          2    1    1    2  501    0  0.89080042337E+01  0.28047279194E+02 -0.60628732233E+02  0.67393216141E+02  0.00000000000E+00 0. -1.
<scales pt_clust_5="13000.00000" pt_clust_6="13000.00000" pt_clust_7="13000.00000" pt_clust_8="13000.00000" pt_clust_9="29.42792"></scales>
<clustering>
<clus scale="   29.428">  1  9  2 -1</clus>
<clus scale="   80.771">  5  6 -1 -1</clus>
<clus scale="   87.028">  1  5  2 -1</clus>
<clus scale="   92.561">  7  8 -1 -1</clus>
<clus scale="   29.428">  1  5  2 -1</clus>
</clustering>
</event>
<event>
 9    1  0.1445593E-005  0.1005499E+03  0.7546771E-02  0.1279184E+00
         21   -1    0    0  501  502  0.00000000000E+00  0.00000000000E+00  0.75515592316E+02  0.75515592316E+02  0.00000000000E+00 0. -1.
          2   -1    0    0  502    0 -0.00000000000E+00 -0.00000000000E+00 -0.31377059309E+03  0.31377059309E+03  0.00000000000E+00 0. -1.
         23    2    1    2    0    0 -0.36872250402E+02 -0.33380707073E+02 -0.15463585135E+03  0.18594880349E+03  0.90503461484E+02 0.  0.
         23    2    1    2    0    0  0.54009994539E+02 -0.35884676282E+02 -0.67651508501E+02  0.13021856654E+03  0.90417691678E+02 0.  0.
        -11    1    4    4    0    0  0.85771869332E+01 -0.59277953788E+02 -0.31981009047E+02  0.67898666266E+02  0.00000000000E+00 0. -1.
         11    1    4    4    0    0  0.45432807606E+02  0.23393277506E+02 -0.35670499454E+02  0.62319900279E+02  0.00000000000E+00 0.  1.
        -13    1    3    3    0    0 -0.21562517240E+02  0.29758710982E+02 -0.41062348439E+02  0.55105711940E+02  0.00000000000E+00 0.  1.
         13    1    3    3    0    0 -0.15309733163E+02 -0.63139418055E+02 -0.11357350291E+03  0.13084309155E+03  0.00000000000E+00 0. -1.
          2    1    1    2  501    0 -0.17137744137E+02  0.69265383355E+02 -0.15967640923E+02  0.73118815377E+02  0.00000000000E+00 0. -1.
<scales pt_clust_5="13000.00000" pt_clust_6="13000.00000" pt_clust_7="13000.00000" pt_clust_8="13000.00000" pt_clust_9="71.35402"></scales>
<clustering>
<clus scale="   71.354">  1  9  2 -1</clus>
<clus scale="   90.418">  5  6 -1 -1</clus>
<clus scale="   90.503">  7  8 -1 -1</clus>
<clus scale="  100.473">  1  5  2 -1</clus>
<clus scale="   71.354">  1  5  2 -1</clus>
</clustering>
</event>
<event>
 9    1  0.1445593E-005  0.9674047E+02  0.7546771E-02  0.1289646E+00
         21   -1    0    0  501  502  0.00000000000E+00  0.00000000000E+00  0.30723292193E+02  0.30723292193E+02  0.00000000000E+00 0.  1.
          1   -1    0    0  502    0 -0.00000000000E+00 -0.00000000000E+00 -0.46576503638E+03  0.46576503638E+03  0.00000000000E+00 0. -1.
         23    2    1    2    0    0 -0.21755674298E+02 -0.11949812630E+02 -0.20347001333E+03  0.22408792690E+03  0.90549683990E+02 0.  0.
         23    2    1    2    0    0  0.53450135712E+02 -0.68567766942E+01 -0.13429119325E+03  0.16837285877E+03  0.86089271055E+02 0.  0.
        -11    1    4    4    0    0  0.46151542343E+01 -0.21827416019E+02  0.24108894196E+01  0.22439878040E+02  0.00000000000E+00 0. -1.
         11    1    4    4    0    0  0.48834981478E+02  0.14970639325E+02 -0.13670208267E+03  0.14593298073E+03  0.00000000000E+00 0.  1.
        -11    1    3    3    0    0  0.34130685247E+02 -0.38270248167E+01 -0.10616698627E+03  0.11158395390E+03  0.00000000000E+00 0.  1.
         11    1    3    3    0    0 -0.55886359545E+02 -0.81227878131E+01 -0.97303027058E+02  0.11250397300E+03  0.00000000000E+00 0. -1.
          1    1    1    2  501    0 -0.31694461415E+02  0.18806589324E+02 -0.97280537610E+02  0.10402754291E+03  0.00000000000E+00 0. -1.
<scales pt_clust_5="13000.00000" pt_clust_6="13000.00000" pt_clust_7="13000.00000" pt_clust_8="13000.00000" pt_clust_9="36.85415"></scales>
<clustering>
<clus scale="   36.854">  1  9  2 -1</clus>
<clus scale="   86.089">  5  6 -1 -1</clus>
<clus scale="   90.550">  7  8 -1 -1</clus>
<clus scale="   92.579">  1  5  2 -1</clus>
<clus scale="   36.854">  1  5  2 -1</clus>
</clustering>
</event>
<event>
 9    1  0.1445593E-005  0.1075594E+03  0.7546771E-02  0.1270076E+00
         21   -1    0    0  501  502  0.00000000000E+00  0.00000000000E+00  0.61074384713E+02  0.61074384713E+02  0.00000000000E+00 0.  1.
         -1   -1    0    0    0  501 -0.00000000000E+00 -0.00000000000E+00 -0.27871969039E+03  0.27871969039E+03  0.00000000000E+00 0.  1.
         23    2    1    2    0    0  0.18510757681E+02  0.31179765603E+02 -0.13817922188E+03  0.17226678561E+03  0.96267970440E+02 0.  0.
         23    2    1    2    0    0 -0.40462839874E+02 -0.52653523210E+02 -0.83545494007E+02  0.13654894599E+03  0.85182921790E+02 0.  0.
        -11    1    3    3    0    0 -0.77595094564E+01  0.57914721200E+02 -0.51724949665E+02  0.78037140751E+02  0.00000000000E+00 0. -1.
         11    1    3    3    0    0  0.26270267137E+02 -0.26734955598E+02 -0.86454272219E+02  0.94229644864E+02  0.00000000000E+00 0.  1.
        -13    1    4    4    0    0  0.14693744444E+01 -0.64015613433E+02 -0.56336346377E+02  0.85287406735E+02  0.00000000000E+00 0.  1.
         13    1    4    4    0    0 -0.41932214318E+02  0.11362090224E+02 -0.27209147630E+02  0.51261539253E+02  0.00000000000E+00 0. -1.
         -1    1    1    2    0  502  0.21952082193E+02  0.21473757607E+02  0.40794102124E+01  0.30978343501E+02  0.00000000000E+00 0.  1.
<scales pt_clust_5="13000.00000" pt_clust_6="13000.00000" pt_clust_7="13000.00000" pt_clust_8="13000.00000" pt_clust_9="30.70857"></scales>
<clustering>
<clus scale="   30.709">  1  9  2 -1</clus>
<clus scale="   85.183">  7  8 -1 -1</clus>
<clus scale="   96.268">  5  6 -1 -1</clus>
<clus scale="   97.763">  1  7  2 -1</clus>
<clus scale="   30.709">  1  5  2 -1</clus>
</clustering>
</event>
<event>
 9    1  0.1445593E-005  0.1179127E+03  0.7546771E-02  0.1247506E+00
         21   -1    0    0  501  502  0.00000000000E+00  0.00000000000E+00  0.87116682498E+03  0.87116682498E+03  0.00000000000E+00 0.  1.
         -3   -1    0    0    0  501 -0.00000000000E+00 -0.00000000000E+00 -0.28322733775E+02  0.28322733775E+02  0.00000000000E+00 0.  1.
         23    2    1    2    0    0  0.92427815409E+02 -0.20055693363E+02  0.22491490797E+03  0.26106708690E+03  0.92866442486E+02 0.  0.
         23    2    1    2    0    0 -0.45029238219E+02  0.50145383583E+01  0.29677277881E+03  0.31343893755E+03  0.90094991207E+02 0.  0.
        -11    1    3    3    0    0  0.25043382695E+02 -0.46673762040E+02  0.55040370664E+02  0.76387521773E+02  0.00000000000E+00 0.  1.
         11    1    3    3    0    0  0.67384432714E+02  0.26618068677E+02  0.16987453730E+03  0.18467956513E+03  0.00000000000E+00 0. -1.
        -13    1    4    4    0    0  0.22742628018E+02  0.21281541219E+02  0.92608223145E+02  0.97705752747E+02  0.00000000000E+00 0.  1.
         13    1    4    4    0    0 -0.67771866237E+02 -0.16267002861E+02  0.20416455567E+03  0.21573318480E+03  0.00000000000E+00 0. -1.
         -3    1    1    2    0  502 -0.47398577190E+02  0.15041155005E+02  0.32115640443E+03  0.32498353431E+03  0.00000000000E+00 0.  1.
<scales pt_clust_5="13000.00000" pt_clust_6="13000.00000" pt_clust_7="13000.00000" pt_clust_8="13000.00000" pt_clust_9="49.72787"></scales>
<clustering>
<clus scale="   49.728">  1  9  2 -1</clus>
<clus scale="   90.095">  7  8 -1 -1</clus>
<clus scale="   92.866">  5  6 -1 -1</clus>
<clus scale="  115.743">  1  7  2 -1</clus>
<clus scale="   49.728">  1  5  2 -1</clus>
</clustering>
</event>
<event>
 9    1  0.1445593E-005  0.1094389E+03  0.7546771E-02  0.1261941E+00
          1   -1    0    0  502    0 -0.00000000000E+00  0.00000000000E+00  0.12456406282E+03  0.12456406282E+03  0.00000000000E+00 0. -1.
         21   -1    0    0  501  502  0.00000000000E+00 -0.00000000000E+00 -0.65064000725E+03  0.65064000725E+03  0.00000000000E+00 0. -1.
         23    2    1    2    0    0 -0.67595545158E+02  0.31437455659E+02  0.51516207477E+02  0.12881339041E+03  0.91550524695E+02 0.  0.
         23    2    1    2    0    0 -0.10461408306E+02 -0.59437489943E+02 -0.64442975378E+02  0.12658401629E+03  0.90710307191E+02 0.  0.
        -11    1    3    3    0    0  0.55657430811E+01 -0.24309770006E+02  0.18637730034E+02  0.31133701910E+02  0.00000000000E+00 0.  1.
         11    1    3    3    0    0 -0.73161288239E+02  0.55747225665E+02  0.32878477444E+02  0.97679688498E+02  0.00000000000E+00 0. -1.
        -13    1    4    4    0    0  0.19184854755E+02  0.17000106936E+02 -0.73101818066E+01  0.26655225489E+02  0.00000000000E+00 0.  1.
         13    1    4    4    0    0 -0.29646263061E+02 -0.76437596880E+02 -0.57132793571E+02  0.99928790804E+02  0.00000000000E+00 0. -1.
          1    1    1    2  501    0  0.78056953464E+02  0.28000034284E+02 -0.51314917653E+03  0.51980666336E+03  0.00000000000E+00 0. -1.
<scales pt_clust_5="13000.00000" pt_clust_6="13000.00000" pt_clust_7="13000.00000" pt_clust_8="13000.00000" pt_clust_9="82.92702"></scales>
<clustering>
<clus scale="   82.927">  2  9  1 -1</clus>
<clus scale="   90.710">  7  8 -1 -1</clus>
<clus scale="   91.551">  5  6 -1 -1</clus>
<clus scale="  108.737">  2  7  1 -1</clus>
<clus scale="   82.927">  2  5  1 -1</clus>
</clustering>
</event>
<event>
 9    1  0.1445593E-005  0.1224285E+03  0.7546771E-02  0.1239935E+00
         21   -1    0    0  501  502  0.00000000000E+00  0.00000000000E+00  0.21980833804E+03  0.21980833804E+03  0.00000000000E+00 0.  1.
         -1   -1    0    0    0  501 -0.00000000000E+00 -0.00000000000E+00 -0.33530110307E+03  0.33530110307E+03  0.00000000000E+00 0.  1.
         23    2    1    2    0    0 -0.47764790611E+02  0.62634180832E+02 -0.28929700607E+03  0.31327159304E+03  0.90784456014E+02 0.  0.
         23    2    1    2    0    0  0.34694421113E+02 -0.81811615954E+02  0.17641380309E+03  0.21848365379E+03  0.93361842799E+02 0.  0.
        -11    1    3    3    0    0 -0.45355344690E+02  0.32719323515E+02 -0.27387996839E+03  0.27953156979E+03  0.00000000000E+00 0.  1.
         11    1    3    3    0    0 -0.24094459205E+01  0.29914857317E+02 -0.15417037675E+02  0.33740023246E+02  0.00000000000E+00 0. -1.
        -13    1    4    4    0    0 -0.15548589534E+02  0.13835919092E+02  0.30495830216E+02  0.36921361759E+02  0.00000000000E+00 0. -1.
         13    1    4    4    0    0  0.50243010648E+02 -0.95647535045E+02  0.14591797287E+03  0.18156229203E+03  0.00000000000E+00 0.  1.
         -1    1    1    2    0  502  0.13070369497E+02  0.19177435122E+02 -0.26095620590E+01  0.23354194287E+02  0.00000000000E+00 0.  1.
<scales pt_clust_5="13000.00000" pt_clust_6="13000.00000" pt_clust_7="13000.00000" pt_clust_8="13000.00000" pt_clust_9="23.20794"></scales>
<clustering>
<clus scale="   23.208">  1  9  2 -1</clus>
<clus scale="   90.784">  5  6 -1 -1</clus>
<clus scale="   93.362">  7  8 -1 -1</clus>
<clus scale="  120.475">  2  5  1 -1</clus>
<clus scale="   23.208">  1  5  2 -1</clus>
</clustering>
</event>
<event>
 9    1  0.1445593E-005  0.1776767E+03  0.7546771E-02  0.1170563E+00
          2   -1    0    0  502    0 -0.00000000000E+00  0.00000000000E+00  0.14825966739E+04  0.14825966739E+04  0.00000000000E+00 0. -1.
         21   -1    0    0  501  502  0.00000000000E+00 -0.00000000000E+00 -0.66574691414E+02  0.66574691414E+02  0.00000000000E+00 0. -1.
         23    2    1    2    0    0  0.13176732060E+03 -0.24706974952E+02  0.73405970311E+03  0.75111573014E+03  0.85779548524E+02 0.  0.
         23    2    1    2    0    0 -0.23328394267E+03  0.12034681766E+03  0.44196342374E+03  0.52047311630E+03  0.81583346605E+02 0.  0.
        -11    1    4    4    0    0 -0.12841827902E+03  0.92494504846E+02  0.19805196990E+03  0.25351739702E+03  0.00000000000E+00 0.  1.
         11    1    4    4    0    0 -0.10486566365E+03  0.27852312818E+02  0.24391145384E+03  0.26695571928E+03  0.00000000000E+00 0. -1.
        -11    1    3    3    0    0  0.11608341355E+03  0.13531284369E+02  0.57640664990E+03  0.58813525706E+03  0.00000000000E+00 0. -1.
         11    1    3    3    0    0  0.15683907049E+02 -0.38238259321E+02  0.15765305322E+03  0.16298047308E+03  0.00000000000E+00 0.  1.
          2    1    1    2  501    0  0.10151662208E+03 -0.95639842712E+02  0.23999885562E+03  0.27758251885E+03  0.00000000000E+00 0. -1.
<scales pt_clust_5="13000.00000" pt_clust_6="13000.00000" pt_clust_7="13000.00000" pt_clust_8="13000.00000" pt_clust_9="139.47259"></scales>
<clustering>
<clus scale="   81.583">  5  6 -1 -1</clus>
<clus scale="   85.780">  7  8 -1 -1</clus>
<clus scale="  139.473">  2  9  1 -1</clus>
<clus scale="  175.689">  2  5  1 -1</clus>
<clus scale="  139.473">  2  5  1 -1</clus>
</clustering>
</event>
<event>
 9    1  0.1445593E-005  0.1567619E+03  0.7546771E-02  0.1216795E+00
          2   -1    0    0  502    0 -0.00000000000E+00  0.00000000000E+00  0.40687252986E+03  0.40687252986E+03  0.00000000000E+00 0. -1.
         21   -1    0    0  501  502  0.00000000000E+00 -0.00000000000E+00 -0.22803451461E+03  0.22803451461E+03  0.00000000000E+00 0. -1.
         23    2    1    2    0    0 -0.17448805819E+02 -0.13069281675E+02  0.19857927647E+03  0.21913666984E+03  0.90065998455E+02 0.  0.
         23    2    1    2    0    0  0.11886857879E+02 -0.11521741852E+03  0.14482049332E+03  0.20703852806E+03  0.92063162523E+02 0.  0.
        -11    1    3    3    0    0 -0.32557661829E+02 -0.44837875291E+02  0.97971803369E+02  0.11255625553E+03  0.00000000000E+00 0. -1.
         11    1    3    3    0    0  0.15108856009E+02  0.31768593616E+02  0.10060747310E+03  0.10658041431E+03  0.00000000000E+00 0.  1.
        -13    1    4    4    0    0  0.50089222065E+02 -0.84021317260E+02  0.85736814954E+02  0.13007426094E+03  0.00000000000E+00 0.  1.
         13    1    4    4    0    0 -0.38202364186E+02 -0.31196101263E+02  0.59083678368E+02  0.76964267117E+02  0.00000000000E+00 0. -1.
          2    1    1    2  501    0  0.55619479398E+01  0.12828670020E+03 -0.16456175455E+03  0.20873184657E+03  0.00000000000E+00 0. -1.
<scales pt_clust_5="13000.00000" pt_clust_6="13000.00000" pt_clust_7="13000.00000" pt_clust_8="13000.00000" pt_clust_9="126.88058"></scales>
<clustering>
<clus scale="   90.066">  5  6 -1 -1</clus>
<clus scale="   92.063">  7  8 -1 -1</clus>
<clus scale="   92.667">  1  5  2 -1</clus>
<clus scale="  126.881">  2  9  1 -1</clus>
<clus scale="  126.881">  2  5  1 -1</clus>
</clustering>
</event>
<event>
 9    1  0.1445593E-005  0.1140843E+03  0.7546771E-02  0.1253323E+00
         -3   -1    0    0    0  501 -0.00000000000E+00  0.00000000000E+00  0.46855612832E+03  0.46855612832E+03  0.00000000000E+00 0.  1.
         21   -1    0    0  501  502  0.00000000000E+00 -0.00000000000E+00 -0.12309943463E+03  0.12309943463E+03  0.00000000000E+00 0. -1.
         23    2    1    2    0    0  0.29833487636E+02  0.56466891885E+02  0.39537867296E+03  0.41108868043E+03  0.92687978109E+02 0.  0.
         23    2    1    2    0    0 -0.64563631261E+02 -0.72855162928E+02 -0.30708858133E+02  0.13762619870E+03  0.92312509190E+02 0.  0.
        -11    1    3    3    0    0 -0.33675672757E+02  0.22714416828E+02  0.13918080267E+03  0.14498721151E+03  0.00000000000E+00 0. -1.
         11    1    3    3    0    0  0.63509160394E+02  0.33752475058E+02  0.25619787028E+03  0.26610146893E+03  0.00000000000E+00 0.  1.
        -11    1    4    4    0    0  0.38149940029E+00 -0.35012645793E+02 -0.49039854815E+02  0.60257267342E+02  0.00000000000E+00 0. -1.
         11    1    4    4    0    0 -0.64945130662E+02 -0.37842517134E+02  0.18330996681E+02  0.77368931355E+02  0.00000000000E+00 0.  1.
         -3    1    1    2    0  502  0.34730143625E+02  0.16388271043E+02 -0.19213121133E+02  0.42940683828E+02  0.00000000000E+00 0.  1.
<scales pt_clust_5="13000.00000" pt_clust_6="13000.00000" pt_clust_7="13000.00000" pt_clust_8="13000.00000" pt_clust_9="38.40258"></scales>
<clustering>
<clus scale="   38.403">  2  9  1 -1</clus>
<clus scale="   92.313">  7  8 -1 -1</clus>
<clus scale="   92.688">  5  6 -1 -1</clus>
<clus scale="  113.779">  2  7  1 -1</clus>
<clus scale="   38.403">  2  5  1 -1</clus>
</clustering>
</event>
<event>
 9    1  0.1445593E-005  0.9503433E+02  0.7546771E-02  0.1291383E+00
         -1   -1    0    0    0  501 -0.00000000000E+00  0.00000000000E+00  0.87231032933E+02  0.87231032933E+02  0.00000000000E+00 0.  1.
         21   -1    0    0  501  502  0.00000000000E+00 -0.00000000000E+00 -0.27203220173E+03  0.27203220173E+03  0.00000000000E+00 0.  1.
         23    2    1    2    0    0  0.12457491057E+02  0.59306453653E+01  0.14205407986E+02  0.95048997093E+02  0.92963200217E+02 0.  0.
         23    2    1    2    0    0 -0.15480308028E+02 -0.30471628167E+02 -0.45201531654E+02  0.10843429930E+03  0.92448140823E+02 0.  0.
        -13    1    4    4    0    0 -0.40775397561E+02 -0.40960138754E+02 -0.26796170848E+01  0.57857984416E+02  0.00000000000E+00 0.  1.
         13    1    4    4    0    0  0.25295089533E+02  0.10488510587E+02 -0.42521914569E+02  0.50576314886E+02  0.00000000000E+00 0. -1.
        -13    1    3    3    0    0  0.48666062849E+02  0.11577530028E+02 -0.10155173371E+02  0.51044612066E+02  0.00000000000E+00 0. -1.
         13    1    3    3    0    0 -0.36208571792E+02 -0.56468846625E+01  0.24360581357E+02  0.44004385027E+02  0.00000000000E+00 0.  1.
         -1    1    1    2    0  502  0.30228169705E+01  0.24540982802E+02 -0.15380504513E+03  0.15577993827E+03  0.00000000000E+00 0.  1.
<scales pt_clust_5="13000.00000" pt_clust_6="13000.00000" pt_clust_7="13000.00000" pt_clust_8="13000.00000" pt_clust_9="24.72645"></scales>
<clustering>
<clus scale="   24.726">  2  9  1 -1</clus>
<clus scale="   92.448">  5  6 -1 -1</clus>
<clus scale="   92.963">  7  8 -1 -1</clus>
<clus scale="   94.531">  2  5  1 -1</clus>
<clus scale="   24.726">  2  5  1 -1</clus>
</clustering>
</event>
<event>
 9    1  0.1445593E-005  0.9449762E+02  0.7546771E-02  0.1292875E+00
         21   -1    0    0  501  502  0.00000000000E+00  0.00000000000E+00  0.71118552380E+03  0.71118552380E+03  0.00000000000E+00 0. -1.
          1   -1    0    0  502    0 -0.00000000000E+00 -0.00000000000E+00 -0.91066271005E+02  0.91066271005E+02  0.00000000000E+00 0. -1.
         23    2    1    2    0    0  0.58748794494E+02 -0.13579532065E+02 -0.48673429387E+01  0.10890677994E+03  0.90560317713E+02 0.  0.
         23    2    1    2    0    0  0.13342369964E+02 -0.11931023381E+02  0.33992612853E+02  0.97424036686E+02  0.89529755057E+02 0.  0.
        -11    1    4    4    0    0  0.44893893075E+02 -0.85932487608E+01 -0.62980098638E+01  0.46140768177E+02  0.00000000000E+00 0. -1.
         11    1    4    4    0    0 -0.31551523111E+02 -0.33377746201E+01  0.40290622717E+02  0.51283268509E+02  0.00000000000E+00 0.  1.
        -11    1    3    3    0    0  0.36632170490E+01  0.34401355921E+02  0.58046436628E+01  0.35079428964E+02  0.00000000000E+00 0.  1.
         11    1    3    3    0    0  0.55085577445E+02 -0.47980887986E+02 -0.10671986602E+02  0.73827350977E+02  0.00000000000E+00 0. -1.
          1    1    1    2  501    0 -0.72091164458E+02  0.25510555445E+02  0.59099398288E+03  0.59592097817E+03  0.00000000000E+00 0. -1.
<scales pt_clust_5="13000.00000" pt_clust_6="13000.00000" pt_clust_7="13000.00000" pt_clust_8="13000.00000" pt_clust_9="76.47172"></scales>
<clustering>
<clus scale="   76.472">  1  9  2 -1</clus>
<clus scale="   89.530">  5  6 -1 -1</clus>
<clus scale="   90.560">  7  8 -1 -1</clus>
<clus scale="   93.510">  1  5  2 -1</clus>
<clus scale="   76.472">  1  5  2 -1</clus>
</clustering>
</event>
<event>
 9    1  0.1445593E-005  0.2378968E+03  0.7546771E-02  0.1123390E+00
          2   -1    0    0  502    0 -0.00000000000E+00  0.00000000000E+00  0.90268938615E+03  0.90268938615E+03  0.00000000000E+00 0. -1.
         21   -1    0    0  501  502  0.00000000000E+00 -0.00000000000E+00 -0.71509997993E+02  0.71509997993E+02  0.00000000000E+00 0.  1.
         23    2    1    2    0    0  0.19475444376E+03  0.71745836148E+02  0.46751707396E+03  0.52276822607E+03  0.10787791888E+03 0.  0.
         23    2    1    2    0    0 -0.19219125720E+03 -0.10576409424E+03  0.32999166371E+03  0.40349865852E+03  0.76112721217E+02 0.  0.
        -11    1    4    4    0    0 -0.52110188994E+02 -0.12608402594E+02  0.13900596585E+03  0.14898691941E+03  0.00000000000E+00 0. -1.
         11    1    4    4    0    0 -0.14008106821E+03 -0.93155691649E+02  0.19098569786E+03  0.25451173911E+03  0.00000000000E+00 0.  1.
        -11    1    3    3    0    0  0.59293043046E+02  0.10725144852E+02  0.26401191998E+03  0.27080064176E+03  0.00000000000E+00 0.  1.
         11    1    3    3    0    0  0.13546140071E+03  0.61020691296E+02  0.20350515397E+03  0.25196758431E+03  0.00000000000E+00 0. -1.
          2    1    1    2  501    0 -0.25631865549E+01  0.34018258094E+02  0.33670650484E+02  0.47932499550E+02  0.00000000000E+00 0. -1.
<scales pt_clust_5="13000.00000" pt_clust_6="13000.00000" pt_clust_7="13000.00000" pt_clust_8="13000.00000" pt_clust_9="34.11469"></scales>
<clustering>
<clus scale="   34.115">  2  9  1 -1</clus>
<clus scale="   76.113">  5  6 -1 -1</clus>
<clus scale="  107.878">  7  8 -1 -1</clus>
<clus scale="  225.279">  2  5  1 -1</clus>
<clus scale="   34.115">  2  5  1 -1</clus>
</clustering>
</event>
<event>
 9    1  0.1445593E-005  0.1538531E+03  0.7546771E-02  0.1198728E+00
         21   -1    0    0  501  502  0.00000000000E+00  0.00000000000E+00  0.17337538087E+03  0.17337538087E+03  0.00000000000E+00 0.  1.
          2   -1    0    0  502    0 -0.00000000000E+00 -0.00000000000E+00 -0.30210082123E+03  0.30210082123E+03  0.00000000000E+00 0. -1.
         23    2    1    2    0    0  0.64409774278E+02  0.11341920973E+03 -0.11667945977E+03  0.20406950643E+03  0.10496537983E+03 0.  0.
         23    2    1    2    0    0  0.15172624983E+02 -0.80733943017E+02  0.79470949295E+02  0.14580003427E+03  0.90519832673E+02 0.  0.
        -11    1    4    4    0    0  0.53345534035E+02 -0.42852370910E+02  0.42817575905E+02  0.80718129936E+02  0.00000000000E+00 0. -1.
         11    1    4    4    0    0 -0.38172909052E+02 -0.37881572107E+02  0.36653373390E+02  0.65081904333E+02  0.00000000000E+00 0.  1.
        -13    1    3    3    0    0 -0.27430572885E+02  0.38539266885E+02 -0.46589848216E+02  0.66395221046E+02  0.00000000000E+00 0.  1.
         13    1    3    3    0    0  0.91840347163E+02  0.74879942847E+02 -0.70089611557E+02  0.13767428538E+03  0.00000000000E+00 0. -1.
          2    1    1    2  501    0 -0.79582399260E+02 -0.32685266715E+02 -0.91516929885E+02  0.12560666140E+03  0.00000000000E+00 0. -1.
<scales pt_clust_5="13000.00000" pt_clust_6="13000.00000" pt_clust_7="13000.00000" pt_clust_8="13000.00000" pt_clust_9="86.03309"></scales>
<clustering>
<clus scale="   86.033">  1  9  2 -1</clus>
<clus scale="   90.520">  5  6 -1 -1</clus>
<clus scale="  104.965">  7  8 -1 -1</clus>
<clus scale="  144.384">  1  5  2 -1</clus>
<clus scale="   86.033">  1  5  2 -1</clus>
</clustering>
</event>
<event>
 9    1  0.1445593E-005  0.1750359E+03  0.7546771E-02  0.1173921E+00
         21   -1    0    0  501  502  0.00000000000E+00  0.00000000000E+00  0.15490740609E+03  0.15490740609E+03  0.00000000000E+00 0. -1.
         -3   -1    0    0    0  501 -0.00000000000E+00 -0.00000000000E+00 -0.75829903264E+03  0.75829903264E+03  0.00000000000E+00 0.  1.
         23    2    1    2    0    0 -0.86007661469E+02  0.11551507649E+03 -0.67282997543E+03  0.69520951977E+03  0.99373285222E+02 0.  0.
         23    2    1    2    0    0  0.10637364307E+03 -0.10106755938E+03  0.35861309175E+02  0.17615290442E+03  0.90630065336E+02 0.  0.
        -11    1    3    3    0    0 -0.93523139065E+02  0.53108782098E+02 -0.34382079592E+03  0.36024971893E+03  0.00000000000E+00 0.  1.
         11    1    3    3    0    0  0.75154775956E+01  0.62406294389E+02 -0.32900917951E+03  0.33495980085E+03  0.00000000000E+00 0. -1.
        -11    1    4    4    0    0  0.25093792436E+02 -0.15248153065E+02 -0.29047124759E+02  0.41303027099E+02  0.00000000000E+00 0.  1.
         11    1    4    4    0    0  0.81279850631E+02 -0.85819406313E+02  0.64908433934E+02  0.13484987732E+03  0.00000000000E+00 0. -1.
         -3    1    1    2    0  502 -0.20365981598E+02 -0.14447517110E+02  0.33577039703E+02  0.41844014534E+02  0.00000000000E+00 0.  1.
<scales pt_clust_5="13000.00000" pt_clust_6="13000.00000" pt_clust_7="13000.00000" pt_clust_8="13000.00000" pt_clust_9="24.97006"></scales>
<clustering>
<clus scale="   24.970">  1  9  2 -1</clus>
<clus scale="   90.630">  7  8 -1 -1</clus>
<clus scale="   99.373">  5  6 -1 -1</clus>
<clus scale="  170.224">  1  7  2 -1</clus>
<clus scale="   24.970">  1  5  2 -1</clus>
</clustering>
</event>
<event>
 9    1  0.1445593E-005  0.1390961E+03  0.7546771E-02  0.1231384E+00
         -1   -1    0    0    0  501 -0.00000000000E+00  0.00000000000E+00  0.24073365568E+03  0.24073365568E+03  0.00000000000E+00 0.  1.
         21   -1    0    0  501  502  0.00000000000E+00 -0.00000000000E+00 -0.13023891615E+03  0.13023891615E+03  0.00000000000E+00 0.  1.
         23    2    1    2    0    0  0.26009814973E+02 -0.18747479082E+02  0.41210837195E+02  0.10617509780E+03  0.92449120296E+02 0.  0.
         23    2    1    2    0    0  0.87987950900E+02  0.26348816245E+02  0.78386696965E+02  0.15018450870E+03  0.89301583256E+02 0.  0.
        -11    1    3    3    0    0  0.57860177107E+02  0.50548677466E+01  0.23768010535E+02  0.62755638054E+02  0.00000000000E+00 0.  1.
         11    1    3    3    0    0 -0.31850362134E+02 -0.23802346829E+02  0.17442826660E+02  0.43419459745E+02  0.00000000000E+00 0. -1.
        -13    1    4    4    0    0  0.48220364340E+02 -0.31604386833E+02  0.31540094342E+02  0.65717717209E+02  0.00000000000E+00 0. -1.
         13    1    4    4    0    0  0.39767586560E+02  0.57953203078E+02  0.46846602624E+02  0.84466791493E+02  0.00000000000E+00 0.  1.
         -1    1    1    2    0  502 -0.11399776587E+03 -0.76013371624E+01 -0.91027946362E+01  0.11461296533E+03  0.00000000000E+00 0.  1.
<scales pt_clust_5="13000.00000" pt_clust_6="13000.00000" pt_clust_7="13000.00000" pt_clust_8="13000.00000" pt_clust_9="106.64406"></scales>
<clustering>
<clus scale="   89.302">  7  8 -1 -1</clus>
<clus scale="   92.449">  5  6 -1 -1</clus>
<clus scale="   97.851">  1  5  2 -1</clus>
<clus scale="  106.644">  2  9  1 -1</clus>
<clus scale="  106.644">  2  5  1 -1</clus>
</clustering>
</event>
<event>
 9    1  0.1445593E-005  0.2091657E+03  0.7546771E-02  0.1142439E+00
          2   -1    0    0  502    0 -0.00000000000E+00  0.00000000000E+00  0.63761443668E+03  0.63761443668E+03  0.00000000000E+00 0. -1.
         21   -1    0    0  501  502  0.00000000000E+00 -0.00000000000E+00 -0.15571603295E+03  0.15571603295E+03  0.00000000000E+00 0. -1.
         23    2    1    2    0    0 -0.11740182655E+03  0.15791157056E+03  0.48288592350E+03  0.52965190871E+03  0.92914349221E+02 0.  0.
         23    2    1    2    0    0  0.54015465261E+02 -0.15336122202E+03  0.36867082316E+02  0.18970892276E+03  0.90514964014E+02 0.  0.
        -11    1    4    4    0    0  0.77059785195E+02 -0.10305611864E+03  0.38612832308E+02  0.13434926461E+03  0.00000000000E+00 0.  1.
         11    1    4    4    0    0 -0.23044319934E+02 -0.50305103377E+02 -0.17457499925E+01  0.55359658146E+02  0.00000000000E+00 0. -1.
        -11    1    3    3    0    0 -0.11674651718E+03  0.12829196873E+03  0.31901316715E+03  0.36312254038E+03  0.00000000000E+00 0. -1.
         11    1    3    3    0    0 -0.65530936344E+00  0.29619601830E+02  0.16387275635E+03  0.16652936833E+03  0.00000000000E+00 0.  1.
          2    1    1    2  501    0  0.63386361287E+02 -0.45503485470E+01 -0.37854602087E+02  0.73969638151E+02  0.00000000000E+00 0. -1.
<scales pt_clust_5="13000.00000" pt_clust_6="13000.00000" pt_clust_7="13000.00000" pt_clust_8="13000.00000" pt_clust_9="63.54948"></scales>
<clustering>
<clus scale="   63.549">  2  9  1 -1</clus>
<clus scale="   90.515">  5  6 -1 -1</clus>
<clus scale="   92.914">  7  8 -1 -1</clus>
<clus scale="  208.111">  2  5  1 -1</clus>
<clus scale="   63.549">  2  5  1 -1</clus>
</clustering>
</event>
<event>
 9    1  0.1445593E-005  0.1310909E+03  0.7546771E-02  0.1228636E+00
         -1   -1    0    0    0  501 -0.00000000000E+00  0.00000000000E+00  0.30411589909E+03  0.30411589909E+03  0.00000000000E+00 0.  1.
         21   -1    0    0  501  502  0.00000000000E+00 -0.00000000000E+00 -0.11037956858E+03  0.11037956858E+03  0.00000000000E+00 0.  1.
         23    2    1    2    0    0  0.32426480221E+02  0.71817280252E+02  0.98089804606E+02  0.14985569857E+03  0.81399768198E+02 0.  0.
         23    2    1    2    0    0 -0.90139617127E+02 -0.75645389496E+02  0.12935235701E+03  0.19769543669E+03  0.92217557429E+02 0.  0.
        -11    1    3    3    0    0  0.26010587782E+02  0.12009413905E+02  0.83050505423E+02  0.87853077067E+02  0.00000000000E+00 0. -1.
         11    1    3    3    0    0  0.64158924385E+01  0.59807866347E+02  0.15039299182E+02  0.62002621498E+02  0.00000000000E+00 0.  1.
        -13    1    4    4    0    0 -0.39773393947E+02  0.40163599269E+01  0.30331484011E+01  0.40090572487E+02  0.00000000000E+00 0.  1.
         13    1    4    4    0    0 -0.50366223180E+02 -0.79661749423E+02  0.12631920861E+03  0.15760486421E+03  0.00000000000E+00 0. -1.
         -1    1    1    2    0  502  0.57713136906E+02  0.38281092447E+01 -0.33705831097E+02  0.66944332410E+02  0.00000000000E+00 0.  1.
<scales pt_clust_5="13000.00000" pt_clust_6="13000.00000" pt_clust_7="13000.00000" pt_clust_8="13000.00000" pt_clust_9="57.83996"></scales>
<clustering>
<clus scale="   57.840">  2  9  1 -1</clus>
<clus scale="   81.400">  5  6 -1 -1</clus>
<clus scale="   92.218">  7  8 -1 -1</clus>
<clus scale="  123.720">  1  5  2 -1</clus>
<clus scale="   57.840">  2  5  1 -1</clus>
</clustering>
</event>
<event>
 9    1  0.1445593E-005  0.4389170E+03  0.7546771E-02  0.1031119E+00
          1   -1    0    0  502    0 -0.00000000000E+00  0.00000000000E+00  0.11073774240E+04  0.11073774240E+04  0.00000000000E+00 0. -1.
         21   -1    0    0  501  502  0.00000000000E+00 -0.00000000000E+00 -0.33408211307E+03  0.33408211307E+03  0.00000000000E+00 0. -1.
         23    2    1    2    0    0  0.35629953229E+03  0.16817637480E+03  0.23691082738E+03  0.46854747015E+03  0.90428656427E+02 0.  0.
         23    2    1    2    0    0 -0.49196507694E+03 -0.96042704647E+02  0.11132602012E+03  0.52093518288E+03  0.87898486667E+02 0.  0.
        -11    1    4    4    0    0 -0.38756022525E+03 -0.76707466479E+02  0.49766563323E+02  0.39820054550E+03  0.00000000000E+00 0. -1.
         11    1    4    4    0    0 -0.10440485169E+03 -0.19335238168E+02  0.61559456796E+02  0.12273463738E+03  0.00000000000E+00 0.  1.
        -11    1    3    3    0    0  0.12552482072E+03  0.70463077119E+02  0.38790577719E+02  0.14908465640E+03  0.00000000000E+00 0. -1.
         11    1    3    3    0    0  0.23077471158E+03  0.97713297677E+02  0.19812024966E+03  0.31946281376E+03  0.00000000000E+00 0.  1.
          1    1    1    2  501    0  0.13566554465E+03 -0.72133670149E+02  0.42505846343E+03  0.45197688404E+03  0.00000000000E+00 0. -1.
<scales pt_clust_5="13000.00000" pt_clust_6="13000.00000" pt_clust_7="13000.00000" pt_clust_8="13000.00000" pt_clust_9="153.65035"></scales>
<clustering>
<clus scale="   87.898">  5  6 -1 -1</clus>
<clus scale="   90.429">  7  8 -1 -1</clus>
<clus scale="  153.650">  2  9  1 -1</clus>
<clus scale="  438.403">  2  5  1 -1</clus>
<clus scale="  153.650">  2  5  1 -1</clus>
</clustering>
</event>
<event>
 9    1  0.1445593E-005  0.9951863E+02  0.7546771E-02  0.1281946E+00
         -3   -1    0    0    0  501 -0.00000000000E+00  0.00000000000E+00  0.24615126532E+03  0.24615126532E+03  0.00000000000E+00 0.  1.
         21   -1    0    0  501  502  0.00000000000E+00 -0.00000000000E+00 -0.17093365971E+03  0.17093365971E+03  0.00000000000E+00 0.  1.
         23    2    1    2    0    0 -0.32000625895E+02 -0.11204772568E+02  0.15881082089E+03  0.18595509294E+03  0.90602609075E+02 0.  0.
         23    2    1    2    0    0  0.60341988620E+02  0.19931613106E+02  0.30082306513E+02  0.11364998344E+03  0.89291370126E+02 0.  0.
        -13    1    3    3    0    0 -0.41748058085E+02  0.20397210500E+02  0.36026555375E+02  0.58795061376E+02  0.00000000000E+00 0. -1.
         13    1    3    3    0    0  0.97474321904E+01 -0.31601983068E+02  0.12278426552E+03  0.12716003156E+03  0.00000000000E+00 0.  1.
        -13    1    4    4    0    0  0.83151183346E+02  0.21308364277E+02  0.29586595781E+02  0.90793900290E+02  0.00000000000E+00 0.  1.
         13    1    4    4    0    0 -0.22809194725E+02 -0.13767511717E+01  0.49571073206E+00  0.22856083149E+02  0.00000000000E+00 0. -1.
         -3    1    1    2    0  502 -0.28341362726E+02 -0.87268405380E+01 -0.11367552179E+03  0.11747984866E+03  0.00000000000E+00 0.  1.
<scales pt_clust_5="13000.00000" pt_clust_6="13000.00000" pt_clust_7="13000.00000" pt_clust_8="13000.00000" pt_clust_9="29.65452"></scales>
<clustering>
<clus scale="   29.655">  2  9  1 -1</clus>
<clus scale="   89.291">  7  8 -1 -1</clus>
<clus scale="   90.603">  5  6 -1 -1</clus>
<clus scale="   98.326">  2  7  1 -1</clus>
<clus scale="   29.655">  2  5  1 -1</clus>
</clustering>
</event>
<event>
 9    1  0.1445593E-005  0.9938126E+02  0.7546771E-02  0.1283393E+00
          1   -1    0    0  502    0 -0.00000000000E+00  0.00000000000E+00  0.83563262601E+03  0.83563262601E+03  0.00000000000E+00 0. -1.
         21   -1    0    0  501  502  0.00000000000E+00 -0.00000000000E+00 -0.29984373253E+02  0.29984373253E+02  0.00000000000E+00 0. -1.
         23    2    1    2    0    0  0.26083621827E+02  0.81717031963E+01  0.21272589454E+03  0.23130786634E+03  0.86625000808E+02 0.  0.
         23    2    1    2    0    0  0.77053681858E+01 -0.89774896132E+02  0.25623195385E+03  0.28622695105E+03  0.90289249955E+02 0.  0.
        -11    1    4    4    0    0 -0.12928711710E+02 -0.22872800014E+02  0.67774876985E+01  0.27133943806E+02  0.00000000000E+00 0.  1.
         11    1    4    4    0    0  0.20634079895E+02 -0.66902096118E+02  0.24945446615E+03  0.25909300724E+03  0.00000000000E+00 0. -1.
        -13    1    3    3    0    0 -0.18289061837E+02  0.28905644755E+02  0.13636430670E+03  0.14058894062E+03  0.00000000000E+00 0.  1.
         13    1    3    3    0    0  0.44372683664E+02 -0.20733941559E+02  0.76361587833E+02  0.90718925724E+02  0.00000000000E+00 0. -1.
          1    1    1    2  501    0 -0.33788990013E+02  0.81603192936E+02  0.33669040437E+03  0.34808218187E+03  0.00000000000E+00 0. -1.
<scales pt_clust_5="13000.00000" pt_clust_6="13000.00000" pt_clust_7="13000.00000" pt_clust_8="13000.00000" pt_clust_9="88.32205"></scales>
<clustering>
<clus scale="   86.625">  7  8 -1 -1</clus>
<clus scale="   88.322">  2  9  1 -1</clus>
<clus scale="   90.289">  5  6 -1 -1</clus>
<clus scale="   96.064">  1  7  2 -1</clus>
<clus scale="   88.322">  2  5  1 -1</clus>
</clustering>
</event>
<event>
 9    1  0.1445593E-005  0.1107522E+03  0.7546771E-02  0.1259876E+00
         21   -1    0    0  501  502  0.00000000000E+00  0.00000000000E+00  0.48461443706E+03  0.48461443706E+03  0.00000000000E+00 0.  1.
         -1   -1    0    0    0  501 -0.00000000000E+00 -0.00000000000E+00 -0.89921410013E+02  0.89921410013E+02  0.00000000000E+00 0.  1.
         23    2    1    2    0    0  0.61737318870E+02 -0.79886689957E+01  0.84158339287E+01  0.11069402555E+03  0.91142885946E+02 0.  0.
         23    2    1    2    0    0 -0.54474550356E+02 -0.44863640330E+02  0.56269248686E+02  0.12954949766E+03  0.92933423131E+02 0.  0.
        -11    1    4    4    0    0 -0.57313559193E+02  0.93668316148E+01  0.46447650288E+02  0.74363739949E+02  0.00000000000E+00 0. -1.
         11    1    4    4    0    0  0.28390088371E+01 -0.54230471945E+02  0.98215983980E+01  0.55185757707E+02  0.00000000000E+00 0.  1.
        -11    1    3    3    0    0 -0.15759890971E+02 -0.18261795062E+02 -0.15821683760E+02  0.28847755533E+02  0.00000000000E+00 0.  1.
         11    1    3    3    0    0  0.77497209840E+02  0.10273126066E+02  0.24237517689E+02  0.81846270018E+02  0.00000000000E+00 0. -1.
         -1    1    1    2    0  502 -0.72627685137E+01  0.52852309326E+02  0.33000794443E+03  0.33429232387E+03  0.00000000000E+00 0.  1.
<scales pt_clust_5="13000.00000" pt_clust_6="13000.00000" pt_clust_7="13000.00000" pt_clust_8="13000.00000" pt_clust_9="53.34899"></scales>
<clustering>
<clus scale="   53.349">  1  9  2 -1</clus>
<clus scale="   91.143">  7  8 -1 -1</clus>
<clus scale="   92.933">  5  6 -1 -1</clus>
<clus scale="  109.254">  2  7  1 -1</clus>
<clus scale="   53.349">  1  5  2 -1</clus>
</clustering>
</event>
<event>
 9    1  0.1445593E-005  0.1211872E+03  0.7546771E-02  0.1243070E+00
         21   -1    0    0  501  502  0.00000000000E+00  0.00000000000E+00  0.64299532856E+03  0.64299532856E+03  0.00000000000E+00 0.  1.
          2   -1    0    0  502    0 -0.00000000000E+00 -0.00000000000E+00 -0.87834178715E+02  0.87834178715E+02  0.00000000000E+00 0. -1.
         23    2    1    2    0    0 -0.52144195088E+02 -0.52310497801E+02 -0.21300050856E+02  0.12439559547E+03  0.97801670458E+02 0.  0.
         23    2    1    2    0    0 -0.53478700648E+01  0.80112851414E+02  0.33131988375E+03  0.35311084989E+03  0.92020314417E+02 0.  0.
        -11    1    4    4    0    0 -0.44046193880E+02  0.15322601520E+02  0.12979960761E+03  0.13792312151E+03  0.00000000000E+00 0.  1.
         11    1    4    4    0    0  0.38698323815E+02  0.64790249894E+02  0.20152027615E+03  0.21518772838E+03  0.00000000000E+00 0. -1.
        -13    1    3    3    0    0 -0.51365926202E+02  0.14878000556E+02  0.13310515056E+01  0.53493784436E+02  0.00000000000E+00 0.  1.
         13    1    3    3    0    0 -0.77826888535E+00 -0.67188498357E+02 -0.22631102361E+02  0.70901811035E+02  0.00000000000E+00 0. -1.
          2    1    1    2  501    0  0.57492065153E+02 -0.27802353613E+02  0.24514131695E+03  0.25332306191E+03  0.00000000000E+00 0. -1.
<scales pt_clust_5="13000.00000" pt_clust_6="13000.00000" pt_clust_7="13000.00000" pt_clust_8="13000.00000" pt_clust_9="63.86163"></scales>
<clustering>
<clus scale="   63.862">  1  9  2 -1</clus>
<clus scale="   92.020">  5  6 -1 -1</clus>
<clus scale="   97.802">  7  8 -1 -1</clus>
<clus scale="  116.571">  1  5  2 -1</clus>
<clus scale="   63.862">  1  5  2 -1</clus>
</clustering>
</event>
<event>
 9    1  0.1445593E-005  0.1130009E+03  0.7546771E-02  0.1263280E+00
          1   -1    0    0  502    0 -0.00000000000E+00  0.00000000000E+00  0.66630191691E+02  0.66630191691E+02  0.00000000000E+00 0. -1.
         21   -1    0    0  501  502  0.00000000000E+00 -0.00000000000E+00 -0.22042587410E+03  0.22042587410E+03  0.00000000000E+00 0.  1.
         23    2    1    2    0    0  0.38407419154E+02 -0.23766904097E+01 -0.46829394624E+02  0.12509929990E+03  0.10943520518E+03 0.  0.
         23    2    1    2    0    0 -0.16651669336E+02  0.77158832923E+01 -0.64211039690E+02  0.11368844428E+03  0.92006476940E+02 0.  0.
        -11    1    3    3    0    0  0.17823835910E+02  0.52573496965E+02 -0.11777143541E+02  0.56748240675E+02  0.00000000000E+00 0.  1.
         11    1    3    3    0    0  0.20583583243E+02 -0.54950187375E+02 -0.35052251084E+02  0.68351059229E+02  0.00000000000E+00 0. -1.
        -13    1    4    4    0    0 -0.22079377341E+02  0.37539737286E+02 -0.97544460632E+00  0.43562395152E+02  0.00000000000E+00 0.  1.
         13    1    4    4    0    0  0.54277080047E+01 -0.29823853993E+02 -0.63235595084E+02  0.70126049131E+02  0.00000000000E+00 0. -1.
          1    1    1    2  501    0 -0.21755749818E+02 -0.53391928826E+01 -0.42755248096E+02  0.48268321604E+02  0.00000000000E+00 0. -1.
<scales pt_clust_5="13000.00000" pt_clust_6="13000.00000" pt_clust_7="13000.00000" pt_clust_8="13000.00000" pt_clust_9="22.40133"></scales>
<clustering>
<clus scale="   22.401">  2  9  1 -1</clus>
<clus scale="   92.006">  7  8 -1 -1</clus>
<clus scale="   96.220">  2  7  1 -1</clus>
<clus scale="  109.435">  5  6 -1 -1</clus>
<clus scale="   22.401">  2  5  1 -1</clus>
</clustering>
</event>
<event>
 9    1  0.1445593E-005  0.1195446E+03  0.7546771E-02  0.1244120E+00
         21   -1    0    0  501  502  0.00000000000E+00  0.00000000000E+00  0.87506340326E+03  0.87506340326E+03  0.00000000000E+00 0. -1.
          3   -1    0    0  502    0 -0.00000000000E+00 -0.00000000000E+00 -0.30172321247E+02  0.30172321247E+02  0.00000000000E+00 0. -1.
         23    2    1    2    0    0  0.63890624474E+02 -0.76837361361E+02  0.23104611090E+03  0.26722598875E+03  0.89674030266E+02 0.  0.
         23    2    1    2    0    0 -0.31438050036E+01  0.48691788054E+02  0.44467137350E+03  0.45607003283E+03  0.88805803308E+02 0.  0.
        -13    1    3    3    0    0  0.21402619213E+01 -0.54972836047E+02  0.16612913499E+03  0.17500137976E+03  0.00000000000E+00 0.  1.
         13    1    3    3    0    0  0.61750362552E+02 -0.21864525314E+02  0.64916975912E+02  0.92224608994E+02  0.00000000000E+00 0. -1.
        -13    1    4    4    0    0 -0.31495183069E+02 -0.12217207028E+02  0.16747500999E+03  0.17084813630E+03  0.00000000000E+00 0.  1.
         13    1    4    4    0    0  0.28351378065E+02  0.60908995081E+02  0.27719636351E+03  0.28522189653E+03  0.00000000000E+00 0. -1.
          3    1    1    2  501    0 -0.60746819470E+02  0.28145573307E+02  0.16917359761E+03  0.18193970293E+03  0.00000000000E+00 0. -1.
<scales pt_clust_5="13000.00000" pt_clust_6="13000.00000" pt_clust_7="13000.00000" pt_clust_8="13000.00000" pt_clust_9="66.95038"></scales>
<clustering>
<clus scale="   66.950">  1  9  2 -1</clus>
<clus scale="   88.806">  7  8 -1 -1</clus>
<clus scale="   89.674">  5  6 -1 -1</clus>
<clus scale="  118.895">  1  7  2 -1</clus>
<clus scale="   66.950">  1  5  2 -1</clus>
</clustering>
</event>
<event>
 9    1  0.1445593E-005  0.2054626E+03  0.7546771E-02  0.1147840E+00
         21   -1    0    0  501  502  0.00000000000E+00  0.00000000000E+00  0.28942760177E+03  0.28942760177E+03  0.00000000000E+00 0.  1.
         -1   -1    0    0    0  501 -0.00000000000E+00 -0.00000000000E+00 -0.39676026402E+03  0.39676026402E+03  0.00000000000E+00 0.  1.
         23    2    1    2    0    0  0.17870056091E+02  0.16618165272E+03 -0.12763834741E+03  0.22907005699E+03  0.90806732539E+02 0.  0.
         23    2    1    2    0    0  0.56260067494E+02 -0.17277277054E+03 -0.15606223645E+03  0.26569063772E+03  0.11498029350E+03 0.  0.
        -11    1    3    3    0    0  0.53645830735E+02  0.79316618640E+02 -0.72853415860E+02  0.12031883207E+03  0.00000000000E+00 0. -1.
         11    1    3    3    0    0 -0.35775774644E+02  0.86865034078E+02 -0.54784931551E+02  0.10875122492E+03  0.00000000000E+00 0.  1.
        -11    1    4    4    0    0  0.76523128356E+02 -0.58243804089E+02 -0.50496703772E+02  0.10861881504E+03  0.00000000000E+00 0.  1.
         11    1    4    4    0    0 -0.20263060862E+02 -0.11452896645E+03 -0.10556553268E+03  0.15707182268E+03  0.00000000000E+00 0. -1.
         -1    1    1    2    0  502 -0.74130123585E+02  0.65911178218E+01  0.17636792161E+03  0.19142717108E+03  0.00000000000E+00 0.  1.
<scales pt_clust_5="13000.00000" pt_clust_6="13000.00000" pt_clust_7="13000.00000" pt_clust_8="13000.00000" pt_clust_9="74.42256"></scales>
<clustering>
<clus scale="   74.423">  1  9  2 -1</clus>
<clus scale="   90.807">  5  6 -1 -1</clus>
<clus scale="  114.980">  7  8 -1 -1</clus>
<clus scale="  192.977">  2  5  1 -1</clus>
<clus scale="   74.423">  1  5  2 -1</clus>
</clustering>
</event>
<event>
 9    1  0.1445593E-005  0.1009926E+03  0.7546771E-02  0.1279724E+00
         -2   -1    0    0    0  501 -0.00000000000E+00  0.00000000000E+00  0.91236405907E+02  0.91236405907E+02  0.00000000000E+00 0.  1.
         21   -1    0    0  501  502  0.00000000000E+00 -0.00000000000E+00 -0.16235718408E+03  0.16235718408E+03  0.00000000000E+00 0. -1.
         23    2    1    2    0    0  0.38689459448E+02  0.38212195062E+02  0.10174895292E+02  0.10572133785E+03  0.90091212999E+02 0.  0.
         23    2    1    2    0    0 -0.12142375506E+02 -0.26967251211E+02 -0.74602975393E+02  0.11827514695E+03  0.86883465209E+02 0.  0.
        -11    1    3    3    0    0  0.19349899751E+02  0.65870580480E+02 -0.47528728816E+01  0.68818179239E+02  0.00000000000E+00 0.  1.
         11    1    3    3    0    0  0.19339559697E+02 -0.27658385417E+02  0.14927768174E+02  0.36903158616E+02  0.00000000000E+00 0. -1.
        -13    1    4    4    0    0 -0.10834208544E+02  0.30538645675E+02 -0.38676960354E+02  0.50456874820E+02  0.00000000000E+00 0.  1.
         13    1    4    4    0    0 -0.13081669629E+01 -0.57505896886E+02 -0.35926015039E+02  0.67818272125E+02  0.00000000000E+00 0. -1.
         -2    1    1    2    0  502 -0.26547083941E+02 -0.11244943851E+02 -0.66926980743E+01  0.29597105188E+02  0.00000000000E+00 0.  1.
<scales pt_clust_5="13000.00000" pt_clust_6="13000.00000" pt_clust_7="13000.00000" pt_clust_8="13000.00000" pt_clust_9="28.83049"></scales>
<clustering>
<clus scale="   28.830">  2  9  1 -1</clus>
<clus scale="   86.883">  7  8 -1 -1</clus>
<clus scale="   90.091">  5  6 -1 -1</clus>
<clus scale="   98.142">  2  7  1 -1</clus>
<clus scale="   28.830">  2  5  1 -1</clus>
</clustering>
</event>
<event>
 9    1  0.1445593E-005  0.1192059E+03  0.7546771E-02  0.1248652E+00
         -1   -1    0    0    0  501 -0.00000000000E+00  0.00000000000E+00  0.22535509414E+03  0.22535509414E+03  0.00000000000E+00 0.  1.
         21   -1    0    0  501  502  0.00000000000E+00 -0.00000000000E+00 -0.12423314286E+03  0.12423314286E+03  0.00000000000E+00 0.  1.
         23    2    1    2    0    0 -0.27846237917E+02 -0.66243480766E+02  0.10795213422E+03  0.15441424453E+03  0.83824124928E+02 0.  0.
         23    2    1    2    0    0 -0.36363178238E+02  0.78864792780E+02 -0.30862330515E+01  0.12962886449E+03  0.96188260217E+02 0.  0.
        -11    1    3    3    0    0 -0.38383562637E+02  0.45802101770E+01  0.41725631607E+02  0.56879737508E+02  0.00000000000E+00 0.  1.
         11    1    3    3    0    0  0.10537324720E+02 -0.70823690943E+02  0.66226502617E+02  0.97534507022E+02  0.00000000000E+00 0. -1.
        -11    1    4    4    0    0 -0.65216240936E+02  0.73788672419E+02 -0.11502987423E+02  0.99147591896E+02  0.00000000000E+00 0.  1.
         11    1    4    4    0    0  0.28853062698E+02  0.50761203611E+01  0.84167543713E+01  0.30481272597E+02  0.00000000000E+00 0. -1.
         -1    1    1    2    0  502  0.64209416155E+02 -0.12621312014E+02 -0.37439498965E+01  0.65545127971E+02  0.00000000000E+00 0.  1.
<scales pt_clust_5="13000.00000" pt_clust_6="13000.00000" pt_clust_7="13000.00000" pt_clust_8="13000.00000" pt_clust_9="65.43811"></scales>
<clustering>
<clus scale="   65.438">  2  9  1 -1</clus>
<clus scale="   83.824">  5  6 -1 -1</clus>
<clus scale="   96.188">  7  8 -1 -1</clus>
<clus scale="  109.473">  1  5  2 -1</clus>
<clus scale="   65.438">  2  5  1 -1</clus>
</clustering>
</event>
<event>
 9    1  0.1445593E-005  0.1146906E+03  0.7546771E-02  0.1252316E+00
          4   -1    0    0  502    0 -0.00000000000E+00  0.00000000000E+00  0.32208798226E+03  0.32208798226E+03  0.00000000000E+00 0. -1.
         21   -1    0    0  501  502  0.00000000000E+00 -0.00000000000E+00 -0.15178269304E+03  0.15178269304E+03  0.00000000000E+00 0.  1.
         23    2    1    2    0    0  0.65316998315E+02 -0.35558238592E+02  0.25905519148E+03  0.28407079249E+03  0.89754801064E+02 0.  0.
         23    2    1    2    0    0 -0.17937164511E+02  0.40010341778E+02 -0.99132985256E+02  0.14109179019E+03  0.90315974075E+02 0.  0.
        -11    1    3    3    0    0 -0.13134029151E+02 -0.34918083514E+02  0.99675477407E+02  0.10642826727E+03  0.00000000000E+00 0.  1.
         11    1    3    3    0    0  0.78451027466E+02 -0.64015507750E+00  0.15937971408E+03  0.17764252522E+03  0.00000000000E+00 0. -1.
        -13    1    4    4    0    0  0.18784004437E+02  0.83005021072E+01 -0.89244367081E+02  0.91576712179E+02  0.00000000000E+00 0.  1.
         13    1    4    4    0    0 -0.36721168949E+02  0.31709839671E+02 -0.98886181756E+01  0.49515078010E+02  0.00000000000E+00 0. -1.
          4    1    1    2  501    0 -0.47379833804E+02 -0.44521031863E+01  0.10383082987E+02  0.48708092617E+02  0.00000000000E+00 0. -1.
<scales pt_clust_5="13000.00000" pt_clust_6="13000.00000" pt_clust_7="13000.00000" pt_clust_8="13000.00000" pt_clust_9="47.58855"></scales>
<clustering>
<clus scale="   47.589">  2  9  1 -1</clus>
<clus scale="   89.755">  5  6 -1 -1</clus>
<clus scale="   90.316">  7  8 -1 -1</clus>
<clus scale="  114.249">  1  5  2 -1</clus>
<clus scale="   47.589">  2  5  1 -1</clus>
</clustering>
</event>
<event>
 9    1  0.1445593E-005  0.2292732E+03  0.7546771E-02  0.1127304E+00
         21   -1    0    0  501  502  0.00000000000E+00  0.00000000000E+00  0.65927007937E+02  0.65927007937E+02  0.00000000000E+00 0. -1.
          1   -1    0    0  502    0 -0.00000000000E+00 -0.00000000000E+00 -0.95480914248E+03  0.95480914248E+03  0.00000000000E+00 0. -1.
         23    2    1    2    0    0 -0.68509993757E+02 -0.19905147975E+03 -0.51504178041E+03  0.56377497784E+03  0.90879476418E+02 0.  0.
         23    2    1    2    0    0  0.36992566232E+02  0.20875303301E+03 -0.32674477940E+03  0.39946802922E+03  0.88692033232E+02 0.  0.
        -13    1    3    3    0    0 -0.80047006142E+02 -0.12592609254E+03 -0.40048789482E+03  0.42738209821E+03  0.00000000000E+00 0. -1.
         13    1    3    3    0    0  0.11537012385E+02 -0.73125387207E+02 -0.11455388559E+03  0.13639287963E+03  0.00000000000E+00 0.  1.
        -13    1    4    4    0    0  0.16380435190E+02  0.24424564843E+02 -0.11159930936E+03  0.11540920186E+03  0.00000000000E+00 0.  1.
         13    1    4    4    0    0  0.20612131042E+02  0.18432846817E+03 -0.21514547004E+03  0.28405882736E+03  0.00000000000E+00 0. -1.
          1    1    1    2  501    0  0.31517427525E+02 -0.97015532634E+01 -0.47095574734E+02  0.57493143357E+02  0.00000000000E+00 0. -1.
<scales pt_clust_5="13000.00000" pt_clust_6="13000.00000" pt_clust_7="13000.00000" pt_clust_8="13000.00000" pt_clust_9="32.97679"></scales>
<clustering>
<clus scale="   32.977">  1  9  2 -1</clus>
<clus scale="   88.692">  7  8 -1 -1</clus>
<clus scale="   90.879">  5  6 -1 -1</clus>
<clus scale="  228.415">  1  7  2 -1</clus>
<clus scale="   32.977">  1  5  2 -1</clus>
</clustering>
</event>
<event>
 9    1  0.1445593E-005  0.9468925E+02  0.7546771E-02  0.1292345E+00
         21   -1    0    0  501  502  0.00000000000E+00  0.00000000000E+00  0.19020534464E+03  0.19020534464E+03  0.00000000000E+00 0.  1.
         -2   -1    0    0    0  501 -0.00000000000E+00 -0.00000000000E+00 -0.11376272335E+03  0.11376272335E+03  0.00000000000E+00 0.  1.
         23    2    1    2    0    0 -0.35779300953E+00  0.31633302206E+02 -0.39579439573E+02  0.10463926628E+03  0.91553537274E+02 0.  0.
         23    2    1    2    0    0  0.65049735015E+01 -0.19657675230E+01  0.14990565545E+02  0.93852200089E+02  0.92397724453E+02 0.  0.
        -11    1    4    4    0    0 -0.49094180535E+01 -0.38646518097E+02 -0.18279309342E+02  0.43032416812E+02  0.00000000000E+00 0. -1.
         11    1    4    4    0    0  0.11414391555E+02  0.36680750575E+02  0.33269874888E+02  0.50819783277E+02  0.00000000000E+00 0.  1.
        -13    1    3    3    0    0  0.25160046542E+02 -0.17947799329E+02  0.73380550684E+01  0.31764736658E+02  0.00000000000E+00 0. -1.
         13    1    3    3    0    0 -0.25517839552E+02  0.49581101535E+02 -0.46917494641E+02  0.72874529626E+02  0.00000000000E+00 0.  1.
         -2    1    1    2    0  502 -0.61471804919E+01 -0.29667534683E+02  0.10103149532E+03  0.10547660161E+03  0.00000000000E+00 0.  1.
<scales pt_clust_5="13000.00000" pt_clust_6="13000.00000" pt_clust_7="13000.00000" pt_clust_8="13000.00000" pt_clust_9="30.29770"></scales>
<clustering>
<clus scale="   30.298">  1  9  2 -1</clus>
<clus scale="   91.554">  7  8 -1 -1</clus>
<clus scale="   92.398">  5  6 -1 -1</clus>
<clus scale="   93.866">  2  7  1 -1</clus>
<clus scale="   30.298">  1  5  2 -1</clus>
</clustering>
</event>
<event>
 9    1  0.1445593E-005  0.9623577E+02  0.7546771E-02  0.1290071E+00
         -1   -1    0    0    0  501 -0.00000000000E+00  0.00000000000E+00  0.75842047203E+02  0.75842047203E+02  0.00000000000E+00 0.  1.
         21   -1    0    0  501  502  0.00000000000E+00 -0.00000000000E+00 -0.31146712125E+03  0.31146712125E+03  0.00000000000E+00 0.  1.
         23    2    1    2    0    0  0.23830012212E+02  0.15895636367E+02  0.62969196268E+01  0.91772004323E+02  0.86959236676E+02 0.  0.
         23    2    1    2    0    0 -0.87780473343E+01 -0.68901762502E+02 -0.14844097947E+03  0.18702490182E+03  0.90105951662E+02 0.  0.
        -11    1    3    3    0    0 -0.28598439015E+01  0.44353730229E+02 -0.15511767539E+02  0.47074908652E+02  0.00000000000E+00 0.  1.
         11    1    3    3    0    0  0.26689856113E+02 -0.28458093862E+02  0.21808687166E+02  0.44697095672E+02  0.00000000000E+00 0. -1.
        -13    1    4    4    0    0 -0.96836942091E+01  0.20912810009E+02 -0.21476565497E+02  0.31501784419E+02  0.00000000000E+00 0. -1.
         13    1    4    4    0    0  0.90564687481E+00 -0.89814572511E+02 -0.12696441397E+03  0.15552311740E+03  0.00000000000E+00 0.  1.
         -1    1    1    2    0  502 -0.15051964877E+02  0.53006126135E+02 -0.93481014208E+02  0.10851226231E+03  0.00000000000E+00 0.  1.
<scales pt_clust_5="13000.00000" pt_clust_6="13000.00000" pt_clust_7="13000.00000" pt_clust_8="13000.00000" pt_clust_9="55.10182"></scales>
<clustering>
<clus scale="   55.102">  2  9  1 -1</clus>
<clus scale="   86.959">  5  6 -1 -1</clus>
<clus scale="   90.106">  7  8 -1 -1</clus>
<clus scale="   93.296">  1  5  2 -1</clus>
<clus scale="   55.102">  2  5  1 -1</clus>
</clustering>
</event>
<event>
 9    1  0.1445593E-005  0.1040524E+03  0.7546771E-02  0.1272578E+00
          2   -1    0    0  502    0 -0.00000000000E+00  0.00000000000E+00  0.54536632186E+03  0.54536632186E+03  0.00000000000E+00 0. -1.
         21   -1    0    0  501  502  0.00000000000E+00 -0.00000000000E+00 -0.99247050976E+02  0.99247050976E+02  0.00000000000E+00 0. -1.
         23    2    1    2    0    0  0.47864104588E+02  0.99715739651E+00  0.42242829433E+03  0.43501864552E+03  0.92214918873E+02 0.  0.
         23    2    1    2    0    0 -0.42924068577E+02 -0.60127541621E+02  0.68084288691E+02  0.13548958271E+03  0.90907423970E+02 0.  0.
        -13    1    4    4    0    0 -0.59564312598E+02 -0.34595475843E+02  0.96090564559E+01  0.69549178644E+02  0.00000000000E+00 0.  1.
         13    1    4    4    0    0  0.16640244021E+02 -0.25532065778E+02  0.58475232235E+02  0.65940404070E+02  0.00000000000E+00 0. -1.
        -13    1    3    3    0    0 -0.26546006019E+02  0.17335110714E+01  0.71527387062E+02  0.76314235868E+02  0.00000000000E+00 0.  1.
         13    1    3    3    0    0  0.74410110607E+02 -0.73635367487E+00  0.35090090727E+03  0.35870440965E+03  0.00000000000E+00 0. -1.
          2    1    1    2  501    0 -0.49400360112E+01  0.59130384224E+02 -0.44393312140E+02  0.74105144606E+02  0.00000000000E+00 0. -1.
<scales pt_clust_5="13000.00000" pt_clust_6="13000.00000" pt_clust_7="13000.00000" pt_clust_8="13000.00000" pt_clust_9="59.33638"></scales>
<clustering>
<clus scale="   59.336">  2  9  1 -1</clus>
<clus scale="   90.907">  5  6 -1 -1</clus>
<clus scale="   92.215">  7  8 -1 -1</clus>
<clus scale="  102.895">  2  5  1 -1</clus>
<clus scale="   59.336">  2  5  1 -1</clus>
</clustering>
</event>
<event>
 9    1  0.1445593E-005  0.1010357E+03  0.7546771E-02  0.1280798E+00
          2   -1    0    0  502    0 -0.00000000000E+00  0.00000000000E+00  0.52791421690E+02  0.52791421690E+02  0.00000000000E+00 0. -1.
         21   -1    0    0  501  502  0.00000000000E+00 -0.00000000000E+00 -0.30545040801E+03  0.30545040801E+03  0.00000000000E+00 0. -1.
         23    2    1    2    0    0  0.13497369648E+02  0.15394943571E+02 -0.50468049131E+02  0.11020314962E+03  0.95804628948E+02 0.  0.
         23    2    1    2    0    0 -0.46175761833E+02 -0.28612842858E+02 -0.12812363487E+03  0.16601090765E+03  0.90515522917E+02 0.  0.
        -11    1    3    3    0    0 -0.12036369854E+01  0.52886071204E+02 -0.11437570873E+02  0.54122114675E+02  0.00000000000E+00 0. -1.
         11    1    3    3    0    0  0.14701006633E+02 -0.37491127634E+02 -0.39030478259E+02  0.56081034944E+02  0.00000000000E+00 0.  1.
        -13    1    4    4    0    0  0.20384511452E+02 -0.23848330173E+02 -0.15240437781E+02  0.34878963616E+02  0.00000000000E+00 0.  1.
         13    1    4    4    0    0 -0.66560273285E+02 -0.47645126845E+01 -0.11288319709E+03  0.13113194403E+03  0.00000000000E+00 0. -1.
          2    1    1    2  501    0  0.32678392185E+02  0.13217899287E+02 -0.74067302319E+02  0.82027772432E+02  0.00000000000E+00 0. -1.
<scales pt_clust_5="13000.00000" pt_clust_6="13000.00000" pt_clust_7="13000.00000" pt_clust_8="13000.00000" pt_clust_9="35.25039"></scales>
<clustering>
<clus scale="   35.250">  2  9  1 -1</clus>
<clus scale="   90.516">  7  8 -1 -1</clus>
<clus scale="   95.805">  5  6 -1 -1</clus>
<clus scale="   96.035">  2  7  1 -1</clus>
<clus scale="   35.250">  2  5  1 -1</clus>
</clustering>
</event>
<event>
 9    1  0.1445593E-005  0.1164316E+03  0.7546771E-02  0.1249786E+00
          2   -1    0    0  502    0 -0.00000000000E+00  0.00000000000E+00  0.40760009252E+03  0.40760009252E+03  0.00000000000E+00 0. -1.
         21   -1    0    0  501  502  0.00000000000E+00 -0.00000000000E+00 -0.80333257757E+02  0.80333257757E+02  0.00000000000E+00 0. -1.
         23    2    1    2    0    0 -0.48830694467E+02 -0.49250767620E+02  0.31975590479E+03  0.33988249463E+03  0.92011937675E+02 0.  0.
         23    2    1    2    0    0  0.60223471261E+02  0.32368900749E+02  0.27594223199E+02  0.11944785827E+03  0.93977324210E+02 0.  0.
        -11    1    4    4    0    0 -0.59493331978E+01  0.24102340588E+02 -0.24458965522E+02  0.34850514799E+02  0.00000000000E+00 0.  1.
         11    1    4    4    0    0  0.66172804459E+02  0.82665601615E+01  0.52053188721E+02  0.84597343474E+02  0.00000000000E+00 0. -1.
        -13    1    3    3    0    0  0.10894370563E+01  0.24626571256E+02  0.93420560934E+02  0.96618094011E+02  0.00000000000E+00 0.  1.
         13    1    3    3    0    0 -0.49920131523E+02 -0.73877338876E+02  0.22633534385E+03  0.24326440062E+03  0.00000000000E+00 0. -1.
          2    1    1    2  501    0 -0.11392776795E+02  0.16881866870E+02 -0.20083293224E+02  0.28602997375E+02  0.00000000000E+00 0. -1.
<scales pt_clust_5="13000.00000" pt_clust_6="13000.00000" pt_clust_7="13000.00000" pt_clust_8="13000.00000" pt_clust_9="20.36646"></scales>
<clustering>
<clus scale="   20.366">  2  9  1 -1</clus>
<clus scale="   92.012">  7  8 -1 -1</clus>
<clus scale="   93.977">  5  6 -1 -1</clus>
<clus scale="  114.851">  1  7  2 -1</clus>
<clus scale="   20.366">  2  5  1 -1</clus>
</clustering>
</event>
<event>
 9    1  0.1445593E-005  0.9537215E+02  0.7546771E-02  0.1290820E+00
         21   -1    0    0  501  502  0.00000000000E+00  0.00000000000E+00  0.15109506065E+03  0.15109506065E+03  0.00000000000E+00 0.  1.
         -2   -1    0    0    0  501 -0.00000000000E+00 -0.00000000000E+00 -0.38928339754E+03  0.38928339754E+03  0.00000000000E+00 0.  1.
         23    2    1    2    0    0  0.26074198321E+02 -0.26920059908E+02 -0.24848520256E+03  0.26743877208E+03  0.91509821755E+02 0.  0.
         23    2    1    2    0    0 -0.16282350160E+02 -0.66946235874E+01 -0.11233952948E+03  0.14540336716E+03  0.90620286840E+02 0.  0.
        -11    1    3    3    0    0 -0.25382888946E+02  0.12762416962E+02 -0.40009834303E+02  0.49070940269E+02  0.00000000000E+00 0. -1.
         11    1    3    3    0    0  0.51457087267E+02 -0.39682476869E+02 -0.20847536826E+03  0.21836783181E+03  0.00000000000E+00 0.  1.
        -13    1    4    4    0    0 -0.50066236851E+02 -0.11768778516E+02 -0.92663377041E+02  0.10597940208E+03  0.00000000000E+00 0. -1.
         13    1    4    4    0    0  0.33783886691E+02  0.50741549281E+01 -0.19676152436E+02  0.39423965083E+02  0.00000000000E+00 0.  1.
         -2    1    1    2    0  502 -0.97918481604E+01  0.33614683495E+02  0.12263639515E+03  0.12753631895E+03  0.00000000000E+00 0.  1.
<scales pt_clust_5="13000.00000" pt_clust_6="13000.00000" pt_clust_7="13000.00000" pt_clust_8="13000.00000" pt_clust_9="35.01182"></scales>
<clustering>
<clus scale="   35.012">  1  9  2 -1</clus>
<clus scale="   90.620">  7  8 -1 -1</clus>
<clus scale="   91.510">  5  6 -1 -1</clus>
<clus scale="   94.519">  1  7  2 -1</clus>
<clus scale="   35.012">  1  5  2 -1</clus>
</clustering>
</event>
<event>
 9    1  0.1445593E-005  0.1117389E+03  0.7546771E-02  0.1257559E+00
         21   -1    0    0  501  502  0.00000000000E+00  0.00000000000E+00  0.26778938675E+03  0.26778938675E+03  0.00000000000E+00 0. -1.
          1   -1    0    0  502    0 -0.00000000000E+00 -0.00000000000E+00 -0.48862943172E+03  0.48862943172E+03  0.00000000000E+00 0. -1.
         23    2    1    2    0    0 -0.12604682617E+02 -0.47559726421E+02 -0.18041179786E+03  0.20795642100E+03  0.90976099220E+02 0.  0.
         23    2    1    2    0    0  0.90810749600E+02  0.35495382908E+02 -0.27251780655E+03  0.30325370901E+03  0.90500512096E+02 0.  0.
        -11    1    3    3    0    0 -0.80873734718E+00  0.25553074656E+02 -0.24788538720E+02  0.35610185795E+02  0.00000000000E+00 0. -1.
         11    1    3    3    0    0 -0.11795945270E+02 -0.73112801077E+02 -0.15562325914E+03  0.17234623521E+03  0.00000000000E+00 0.  1.
        -13    1    4    4    0    0  0.22379454697E+02  0.53635556521E+02 -0.86413619372E+02  0.10413897699E+03  0.00000000000E+00 0. -1.
         13    1    4    4    0    0  0.68431294903E+02 -0.18140173613E+02 -0.18610418718E+03  0.19911473202E+03  0.00000000000E+00 0.  1.
          1    1    1    2  501    0 -0.78206066983E+02  0.12064343513E+02  0.23208955944E+03  0.24520868846E+03  0.00000000000E+00 0. -1.
<scales pt_clust_5="13000.00000" pt_clust_6="13000.00000" pt_clust_7="13000.00000" pt_clust_8="13000.00000" pt_clust_9="79.13114"></scales>
<clustering>
<clus scale="   79.131">  1  9  2 -1</clus>
<clus scale="   90.501">  7  8 -1 -1</clus>
<clus scale="   90.976">  5  6 -1 -1</clus>
<clus scale="  111.352">  1  7  2 -1</clus>
<clus scale="   79.131">  1  5  2 -1</clus>
</clustering>
</event>
<event>
 9    1  0.1445593E-005  0.9273250E+02  0.7546771E-02  0.1297537E+00
         21   -1    0    0  501  502  0.00000000000E+00  0.00000000000E+00  0.47874495976E+02  0.47874495976E+02  0.00000000000E+00 0. -1.
          2   -1    0    0  502    0 -0.00000000000E+00 -0.00000000000E+00 -0.32401022885E+03  0.32401022885E+03  0.00000000000E+00 0. -1.
         23    2    1    2    0    0  0.12507202753E+02 -0.40316294211E+00 -0.14919574074E+03  0.17493729882E+03  0.90482577339E+02 0.  0.
         23    2    1    2    0    0  0.36238788238E+02  0.13154573742E+02 -0.83883643620E+02  0.13067058795E+03  0.92477263722E+02 0.  0.
        -13    1    4    4    0    0 -0.99791425037E+01 -0.28400777287E+02 -0.53733263452E+02  0.61590998018E+02  0.00000000000E+00 0.  1.
         13    1    4    4    0    0  0.46217930742E+02  0.41555351029E+02 -0.30150380168E+02  0.69079589934E+02  0.00000000000E+00 0. -1.
        -13    1    3    3    0    0  0.47951403977E+02  0.18181938201E+02 -0.86354240462E+02  0.10043393284E+03  0.00000000000E+00 0.  1.
         13    1    3    3    0    0 -0.35444201223E+02 -0.18585101143E+02 -0.62841500278E+02  0.74503365978E+02  0.00000000000E+00 0. -1.
          2    1    1    2  501    0 -0.48745990991E+02 -0.12751410800E+02 -0.43056348514E+02  0.66276838054E+02  0.00000000000E+00 0. -1.
<scales pt_clust_5="13000.00000" pt_clust_6="13000.00000" pt_clust_7="13000.00000" pt_clust_8="13000.00000" pt_clust_9="50.38621"></scales>
<clustering>
<clus scale="   50.386">  1  9  2 -1</clus>
<clus scale="   90.483">  7  8 -1 -1</clus>
<clus scale="   90.743">  2  7  1 -1</clus>
<clus scale="   92.477">  5  6 -1 -1</clus>
<clus scale="   50.386">  1  5  2 -1</clus>
</clustering>
</event>
<event>
 9    1  0.1445593E-005  0.1508875E+03  0.7546771E-02  0.1200934E+00
          1   -1    0    0  502    0 -0.00000000000E+00  0.00000000000E+00  0.12794285590E+04  0.12794285590E+04  0.00000000000E+00 0. -1.
         21   -1    0    0  501  502  0.00000000000E+00 -0.00000000000E+00 -0.35769296812E+02  0.35769296812E+02  0.00000000000E+00 0. -1.
         23    2    1    2    0    0 -0.58583348421E+02 -0.10704374161E+03  0.88639547406E+03  0.89965653474E+03  0.93779383291E+02 0.  0.
         23    2    1    2    0    0  0.37866989727E+02  0.10499231393E+03  0.36666257523E+03  0.39270028190E+03  0.85526442895E+02 0.  0.
        -11    1    4    4    0    0  0.58318023564E+02  0.71667729101E+02  0.18395656409E+03  0.20585740876E+03  0.00000000000E+00 0.  1.
         11    1    4    4    0    0 -0.20451033837E+02  0.33324584833E+02  0.18270601114E+03  0.18684287314E+03  0.00000000000E+00 0. -1.
        -13    1    3    3    0    0  0.24723410804E+02 -0.39706317630E+02  0.26564407623E+03  0.26973063218E+03  0.00000000000E+00 0.  1.
         13    1    3    3    0    0 -0.83306759225E+02 -0.67337423978E+02  0.62075139783E+03  0.62992590255E+03  0.00000000000E+00 0. -1.
          1    1    1    2  501    0  0.20716358694E+02  0.20514276726E+01 -0.93987870800E+01  0.22841039197E+02  0.00000000000E+00 0. -1.
<scales pt_clust_5="13000.00000" pt_clust_6="13000.00000" pt_clust_7="13000.00000" pt_clust_8="13000.00000" pt_clust_9="20.81768"></scales>
<clustering>
<clus scale="   20.818">  2  9  1 -1</clus>
<clus scale="   85.526">  5  6 -1 -1</clus>
<clus scale="   93.779">  7  8 -1 -1</clus>
<clus scale="  145.901">  2  5  1 -1</clus>
<clus scale="   20.818">  2  5  1 -1</clus>
</clustering>
</event>
<event>
 9    1  0.1445593E-005  0.1176507E+03  0.7546771E-02  0.1247089E+00
         21   -1    0    0  501  502  0.00000000000E+00  0.00000000000E+00  0.37075984814E+03  0.37075984814E+03  0.00000000000E+00 0.  1.
         -3   -1    0    0    0  501 -0.00000000000E+00 -0.00000000000E+00 -0.72950955603E+02  0.72950955603E+02  0.00000000000E+00 0.  1.
         23    2    1    2    0    0 -0.78736369133E+02 -0.12542691526E+02  0.43886909028E+02  0.12949446288E+03  0.92119597249E+02 0.  0.
         23    2    1    2    0    0  0.65981142652E+02 -0.12806713370E+02  0.82895362944E+02  0.14085142782E+03  0.91923666320E+02 0.  0.
        -11    1    3    3    0    0 -0.54396203267E+02  0.26437581399E+02 -0.70508054266E+01  0.60890118224E+02  0.00000000000E+00 0.  1.
         11    1    3    3    0    0 -0.24340165865E+02 -0.38980272925E+02  0.50937714455E+02  0.68604344655E+02  0.00000000000E+00 0. -1.
        -13    1    4    4    0    0 -0.48879550635E+01  0.22347943585E+02 -0.41268881822E+01  0.23245513400E+02  0.00000000000E+00 0. -1.
         13    1    4    4    0    0  0.70869097716E+02 -0.35154656954E+02  0.87022251126E+02  0.11760591442E+03  0.00000000000E+00 0.  1.
         -3    1    1    2    0  502  0.12755226481E+02  0.25349404896E+02  0.17102662056E+03  0.17336491304E+03  0.00000000000E+00 0.  1.
<scales pt_clust_5="13000.00000" pt_clust_6="13000.00000" pt_clust_7="13000.00000" pt_clust_8="13000.00000" pt_clust_9="28.37760"></scales>
<clustering>
<clus scale="   28.378">  1  9  2 -1</clus>
<clus scale="   91.924">  7  8 -1 -1</clus>
<clus scale="   92.120">  5  6 -1 -1</clus>
<clus scale="  117.497">  1  7  2 -1</clus>
<clus scale="   28.378">  1  5  2 -1</clus>
</clustering>
</event>
<event>
 9    1  0.1445593E-005  0.1047805E+03  0.7546771E-02  0.1272214E+00
         21   -1    0    0  501  502  0.00000000000E+00  0.00000000000E+00  0.13991561072E+03  0.13991561072E+03  0.00000000000E+00 0. -1.
          1   -1    0    0  502    0 -0.00000000000E+00 -0.00000000000E+00 -0.71631097505E+03  0.71631097505E+03  0.00000000000E+00 0. -1.
         23    2    1    2    0    0  0.56452834260E+02  0.35209997558E+01 -0.47911296118E+03  0.49122375463E+03  0.92478254783E+02 0.  0.
         23    2    1    2    0    0 -0.37263442702E+02  0.65472620730E+01 -0.22009194607E+03  0.24029602910E+03  0.88714632790E+02 0.  0.
        -11    1    4    4    0    0 -0.64872166119E+02  0.71573514205E+01 -0.18121115189E+03  0.19260609332E+03  0.00000000000E+00 0.  1.
         11    1    4    4    0    0  0.27608723417E+02 -0.61008934750E+00 -0.38880794185E+02  0.47689935774E+02  0.00000000000E+00 0. -1.
        -13    1    3    3    0    0  0.75606951628E+02  0.24953899247E+02 -0.34593709546E+03  0.35498110124E+03  0.00000000000E+00 0. -1.
         13    1    3    3    0    0 -0.19154117368E+02 -0.21432899492E+02 -0.13317586572E+03  0.13624265339E+03  0.00000000000E+00 0.  1.
          1    1    1    2  501    0 -0.19189391558E+02 -0.10068261829E+02  0.12280954292E+03  0.12470680205E+03  0.00000000000E+00 0. -1.
<scales pt_clust_5="13000.00000" pt_clust_6="13000.00000" pt_clust_7="13000.00000" pt_clust_8="13000.00000" pt_clust_9="21.67032"></scales>
<clustering>
<clus scale="   21.670">  1  9  2 -1</clus>
<clus scale="   88.715">  5  6 -1 -1</clus>
<clus scale="   92.478">  7  8 -1 -1</clus>
<clus scale="  101.474">  1  5  2 -1</clus>
<clus scale="   21.670">  1  5  2 -1</clus>
</clustering>
</event>
<event>
 9    1  0.1445593E-005  0.1281664E+03  0.7546771E-02  0.1230501E+00
         21   -1    0    0  501  502  0.00000000000E+00  0.00000000000E+00  0.47803545905E+03  0.47803545905E+03  0.00000000000E+00 0.  1.
          1   -1    0    0  502    0 -0.00000000000E+00 -0.00000000000E+00 -0.63341815790E+02  0.63341815790E+02  0.00000000000E+00 0. -1.
         23    2    1    2    0    0  0.79598973172E+02  0.50557637168E+02  0.91924704582E+02  0.15963980609E+03  0.90236606590E+02 0.  0.
         23    2    1    2    0    0 -0.97098701146E+02  0.16598098004E+02  0.21793445820E+03  0.25601395646E+03  0.91345843972E+02 0.  0.
        -13    1    4    4    0    0 -0.83185614060E+02  0.37539359302E+02  0.99814249525E+02  0.13524767758E+03  0.00000000000E+00 0.  1.
         13    1    4    4    0    0 -0.13913087086E+02 -0.20941261298E+02  0.11812020867E+03  0.12076627888E+03  0.00000000000E+00 0. -1.
        -13    1    3    3    0    0  0.70820659144E+02  0.15145577466E+02  0.14231954160E+02  0.73807200175E+02  0.00000000000E+00 0. -1.
         13    1    3    3    0    0  0.87783140278E+01  0.35412059702E+02  0.77692750422E+02  0.85832605912E+02  0.00000000000E+00 0.  1.
          1    1    1    2  501    0  0.17499727974E+02 -0.67155735172E+02  0.10483448048E+03  0.12572351230E+03  0.00000000000E+00 0. -1.
<scales pt_clust_5="13000.00000" pt_clust_6="13000.00000" pt_clust_7="13000.00000" pt_clust_8="13000.00000" pt_clust_9="69.39837"></scales>
<clustering>
<clus scale="   69.398">  1  9  2 -1</clus>
<clus scale="   90.237">  7  8 -1 -1</clus>
<clus scale="   91.346">  5  6 -1 -1</clus>
<clus scale="  127.378">  2  7  1 -1</clus>
<clus scale="   69.398">  1  5  2 -1</clus>
</clustering>
</event>
<event>
 9    1  0.1445593E-005  0.2049159E+03  0.7546771E-02  0.1145716E+00
         -2   -1    0    0    0  501 -0.00000000000E+00  0.00000000000E+00  0.21828598959E+03  0.21828598959E+03  0.00000000000E+00 0.  1.
         21   -1    0    0  501  502  0.00000000000E+00 -0.00000000000E+00 -0.35931856399E+03  0.35931856399E+03  0.00000000000E+00 0.  1.
         23    2    1    2    0    0 -0.75494010003E+02 -0.13659001857E+03  0.18493039901E+01  0.18053784425E+03  0.90743124039E+02 0.  0.
         23    2    1    2    0    0  0.12059379602E+03  0.22026805500E+03 -0.14063517009E+03  0.30198226172E+03  0.91401070200E+02 0.  0.
        -11    1    4    4    0    0  0.77242355942E+02  0.59776028081E+02 -0.75435014874E+02  0.12340987219E+03  0.00000000000E+00 0. -1.
         11    1    4    4    0    0  0.43351440074E+02  0.16049202692E+03 -0.65200155214E+02  0.17857238953E+03  0.00000000000E+00 0.  1.
        -13    1    3    3    0    0 -0.54358521467E+02 -0.13980611925E+03  0.21457123405E+02  0.15152890147E+03  0.00000000000E+00 0.  1.
         13    1    3    3    0    0 -0.21135488536E+02  0.32161006711E+01 -0.19607819415E+02  0.29008942783E+02  0.00000000000E+00 0. -1.
         -2    1    1    2    0  502 -0.45099786013E+02 -0.83678036427E+02 -0.22467083004E+01  0.95084447608E+02  0.00000000000E+00 0.  1.
<scales pt_clust_5="13000.00000" pt_clust_6="13000.00000" pt_clust_7="13000.00000" pt_clust_8="13000.00000" pt_clust_9="95.05795"></scales>
<clustering>
<clus scale="   90.743">  7  8 -1 -1</clus>
<clus scale="   91.401">  5  6 -1 -1</clus>
<clus scale="   95.058">  2  9  1 -1</clus>
<clus scale="  204.623">  1  7  2 -1</clus>
<clus scale="   95.058">  2  5  1 -1</clus>
</clustering>
</event>
<event>
 9    1  0.1445593E-005  0.2349926E+03  0.7546771E-02  0.1150560E+00
         21   -1    0    0  501  502  0.00000000000E+00  0.00000000000E+00  0.13163498549E+03  0.13163498549E+03  0.00000000000E+00 0.  1.
          2   -1    0    0  502    0 -0.00000000000E+00 -0.00000000000E+00 -0.74181904250E+03  0.74181904250E+03  0.00000000000E+00 0. -1.
         23    2    1    2    0    0 -0.83136736783E+01 -0.81425656459E+02 -0.21906957369E+03  0.25022830321E+03  0.89013880445E+02 0.  0.
         23    2    1    2    0    0 -0.43064651600E+02  0.23988936726E+03 -0.83937093960E+02  0.27378556039E+03  0.92258466246E+02 0.  0.
        -13    1    3    3    0    0 -0.36681207598E+02 -0.96523006261E+01 -0.39428485659E+02  0.54710907318E+02  0.00000000000E+00 0.  1.
         13    1    3    3    0    0  0.28367533920E+02 -0.71773355833E+02 -0.17964108803E+03  0.19551739590E+03  0.00000000000E+00 0. -1.
        -13    1    4    4    0    0 -0.64346641745E+02  0.18326925362E+03 -0.38213112804E+02  0.19796047994E+03  0.00000000000E+00 0.  1.
         13    1    4    4    0    0  0.21281990145E+02  0.56620113640E+02 -0.45723981157E+02  0.75825080455E+02  0.00000000000E+00 0. -1.
          2    1    1    2  501    0  0.51378325278E+02 -0.15846371080E+03 -0.30717738936E+03  0.34944016438E+03  0.00000000000E+00 0. -1.
<scales pt_clust_5="13000.00000" pt_clust_6="13000.00000" pt_clust_7="13000.00000" pt_clust_8="13000.00000" pt_clust_9="216.12478"></scales>
<clustering>
<clus scale="   89.014">  5  6 -1 -1</clus>
<clus scale="   92.258">  7  8 -1 -1</clus>
<clus scale="  120.924">  2  5  1 -1</clus>
<clus scale="  216.125">  1  9  2 -1</clus>
<clus scale="  216.125">  1  5  2 -1</clus>
</clustering>
</event>
<event>
 9    1  0.1445593E-005  0.9442088E+02  0.7546771E-02  0.1292737E+00
          2   -1    0    0  502    0 -0.00000000000E+00  0.00000000000E+00  0.25453009951E+03  0.25453009951E+03  0.00000000000E+00 0. -1.
         21   -1    0    0  501  502  0.00000000000E+00 -0.00000000000E+00 -0.13302410770E+03  0.13302410770E+03  0.00000000000E+00 0. -1.
         23    2    1    2    0    0  0.62285752109E+01  0.19347308621E+02  0.20300644134E+03  0.22345695826E+03  0.91149785883E+02 0.  0.
         23    2    1    2    0    0  0.14951647067E+02 -0.49307498822E+02 -0.53443537672E+02  0.11790845036E+03  0.91604638295E+02 0.  0.
        -11    1    3    3    0    0 -0.33045954127E+02  0.31527031682E+02  0.14729770938E+03  0.15421609514E+03  0.00000000000E+00 0.  1.
         11    1    3    3    0    0  0.39274529337E+02 -0.12179723061E+02  0.55708731960E+02  0.69240863116E+02  0.00000000000E+00 0. -1.
        -13    1    4    4    0    0  0.45153434393E+02 -0.48004362810E+01 -0.44133598592E+02  0.63321807860E+02  0.00000000000E+00 0. -1.
         13    1    4    4    0    0 -0.30201787326E+02 -0.44507062541E+02 -0.93099390806E+01  0.54586642499E+02  0.00000000000E+00 0.  1.
          2    1    1    2  501    0 -0.21180222278E+02  0.29960190200E+02 -0.28056911864E+02  0.46188798598E+02  0.00000000000E+00 0. -1.
<scales pt_clust_5="13000.00000" pt_clust_6="13000.00000" pt_clust_7="13000.00000" pt_clust_8="13000.00000" pt_clust_9="36.69080"></scales>
<clustering>
<clus scale="   36.691">  2  9  1 -1</clus>
<clus scale="   91.150">  5  6 -1 -1</clus>
<clus scale="   91.605">  7  8 -1 -1</clus>
<clus scale="   93.980">  1  5  2 -1</clus>
<clus scale="   36.691">  2  5  1 -1</clus>
</clustering>
</event>
<event>
 9    1  0.1445593E-005  0.1156465E+03  0.7546771E-02  0.1258690E+00
         -4   -1    0    0    0  501 -0.00000000000E+00  0.00000000000E+00  0.22294574325E+03  0.22294574325E+03  0.00000000000E+00 0.  1.
         21   -1    0    0  501  502  0.00000000000E+00 -0.00000000000E+00 -0.98529579210E+02  0.98529579210E+02  0.00000000000E+00 0. -1.
         23    2    1    2    0    0 -0.17711410040E+02 -0.31801674633E+02  0.38072330422E+02  0.10616295086E+03  0.92173907574E+02 0.  0.
         23    2    1    2    0    0  0.51833492066E+02  0.84587985206E+02  0.92422582239E+02  0.15216443219E+03  0.69066942715E+02 0.  0.
        -11    1    3    3    0    0  0.29890387618E+02 -0.32534101709E+02 -0.15748389106E+01  0.44208406029E+02  0.00000000000E+00 0.  1.
         11    1    3    3    0    0 -0.47601797658E+02  0.73242707653E+00  0.39647169332E+02  0.61954544835E+02  0.00000000000E+00 0. -1.
        -11    1    4    4    0    0  0.99203234394E+01  0.32272359160E+02  0.75978515966E+02  0.83142365081E+02  0.00000000000E+00 0.  1.
         11    1    4    4    0    0  0.41913168626E+02  0.52315626046E+02  0.16444066273E+02  0.69022067112E+02  0.00000000000E+00 0. -1.
         -4    1    1    2    0  502 -0.34122082025E+02 -0.52786310573E+02 -0.60787486233E+01  0.63147939400E+02  0.00000000000E+00 0.  1.
<scales pt_clust_5="13000.00000" pt_clust_6="13000.00000" pt_clust_7="13000.00000" pt_clust_8="13000.00000" pt_clust_9="62.85468"></scales>
<clustering>
<clus scale="   62.855">  2  9  1 -1</clus>
<clus scale="   69.067">  7  8 -1 -1</clus>
<clus scale="   92.174">  5  6 -1 -1</clus>
<clus scale="   98.226">  2  7  1 -1</clus>
<clus scale="   62.855">  2  5  1 -1</clus>
</clustering>
</event>
<event>
 9    1  0.1445593E-005  0.1534122E+03  0.7546771E-02  0.1196486E+00
         21   -1    0    0  501  502  0.00000000000E+00  0.00000000000E+00  0.17436095962E+03  0.17436095962E+03  0.00000000000E+00 0. -1.
          1   -1    0    0  502    0 -0.00000000000E+00 -0.00000000000E+00 -0.32936263567E+03  0.32936263567E+03  0.00000000000E+00 0. -1.
         23    2    1    2    0    0 -0.37844287642E+02  0.12745167835E+03 -0.20001596309E+03  0.25728291083E+03  0.92260448154E+02 0.  0.
         23    2    1    2    0    0  0.37688629562E+02 -0.97950909731E+02 -0.49254468546E+02  0.14766357244E+03  0.91453345698E+02 0.  0.
        -13    1    3    3    0    0  0.63973943624E+01  0.98229076057E+02 -0.82790388514E+02  0.12862397315E+03  0.00000000000E+00 0. -1.
         13    1    3    3    0    0 -0.44241682005E+02  0.29222602292E+02 -0.11722557458E+03  0.12865893769E+03  0.00000000000E+00 0.  1.
        -13    1    4    4    0    0  0.53693505998E+02 -0.17071944512E+02 -0.14412009670E+02  0.58156254165E+02  0.00000000000E+00 0. -1.
         13    1    4    4    0    0 -0.16004876436E+02 -0.80878965219E+02 -0.34842458876E+02  0.89507318277E+02  0.00000000000E+00 0.  1.
          1    1    1    2  501    0  0.15565808061E+00 -0.29500768618E+02  0.94268755584E+02  0.98777112014E+02  0.00000000000E+00 0. -1.
<scales pt_clust_5="13000.00000" pt_clust_6="13000.00000" pt_clust_7="13000.00000" pt_clust_8="13000.00000" pt_clust_9="29.50118"></scales>
<clustering>
<clus scale="   29.501">  1  9  2 -1</clus>
<clus scale="   91.453">  7  8 -1 -1</clus>
<clus scale="   92.260">  5  6 -1 -1</clus>
<clus scale="  152.928">  1  7  2 -1</clus>
<clus scale="   29.501">  1  5  2 -1</clus>
</clustering>
</event>
<event>
 9    1  0.1445593E-005  0.1203791E+03  0.7546771E-02  0.1243171E+00
         21   -1    0    0  501  502  0.00000000000E+00  0.00000000000E+00  0.12730846390E+03  0.12730846390E+03  0.00000000000E+00 0.  1.
          2   -1    0    0  502    0 -0.00000000000E+00 -0.00000000000E+00 -0.14106372860E+03  0.14106372860E+03  0.00000000000E+00 0. -1.
         23    2    1    2    0    0  0.64684624943E+02  0.17521383504E+02  0.42937958264E-01  0.11419402575E+03  0.92461743928E+02 0.  0.
         23    2    1    2    0    0 -0.78267926508E+02 -0.41015464119E+02 -0.91034862701E+01  0.12663695641E+03  0.90254687682E+02 0.  0.
        -11    1    3    3    0    0  0.44391718842E+02  0.31033271360E+02 -0.39986567100E+02  0.67324692212E+02  0.00000000000E+00 0. -1.
         11    1    3    3    0    0  0.20292906101E+02 -0.13511887855E+02  0.40029505058E+02  0.46869333542E+02  0.00000000000E+00 0.  1.
        -13    1    4    4    0    0 -0.79714031611E+02 -0.63018344916E+02  0.26500263156E+01  0.10164969882E+03  0.00000000000E+00 0.  1.
         13    1    4    4    0    0  0.14461051026E+01  0.22002880797E+02 -0.11753512586E+02  0.24987257581E+02  0.00000000000E+00 0. -1.
          2    1    1    2  501    0  0.13583301565E+02  0.23494080615E+02 -0.46947163872E+01  0.27541210345E+02  0.00000000000E+00 0. -1.
<scales pt_clust_5="13000.00000" pt_clust_6="13000.00000" pt_clust_7="13000.00000" pt_clust_8="13000.00000" pt_clust_9="27.13814"></scales>
<clustering>
<clus scale="   27.138">  1  9  2 -1</clus>
<clus scale="   90.255">  7  8 -1 -1</clus>
<clus scale="   92.462">  5  6 -1 -1</clus>
<clus scale="  118.692">  1  7  2 -1</clus>
<clus scale="   27.138">  1  5  2 -1</clus>
</clustering>
</event>
<event>
 9    1  0.1445593E-005  0.1003298E+03  0.7546771E-02  0.1280492E+00
         21   -1    0    0  501  502  0.00000000000E+00  0.00000000000E+00  0.41226968987E+03  0.41226968987E+03  0.00000000000E+00 0. -1.
         -1   -1    0    0    0  501 -0.00000000000E+00 -0.00000000000E+00 -0.30699814662E+02  0.30699814662E+02  0.00000000000E+00 0.  1.
         23    2    1    2    0    0 -0.47994303765E+02 -0.82214565217E+01  0.13596273700E+03  0.17027705027E+03  0.90207330392E+02 0.  0.
         23    2    1    2    0    0  0.27827946174E+02  0.78335454498E+01  0.18236849905E+03  0.20631506401E+03  0.92042800745E+02 0.  0.
        -11    1    3    3    0    0 -0.57082380010E+02 -0.39840688388E+02  0.92499745265E+02  0.11576649530E+03  0.00000000000E+00 0. -1.
         11    1    3    3    0    0  0.90880762452E+01  0.31619231866E+02  0.43462991734E+02  0.54510554979E+02  0.00000000000E+00 0.  1.
        -13    1    4    4    0    0  0.47609737115E+02 -0.14529027400E+02  0.49746695092E+02  0.70374095930E+02  0.00000000000E+00 0.  1.
         13    1    4    4    0    0 -0.19781790941E+02  0.22362572850E+02  0.13262180396E+03  0.13594096808E+03  0.00000000000E+00 0. -1.
         -1    1    1    2    0  502  0.20166357591E+02  0.38791107191E+00  0.63238639155E+02  0.66377390244E+02  0.00000000000E+00 0.  1.
<scales pt_clust_5="13000.00000" pt_clust_6="13000.00000" pt_clust_7="13000.00000" pt_clust_8="13000.00000" pt_clust_9="20.17009"></scales>
<clustering>
<clus scale="   20.170">  1  9  2 -1</clus>
<clus scale="   90.207">  5  6 -1 -1</clus>
<clus scale="   92.043">  7  8 -1 -1</clus>
<clus scale="   98.649">  2  5  1 -1</clus>
<clus scale="   20.170">  1  5  2 -1</clus>
</clustering>
</event>
<event>
 9    1  0.1445593E-005  0.1282035E+03  0.7546771E-02  0.1230585E+00
         21   -1    0    0  501  502  0.00000000000E+00  0.00000000000E+00  0.49810693660E+03  0.49810693660E+03  0.00000000000E+00 0.  1.
          4   -1    0    0  502    0 -0.00000000000E+00 -0.00000000000E+00 -0.42716315040E+02  0.42716315040E+02  0.00000000000E+00 0. -1.
         23    2    1    2    0    0  0.91609364979E+02 -0.37188973338E+02  0.14375857289E+03  0.19767985102E+03  0.92927394928E+02 0.  0.
         23    2    1    2    0    0 -0.66655521485E+02  0.25888171704E+02  0.25985914121E+03  0.28457005883E+03  0.91324635945E+02 0.  0.
        -11    1    3    3    0    0  0.65019894444E+01  0.27526233493E+02  0.37178963977E+02  0.46714502668E+02  0.00000000000E+00 0.  1.
         11    1    3    3    0    0  0.85107375535E+02 -0.64715206831E+02  0.10657960892E+03  0.15096534835E+03  0.00000000000E+00 0. -1.
        -13    1    4    4    0    0 -0.28322868831E+02  0.55771071245E+02  0.10454953861E+03  0.12183268572E+03  0.00000000000E+00 0. -1.
         13    1    4    4    0    0 -0.38332652654E+02 -0.29882899541E+02  0.15530960261E+03  0.16273737311E+03  0.00000000000E+00 0.  1.
          4    1    1    2  501    0 -0.24953843494E+02  0.11300801634E+02  0.51772907452E+02  0.58573341792E+02  0.00000000000E+00 0. -1.
<scales pt_clust_5="13000.00000" pt_clust_6="13000.00000" pt_clust_7="13000.00000" pt_clust_8="13000.00000" pt_clust_9="27.39347"></scales>
<clustering>
<clus scale="   27.393">  1  9  2 -1</clus>
<clus scale="   91.325">  7  8 -1 -1</clus>
<clus scale="   92.927">  5  6 -1 -1</clus>
<clus scale="  127.047">  1  7  2 -1</clus>
<clus scale="   27.393">  1  5  2 -1</clus>
</clustering>
</event>
<event>
 9    1  0.1445593E-005  0.1009170E+03  0.7546771E-02  0.1284167E+00
         21   -1    0    0  501  502  0.00000000000E+00  0.00000000000E+00  0.55418330278E+02  0.55418330278E+02  0.00000000000E+00 0. -1.
         -1   -1    0    0    0  501 -0.00000000000E+00 -0.00000000000E+00 -0.32615447520E+03  0.32615447520E+03  0.00000000000E+00 0.  1.
         23    2    1    2    0    0 -0.38834090378E+02  0.19014976664E+01 -0.23800722844E+03  0.25806126656E+03  0.91850281657E+02 0.  0.
         23    2    1    2    0    0  0.52024411587E+02  0.15318592690E+02 -0.31502013929E+02  0.10178548600E+03  0.80166761166E+02 0.  0.
        -11    1    3    3    0    0 -0.77290579961E+01  0.45322738719E+02 -0.99382302625E+02  0.10950219659E+03  0.00000000000E+00 0.  1.
         11    1    3    3    0    0 -0.31105032382E+02 -0.43421241053E+02 -0.13862492581E+03  0.14855906997E+03  0.00000000000E+00 0. -1.
        -11    1    4    4    0    0  0.58530953725E+02 -0.17390309359E+02 -0.30893218282E+02  0.68430156652E+02  0.00000000000E+00 0.  1.
         11    1    4    4    0    0 -0.65065421377E+01  0.32708902049E+02 -0.60879564610E+00  0.33355329349E+02  0.00000000000E+00 0. -1.
         -1    1    1    2    0  502 -0.13190321209E+02 -0.17220090356E+02 -0.12269025534E+01  0.21726052917E+02  0.00000000000E+00 0.  1.
<scales pt_clust_5="13000.00000" pt_clust_6="13000.00000" pt_clust_7="13000.00000" pt_clust_8="13000.00000" pt_clust_9="21.69138"></scales>
<clustering>
<clus scale="   21.691">  1  9  2 -1</clus>
<clus scale="   80.167">  7  8 -1 -1</clus>
<clus scale="   90.413">  1  7  2 -1</clus>
<clus scale="   91.850">  5  6 -1 -1</clus>
<clus scale="   21.691">  1  5  2 -1</clus>
</clustering>
</event>
<event>
 9    1  0.1445593E-005  0.1050881E+03  0.7546771E-02  0.1271368E+00
          2   -1    0    0  502    0 -0.00000000000E+00  0.00000000000E+00  0.53425557123E+03  0.53425557123E+03  0.00000000000E+00 0. -1.
         21   -1    0    0  501  502  0.00000000000E+00 -0.00000000000E+00 -0.57165166160E+02  0.57165166160E+02  0.00000000000E+00 0. -1.
         23    2    1    2    0    0  0.46385143453E+02 -0.37025109288E+02  0.35250170021E+03  0.36949990013E+03  0.93542970312E+02 0.  0.
         23    2    1    2    0    0 -0.38702296953E+02 -0.13541832566E+02  0.13713727691E+03  0.16925672805E+03  0.90332487248E+02 0.  0.
        -11    1    3    3    0    0 -0.55968945698E+01 -0.54319951095E+02  0.14678711702E+03  0.15661558045E+03  0.00000000000E+00 0. -1.
         11    1    3    3    0    0  0.51982038022E+02  0.17294841807E+02  0.20571458319E+03  0.21288431969E+03  0.00000000000E+00 0.  1.
        -13    1    4    4    0    0  0.26691577297E+02 -0.14126856116E+02  0.66266669533E+02  0.72823621534E+02  0.00000000000E+00 0. -1.
         13    1    4    4    0    0 -0.65393874249E+02  0.58502355008E+00  0.70870607377E+02  0.96433106514E+02  0.00000000000E+00 0.  1.
          2    1    1    2  501    0 -0.76828465001E+01  0.50566941854E+02 -0.12548572048E+02  0.52664109214E+02  0.00000000000E+00 0. -1.
<scales pt_clust_5="13000.00000" pt_clust_6="13000.00000" pt_clust_7="13000.00000" pt_clust_8="13000.00000" pt_clust_9="51.14726"></scales>
<clustering>
<clus scale="   51.147">  2  9  1 -1</clus>
<clus scale="   90.332">  7  8 -1 -1</clus>
<clus scale="   93.543">  5  6 -1 -1</clus>
<clus scale="  102.241">  2  7  1 -1</clus>
<clus scale="   51.147">  2  5  1 -1</clus>
</clustering>
</event>
<event>
 9    1  0.1445593E-005  0.1001566E+03  0.7546771E-02  0.1281798E+00
          2   -1    0    0  502    0 -0.00000000000E+00  0.00000000000E+00  0.40674734251E+03  0.40674734251E+03  0.00000000000E+00 0. -1.
         21   -1    0    0  501  502  0.00000000000E+00 -0.00000000000E+00 -0.40377013026E+02  0.40377013026E+02  0.00000000000E+00 0. -1.
         23    2    1    2    0    0  0.29923834911E+02  0.36868517279E+02  0.27608926357E+03  0.29348052472E+03  0.87468928587E+02 0.  0.
         23    2    1    2    0    0 -0.27033280856E+02 -0.82495368080E+01  0.70957362850E+02  0.11899117080E+03  0.91241976387E+02 0.  0.
        -11    1    3    3    0    0  0.50141365736E+02  0.53316676336E+02  0.19366429673E+03  0.20703305138E+03  0.00000000000E+00 0. -1.
         11    1    3    3    0    0 -0.20217530825E+02 -0.16448159057E+02  0.82424966841E+02  0.86447473345E+02  0.00000000000E+00 0.  1.
        -11    1    4    4    0    0 -0.49596127042E+02  0.19686124561E+02  0.20725491088E+02  0.57243910581E+02  0.00000000000E+00 0. -1.
         11    1    4    4    0    0  0.22562846186E+02 -0.27935661369E+02  0.50231871762E+02  0.61747260221E+02  0.00000000000E+00 0.  1.
          2    1    1    2  501    0 -0.28905540551E+01 -0.28618980471E+02  0.19323703063E+02  0.34652660014E+02  0.00000000000E+00 0. -1.
<scales pt_clust_5="13000.00000" pt_clust_6="13000.00000" pt_clust_7="13000.00000" pt_clust_8="13000.00000" pt_clust_9="28.76458"></scales>
<clustering>
<clus scale="   28.765">  2  9  1 -1</clus>
<clus scale="   87.469">  5  6 -1 -1</clus>
<clus scale="   91.242">  7  8 -1 -1</clus>
<clus scale="   96.732">  1  5  2 -1</clus>
<clus scale="   28.765">  2  5  1 -1</clus>
</clustering>
</event>
<event>
 9    1  0.1445593E-005  0.1820764E+03  0.7546771E-02  0.1168566E+00
          1   -1    0    0  502    0 -0.00000000000E+00  0.00000000000E+00  0.30657178573E+03  0.30657178573E+03  0.00000000000E+00 0. -1.
         21   -1    0    0  501  502  0.00000000000E+00 -0.00000000000E+00 -0.13913374862E+03  0.13913374862E+03  0.00000000000E+00 0.  1.
         23    2    1    2    0    0 -0.15430991916E+03  0.17742743179E+02  0.14803028793E+03  0.22965683237E+03  0.81871475038E+02 0.  0.
         23    2    1    2    0    0  0.13404059192E+03 -0.49177336531E+02  0.25977309088E+02  0.17807320457E+03  0.10319861864E+03 0.  0.
        -11    1    3    3    0    0 -0.21960580900E+02 -0.27541347091E+02  0.36800257767E+02  0.50941651767E+02  0.00000000000E+00 0.  1.
         11    1    3    3    0    0 -0.13234933826E+03  0.45284090270E+02  0.11123003016E+03  0.17871518060E+03  0.00000000000E+00 0. -1.
        -13    1    4    4    0    0  0.27136712674E+02 -0.62124122234E+02  0.23861577161E+01  0.67834368036E+02  0.00000000000E+00 0. -1.
         13    1    4    4    0    0  0.10690387924E+03  0.12946785704E+02  0.23591151371E+02  0.11023883653E+03  0.00000000000E+00 0.  1.
          1    1    1    2  501    0  0.20269327240E+02  0.31434593351E+02 -0.65695599028E+01  0.37975497406E+02  0.00000000000E+00 0. -1.
<scales pt_clust_5="13000.00000" pt_clust_6="13000.00000" pt_clust_7="13000.00000" pt_clust_8="13000.00000" pt_clust_9="37.40293"></scales>
<clustering>
<clus scale="   37.403">  2  9  1 -1</clus>
<clus scale="   81.871">  5  6 -1 -1</clus>
<clus scale="  103.199">  7  8 -1 -1</clus>
<clus scale="  170.894">  1  5  2 -1</clus>
<clus scale="   37.403">  2  5  1 -1</clus>
</clustering>
</event>
<event>
 9    1  0.1445593E-005  0.9580904E+02  0.7546771E-02  0.1290013E+00
         21   -1    0    0  501  502  0.00000000000E+00  0.00000000000E+00  0.53317665240E+02  0.53317665240E+02  0.00000000000E+00 0.  1.
          1   -1    0    0  502    0 -0.00000000000E+00 -0.00000000000E+00 -0.58406097204E+03  0.58406097204E+03  0.00000000000E+00 0. -1.
         23    2    1    2    0    0  0.15917496746E+02 -0.19036269015E+02 -0.39742323540E+03  0.40843695997E+03  0.90883309772E+02 0.  0.
         23    2    1    2    0    0  0.30399067942E+02  0.49596046630E+02 -0.13495548580E+03  0.17342772634E+03  0.92088663487E+02 0.  0.
        -13    1    4    4    0    0  0.38414170739E+02 -0.10093030011E+02 -0.21959590133E+02  0.45384373601E+02  0.00000000000E+00 0. -1.
         13    1    4    4    0    0 -0.80151027970E+01  0.59689076640E+02 -0.11299589567E+03  0.12804335274E+03  0.00000000000E+00 0.  1.
        -13    1    3    3    0    0  0.51837813356E+02 -0.18875423104E+02 -0.18692505309E+03  0.19489591059E+03  0.00000000000E+00 0. -1.
         13    1    3    3    0    0 -0.35920316610E+02 -0.16084591077E+00 -0.21049818231E+03  0.21354104938E+03  0.00000000000E+00 0.  1.
          1    1    1    2  501    0 -0.46316564688E+02 -0.30559777615E+02  0.16354143958E+01  0.55513950973E+02  0.00000000000E+00 0. -1.
<scales pt_clust_5="13000.00000" pt_clust_6="13000.00000" pt_clust_7="13000.00000" pt_clust_8="13000.00000" pt_clust_9="55.48986"></scales>
<clustering>
<clus scale="   55.490">  1  9  2 -1</clus>
<clus scale="   90.883">  7  8 -1 -1</clus>
<clus scale="   92.089">  5  6 -1 -1</clus>
<clus scale="   94.651">  2  7  1 -1</clus>
<clus scale="   55.490">  1  5  2 -1</clus>
</clustering>
</event>
<event>
 9    1  0.1445593E-005  0.1066852E+03  0.7546771E-02  0.1267401E+00
          2   -1    0    0  502    0 -0.00000000000E+00  0.00000000000E+00  0.36627899625E+03  0.36627899625E+03  0.00000000000E+00 0. -1.
         21   -1    0    0  501  502  0.00000000000E+00 -0.00000000000E+00 -0.42322654061E+02  0.42322654061E+02  0.00000000000E+00 0.  1.
         23    2    1    2    0    0  0.51401124878E+02  0.34670065646E+01  0.20657713175E+03  0.23098819613E+03  0.89595421848E+02 0.  0.
         23    2    1    2    0    0 -0.62343082965E+02 -0.21354600470E+02  0.99075813489E+02  0.14977989885E+03  0.90968798641E+02 0.  0.
        -11    1    3    3    0    0  0.74509769478E+02  0.14885272419E+02  0.13503356739E+03  0.15494302632E+03  0.00000000000E+00 0. -1.
         11    1    3    3    0    0 -0.23108644600E+02 -0.11418265855E+02  0.71543564358E+02  0.76045169810E+02  0.00000000000E+00 0.  1.
        -13    1    4    4    0    0 -0.50208161472E+02 -0.52167563724E+02  0.41756750782E+02  0.83581938355E+02  0.00000000000E+00 0.  1.
         13    1    4    4    0    0 -0.12134921494E+02  0.30812963254E+02  0.57319062707E+02  0.66197960495E+02  0.00000000000E+00 0. -1.
          2    1    1    2  501    0  0.10941958087E+02  0.17887593906E+02  0.18303396954E+02  0.27833555335E+02  0.00000000000E+00 0. -1.
<scales pt_clust_5="13000.00000" pt_clust_6="13000.00000" pt_clust_7="13000.00000" pt_clust_8="13000.00000" pt_clust_9="20.96885"></scales>
<clustering>
<clus scale="   20.969">  2  9  1 -1</clus>
<clus scale="   89.595">  5  6 -1 -1</clus>
<clus scale="   90.969">  7  8 -1 -1</clus>
<clus scale="  105.517">  1  5  2 -1</clus>
<clus scale="   20.969">  2  5  1 -1</clus>
</clustering>
</event>
<event>
 9    1  0.1851638E-005  0.1764768E+03  0.7546771E-02  0.1171675E+00
          1   -1    0    0  502    0 -0.00000000000E+00  0.00000000000E+00  0.52858577786E+03  0.52858577786E+03  0.00000000000E+00 0. -1.
         21   -1    0    0  501  502  0.00000000000E+00 -0.00000000000E+00 -0.37364442649E+03  0.37364442649E+03  0.00000000000E+00 0. -1.
         23    2    1    2    0    0  0.87037343392E+02 -0.12076787729E+03  0.46504379023E+03  0.49645865424E+03  0.89694421264E+02 0.  0.
         23    2    1    2    0    0 -0.77659390933E+02  0.14664717378E+03 -0.14702320198E+03  0.24038557284E+03  0.92914084675E+02 0.  0.
        -13    1    3    3    0    0  0.27911024100E+02 -0.13484858438E+02  0.25421389467E+02  0.40088822829E+02  0.00000000000E+00 0.  1.
         13    1    3    3    0    0  0.59126319292E+02 -0.10728301886E+03  0.43962240076E+03  0.45636983141E+03  0.00000000000E+00 0. -1.
        -13    1    4    4    0    0 -0.49888090073E+02  0.15364499611E+03 -0.12525729858E+03  0.20441378918E+03  0.00000000000E+00 0. -1.
         13    1    4    4    0    0 -0.27771300860E+02 -0.69978223258E+01 -0.21765903396E+02  0.35971783656E+02  0.00000000000E+00 0.  1.
          1    1    1    2  501    0 -0.93779524591E+01 -0.25879296486E+02 -0.16307923687E+03  0.16538597727E+03  0.00000000000E+00 0. -1.
<scales pt_clust_5="13000.00000" pt_clust_6="13000.00000" pt_clust_7="13000.00000" pt_clust_8="13000.00000" pt_clust_9="27.52606"></scales>
<clustering>
<clus scale="   27.526">  2  9  1 -1</clus>
<clus scale="   89.694">  5  6 -1 -1</clus>
<clus scale="   92.914">  7  8 -1 -1</clus>
<clus scale="  174.803">  1  5  2 -1</clus>
<clus scale="   27.526">  2  5  1 -1</clus>
</clustering>
</event>
<event>
 9    1  0.1445593E-005  0.1066709E+03  0.7546771E-02  0.1267871E+00
         -4   -1    0    0    0  501 -0.00000000000E+00  0.00000000000E+00  0.37572046269E+03  0.37572046269E+03  0.00000000000E+00 0.  1.
         21   -1    0    0  501  502  0.00000000000E+00 -0.00000000000E+00 -0.10809990206E+03  0.10809990206E+03  0.00000000000E+00 0. -1.
         23    2    1    2    0    0  0.24509152310E+00 -0.55533102354E+02  0.32896946941E+03  0.34543686690E+03  0.89564120508E+02 0.  0.
         23    2    1    2    0    0  0.15096443651E+02  0.39746470482E+02 -0.44520810196E+02  0.11067491887E+03  0.91973640790E+02 0.  0.
        -11    1    3    3    0    0  0.35202276530E+02 -0.11715961816E+02  0.21777997840E+03  0.22091759329E+03  0.00000000000E+00 0.  1.
         11    1    3    3    0    0 -0.34957185007E+02 -0.43817140538E+02  0.11118949101E+03  0.12451927361E+03  0.00000000000E+00 0. -1.
        -11    1    4    4    0    0 -0.69379484128E+01  0.47801464499E+02 -0.63999958354E+02  0.80181729875E+02  0.00000000000E+00 0. -1.
         11    1    4    4    0    0  0.22034392064E+02 -0.80549940175E+01  0.19479148158E+02  0.30493188997E+02  0.00000000000E+00 0.  1.
         -4    1    1    2    0  502 -0.15341535174E+02  0.15786631872E+02 -0.16828098586E+02  0.27708578985E+02  0.00000000000E+00 0.  1.
<scales pt_clust_5="13000.00000" pt_clust_6="13000.00000" pt_clust_7="13000.00000" pt_clust_8="13000.00000" pt_clust_9="22.01319"></scales>
<clustering>
<clus scale="   22.013">  2  9  1 -1</clus>
<clus scale="   89.564">  5  6 -1 -1</clus>
<clus scale="   91.974">  7  8 -1 -1</clus>
<clus scale="  104.600">  1  5  2 -1</clus>
<clus scale="   22.013">  2  5  1 -1</clus>
</clustering>
</event>
<event>
 9    1  0.1445593E-005  0.1671538E+03  0.7546771E-02  0.1181178E+00
         21   -1    0    0  501  502  0.00000000000E+00  0.00000000000E+00  0.96271737612E+02  0.96271737612E+02  0.00000000000E+00 0. -1.
          4   -1    0    0  502    0 -0.00000000000E+00 -0.00000000000E+00 -0.11214381796E+04  0.11214381796E+04  0.00000000000E+00 0. -1.
         23    2    1    2    0    0 -0.28681291214E+02 -0.12332045612E+03 -0.65510873823E+03  0.67294586559E+03  0.87510729297E+02 0.  0.
         23    2    1    2    0    0 -0.74527537081E+01  0.18353874850E+03 -0.41412551576E+03  0.46185516188E+03  0.89823337821E+02 0.  0.
        -11    1    3    3    0    0  0.19704352945E+02 -0.96244464303E+02 -0.40105604839E+03  0.41291308090E+03  0.00000000000E+00 0.  1.
         11    1    3    3    0    0 -0.48385644159E+02 -0.27075991817E+02 -0.25405268985E+03  0.26003278469E+03  0.00000000000E+00 0. -1.
        -11    1    4    4    0    0  0.36623361359E+02  0.88232609003E+02 -0.15259155907E+03  0.18002901929E+03  0.00000000000E+00 0.  1.
         11    1    4    4    0    0 -0.44076115067E+02  0.95306139497E+02 -0.26153395669E+03  0.28182614259E+03  0.00000000000E+00 0. -1.
          4    1    1    2  501    0  0.36134044922E+02 -0.60218292381E+02  0.44067812016E+02  0.82908889726E+02  0.00000000000E+00 0. -1.
<scales pt_clust_5="13000.00000" pt_clust_6="13000.00000" pt_clust_7="13000.00000" pt_clust_8="13000.00000" pt_clust_9="70.22757"></scales>
<clustering>
<clus scale="   70.228">  1  9  2 -1</clus>
<clus scale="   87.511">  5  6 -1 -1</clus>
<clus scale="   89.823">  7  8 -1 -1</clus>
<clus scale="  165.923">  2  5  1 -1</clus>
<clus scale="   70.228">  1  5  2 -1</clus>
</clustering>
</event>
<event>
 9    1  0.1445593E-005  0.1586367E+03  0.7546771E-02  0.1190696E+00
          1   -1    0    0  502    0 -0.00000000000E+00  0.00000000000E+00  0.81357019498E+03  0.81357019498E+03  0.00000000000E+00 0. -1.
         21   -1    0    0  501  502  0.00000000000E+00 -0.00000000000E+00 -0.90737484007E+02  0.90737484007E+02  0.00000000000E+00 0.  1.
         23    2    1    2    0    0 -0.23398941331E+02 -0.12452556246E+03  0.68873120185E+03  0.70645295500E+03  0.93118113463E+02 0.  0.
         23    2    1    2    0    0  0.46004232241E+02  0.13566829516E+03  0.33271852937E+02  0.17263869737E+03  0.90414755094E+02 0.  0.
        -11    1    4    4    0    0  0.70524293450E+02  0.91756360863E+02  0.71069946554E+01  0.11594574205E+03  0.00000000000E+00 0. -1.
         11    1    4    4    0    0 -0.24520061209E+02  0.43911934293E+02  0.26164858281E+02  0.56692955329E+02  0.00000000000E+00 0.  1.
        -13    1    3    3    0    0 -0.20696518033E+02 -0.95647885158E+01  0.29583763135E+02  0.37350101463E+02  0.00000000000E+00 0.  1.
         13    1    3    3    0    0 -0.27024232980E+01 -0.11496077394E+03  0.65914743872E+03  0.66910285353E+03  0.00000000000E+00 0. -1.
          1    1    1    2  501    0 -0.22605290910E+02 -0.11142732695E+02  0.82965618543E+00  0.25216026618E+02  0.00000000000E+00 0. -1.
<scales pt_clust_5="13000.00000" pt_clust_6="13000.00000" pt_clust_7="13000.00000" pt_clust_8="13000.00000" pt_clust_9="25.20237"></scales>
<clustering>
<clus scale="   25.202">  2  9  1 -1</clus>
<clus scale="   90.415">  5  6 -1 -1</clus>
<clus scale="   93.118">  7  8 -1 -1</clus>
<clus scale="  157.065">  2  5  1 -1</clus>
<clus scale="   25.202">  2  5  1 -1</clus>
</clustering>
</event>
<event>
 9    1  0.1445593E-005  0.1036342E+03  0.7546771E-02  0.1274654E+00
          2   -1    0    0  502    0 -0.00000000000E+00  0.00000000000E+00  0.79222784755E+03  0.79222784755E+03  0.00000000000E+00 0. -1.
         21   -1    0    0  501  502  0.00000000000E+00 -0.00000000000E+00 -0.10934049731E+03  0.10934049731E+03  0.00000000000E+00 0. -1.
         23    2    1    2    0    0  0.41331977109E+02  0.10929265218E+02  0.52365796248E+03  0.53345072691E+03  0.92326784840E+02 0.  0.
         23    2    1    2    0    0 -0.47395945953E+02 -0.35655227609E+02  0.25114307753E+03  0.27274324351E+03  0.88308326568E+02 0.  0.
        -11    1    3    3    0    0 -0.56451070889E+01  0.43331389864E+02  0.19115363281E+03  0.19608464478E+03  0.00000000000E+00 0.  1.
         11    1    3    3    0    0  0.46977084198E+02 -0.32402124646E+02  0.33250432966E+03  0.33736608212E+03  0.00000000000E+00 0. -1.
        -11    1    4    4    0    0 -0.15326806155E+02  0.29523846797E+02  0.91198301372E+02  0.97075736875E+02  0.00000000000E+00 0.  1.
         11    1    4    4    0    0 -0.32069139798E+02 -0.65179074406E+02  0.15994477616E+03  0.17566750663E+03  0.00000000000E+00 0. -1.
          2    1    1    2  501    0  0.60639688447E+01  0.24725962392E+02 -0.91913689771E+02  0.95374374450E+02  0.00000000000E+00 0. -1.
<scales pt_clust_5="13000.00000" pt_clust_6="13000.00000" pt_clust_7="13000.00000" pt_clust_8="13000.00000" pt_clust_9="25.45869"></scales>
<clustering>
<clus scale="   25.459">  2  9  1 -1</clus>
<clus scale="   88.308">  7  8 -1 -1</clus>
<clus scale="   92.327">  5  6 -1 -1</clus>
<clus scale="  100.071">  2  7  1 -1</clus>
<clus scale="   25.459">  2  5  1 -1</clus>
</clustering>
</event>
<event>
 9    1  0.1445593E-005  0.1037662E+03  0.7546771E-02  0.1273480E+00
         -3   -1    0    0    0  501 -0.00000000000E+00  0.00000000000E+00  0.67956249808E+03  0.67956249808E+03  0.00000000000E+00 0.  1.
         21   -1    0    0  501  502  0.00000000000E+00 -0.00000000000E+00 -0.22857933854E+02  0.22857933854E+02  0.00000000000E+00 0. -1.
         23    2    1    2    0    0  0.86240060016E+01  0.48341684861E+02  0.36327725185E+03  0.37786781933E+03  0.91664798045E+02 0.  0.
         23    2    1    2    0    0  0.19985778997E+02 -0.48724534456E+02  0.26294241562E+03  0.28274357887E+03  0.89619784868E+02 0.  0.
        -11    1    3    3    0    0 -0.22174079432E+02  0.64536455968E+02  0.26368319226E+03  0.27237009716E+03  0.00000000000E+00 0.  1.
         11    1    3    3    0    0  0.30798085433E+02 -0.16194771107E+02  0.99594059591E+02  0.10549772217E+03  0.00000000000E+00 0. -1.
        -13    1    4    4    0    0 -0.23340646560E+02 -0.54824005827E+02  0.16647750281E+03  0.17681972836E+03  0.00000000000E+00 0.  1.
         13    1    4    4    0    0  0.43326425557E+02  0.60994713711E+01  0.96464912808E+02  0.10592385050E+03  0.00000000000E+00 0. -1.
         -3    1    1    2    0  502 -0.28609784998E+02  0.38284959437E+00  0.30484896757E+02  0.41809033734E+02  0.00000000000E+00 0.  1.
<scales pt_clust_5="13000.00000" pt_clust_6="13000.00000" pt_clust_7="13000.00000" pt_clust_8="13000.00000" pt_clust_9="28.61235"></scales>
<clustering>
<clus scale="   28.612">  2  9  1 -1</clus>
<clus scale="   89.620">  7  8 -1 -1</clus>
<clus scale="   91.665">  5  6 -1 -1</clus>
<clus scale="  101.964">  2  7  1 -1</clus>
<clus scale="   28.612">  2  5  1 -1</clus>
</clustering>
</event>
<event>
 9    1  0.1694317E-005  0.1076488E+03  0.7546771E-02  0.1268733E+00
          1   -1    0    0  502    0 -0.00000000000E+00  0.00000000000E+00  0.82353019540E+02  0.82353019540E+02  0.00000000000E+00 0. -1.
         21   -1    0    0  501  502  0.00000000000E+00 -0.00000000000E+00 -0.32879216934E+03  0.32879216934E+03  0.00000000000E+00 0.  1.
         23    2    1    2    0    0  0.29283283093E+02 -0.16230065696E+02  0.30680969548E+01  0.10668940529E+03  0.10125359392E+03 0.  0.
         23    2    1    2    0    0 -0.54046933842E+02 -0.25844732032E+02 -0.10778197121E+03  0.15455721545E+03  0.93177026659E+02 0.  0.
        -11    1    3    3    0    0  0.22132210453E+02 -0.54838460505E+02 -0.18407810420E+02  0.61934957613E+02  0.00000000000E+00 0.  1.
         11    1    3    3    0    0  0.71510726402E+01  0.38608394809E+02  0.21475907374E+02  0.44754447680E+02  0.00000000000E+00 0. -1.
        -13    1    4    4    0    0  0.23748164840E+02  0.73444210415E+01 -0.35271928384E+02  0.43151185217E+02  0.00000000000E+00 0. -1.
         13    1    4    4    0    0 -0.77795098682E+02 -0.33189153073E+02 -0.72510042825E+02  0.11140603023E+03  0.00000000000E+00 0.  1.
          1    1    1    2  501    0  0.24763650749E+02  0.42074797728E+02 -0.14172527555E+03  0.14989856814E+03  0.00000000000E+00 0. -1.
<scales pt_clust_5="13000.00000" pt_clust_6="13000.00000" pt_clust_7="13000.00000" pt_clust_8="13000.00000" pt_clust_9="48.82138"></scales>
<clustering>
<clus scale="   48.821">  2  9  1 -1</clus>
<clus scale="   93.177">  7  8 -1 -1</clus>
<clus scale="  100.090">  2  7  1 -1</clus>
<clus scale="  101.254">  5  6 -1 -1</clus>
<clus scale="   48.821">  2  5  1 -1</clus>
</clustering>
</event>
<event>
 9    1  0.1445593E-005  0.1818765E+03  0.7546771E-02  0.1179113E+00
          1   -1    0    0  502    0 -0.00000000000E+00  0.00000000000E+00  0.21021432622E+03  0.21021432622E+03  0.00000000000E+00 0. -1.
         21   -1    0    0  501  502  0.00000000000E+00 -0.00000000000E+00 -0.42071390131E+03  0.42071390131E+03  0.00000000000E+00 0. -1.
         23    2    1    2    0    0 -0.68876270400E+02 -0.70596764012E+02 -0.93339464885E+02  0.16406265609E+03  0.92067669164E+02 0.  0.
         23    2    1    2    0    0  0.14571593348E+03 -0.71183155910E+02  0.88050676894E+02  0.20587257028E+03  0.91271126524E+02 0.  0.
        -11    1    4    4    0    0  0.49454709950E+02  0.69905172282E+01 -0.59033046871E+01  0.50293982479E+02  0.00000000000E+00 0.  1.
         11    1    4    4    0    0  0.96261223534E+02 -0.78173673138E+02  0.93953981581E+02  0.15557858780E+03  0.00000000000E+00 0. -1.
        -13    1    3    3    0    0 -0.30384196276E+02 -0.80856201563E+01 -0.84451858338E+02  0.90114887857E+02  0.00000000000E+00 0.  1.
         13    1    3    3    0    0 -0.38492074124E+02 -0.62511143856E+02 -0.88876065462E+01  0.73947768233E+02  0.00000000000E+00 0. -1.
          1    1    1    2  501    0 -0.76839663084E+02  0.14177991992E+03 -0.20521078710E+03  0.26099300117E+03  0.00000000000E+00 0. -1.
<scales pt_clust_5="13000.00000" pt_clust_6="13000.00000" pt_clust_7="13000.00000" pt_clust_8="13000.00000" pt_clust_9="157.31698"></scales>
<clustering>
<clus scale="   91.271">  5  6 -1 -1</clus>
<clus scale="   92.068">  7  8 -1 -1</clus>
<clus scale="  134.923">  1  7  2 -1</clus>
<clus scale="  157.317">  2  9  1 -1</clus>
<clus scale="  157.317">  2  5  1 -1</clus>
</clustering>
</event>
<event>
 9    1  0.1445593E-005  0.9877081E+02  0.7546771E-02  0.1283222E+00
         21   -1    0    0  501  502  0.00000000000E+00  0.00000000000E+00  0.52523270959E+02  0.52523270959E+02  0.00000000000E+00 0.  1.
          2   -1    0    0  502    0 -0.00000000000E+00 -0.00000000000E+00 -0.40770117620E+03  0.40770117620E+03  0.00000000000E+00 0. -1.
         23    2    1    2    0    0  0.44761527485E+01 -0.26485656092E+02 -0.18215446174E+03  0.20580746292E+03  0.91950736486E+02 0.  0.
         23    2    1    2    0    0 -0.38770006693E+02  0.28878180322E+02 -0.18943637326E+03  0.21632266900E+03  0.92586688521E+02 0.  0.
        -11    1    4    4    0    0  0.25823545025E+02  0.58272402621E+01 -0.18943777905E+02  0.32552709996E+02  0.00000000000E+00 0.  1.
         11    1    4    4    0    0 -0.64593551718E+02  0.23050940060E+02 -0.17049259536E+03  0.18376995901E+03  0.00000000000E+00 0. -1.
        -11    1    3    3    0    0 -0.75645952400E+01  0.33636457334E+02 -0.65042171806E+02  0.73614662102E+02  0.00000000000E+00 0. -1.
         11    1    3    3    0    0  0.12040747989E+02 -0.60122113426E+02 -0.11711228993E+03  0.13219280082E+03  0.00000000000E+00 0.  1.
          2    1    1    2  501    0  0.34293853944E+02 -0.23925242296E+01  0.16412929756E+02  0.38094315242E+02  0.00000000000E+00 0. -1.
<scales pt_clust_5="13000.00000" pt_clust_6="13000.00000" pt_clust_7="13000.00000" pt_clust_8="13000.00000" pt_clust_9="34.37721"></scales>
<clustering>
<clus scale="   34.377">  1  9  2 -1</clus>
<clus scale="   91.951">  7  8 -1 -1</clus>
<clus scale="   92.587">  5  6 -1 -1</clus>
<clus scale="   98.175">  2  7  1 -1</clus>
<clus scale="   34.377">  1  5  2 -1</clus>
</clustering>
</event>
<event>
 9    1  0.1445593E-005  0.1635404E+03  0.7546771E-02  0.1190701E+00
         -3   -1    0    0    0  501 -0.00000000000E+00  0.00000000000E+00  0.51210578962E+03  0.51210578962E+03  0.00000000000E+00 0.  1.
         21   -1    0    0  501  502  0.00000000000E+00 -0.00000000000E+00 -0.12680943633E+03  0.12680943633E+03  0.00000000000E+00 0.  1.
         23    2    1    2    0    0 -0.15244572980E+02 -0.10462648820E+03  0.12985931526E+03  0.19341524367E+03  0.96782827426E+02 0.  0.
         23    2    1    2    0    0  0.13438704013E+03  0.24121589074E+02  0.25305192017E+03  0.30168880382E+03  0.91318850398E+02 0.  0.
        -11    1    4    4    0    0  0.38989541512E+02  0.48544201918E+02  0.12953248873E+03  0.14371982996E+03  0.00000000000E+00 0. -1.
         11    1    4    4    0    0  0.95397498623E+02 -0.24422612844E+02  0.12351943144E+03  0.15796897386E+03  0.00000000000E+00 0.  1.
        -11    1    3    3    0    0  0.12941968152E+02 -0.71496566422E+02  0.13111264208E+03  0.14989922769E+03  0.00000000000E+00 0.  1.
         11    1    3    3    0    0 -0.28186541132E+02 -0.33129921777E+02 -0.12533268213E+01  0.43516015972E+02  0.00000000000E+00 0. -1.
         -3    1    1    2    0  502 -0.11914246715E+03  0.80504899124E+02  0.23851178593E+01  0.14381117846E+03  0.00000000000E+00 0.  1.
<scales pt_clust_5="13000.00000" pt_clust_6="13000.00000" pt_clust_7="13000.00000" pt_clust_8="13000.00000" pt_clust_9="135.66998"></scales>
<clustering>
<clus scale="   91.319">  5  6 -1 -1</clus>
<clus scale="   96.783">  7  8 -1 -1</clus>
<clus scale="  143.339">  1  7  2 -1</clus>
<clus scale="  135.670">  2  9  1 -1</clus>
<clus scale="  135.670">  2  5  1 -1</clus>
</clustering>
</event>
<event>
 9    1  0.1445593E-005  0.1279216E+03  0.7546771E-02  0.1231043E+00
         21   -1    0    0  501  502  0.00000000000E+00  0.00000000000E+00  0.10423541058E+03  0.10423541058E+03  0.00000000000E+00 0.  1.
         -1   -1    0    0    0  501 -0.00000000000E+00 -0.00000000000E+00 -0.27315770479E+03  0.27315770479E+03  0.00000000000E+00 0.  1.
         23    2    1    2    0    0 -0.39009843972E+02  0.81245972080E+02 -0.17176996859E+03  0.21397139257E+03  0.90311454553E+02 0.  0.
         23    2    1    2    0    0  0.63446910168E+02 -0.70269237300E+02 -0.16071275649E+02  0.13062560138E+03  0.88552163804E+02 0.  0.
        -11    1    4    4    0    0  0.73073204800E+02 -0.50529415856E+02 -0.40619151075E+02  0.97687412498E+02  0.00000000000E+00 0.  1.
         11    1    4    4    0    0 -0.96262946313E+01 -0.19739821444E+02  0.24547875425E+02  0.32938188882E+02  0.00000000000E+00 0. -1.
        -13    1    3    3    0    0 -0.56338961649E+02  0.91457120588E+02 -0.14696564885E+03  0.18203676949E+03  0.00000000000E+00 0. -1.
         13    1    3    3    0    0  0.17329117677E+02 -0.10211148508E+02 -0.24804319741E+02  0.31934623078E+02  0.00000000000E+00 0.  1.
         -1    1    1    2    0  502 -0.24437066197E+02 -0.10976734781E+02  0.18918950022E+02  0.32796121428E+02  0.00000000000E+00 0.  1.
<scales pt_clust_5="13000.00000" pt_clust_6="13000.00000" pt_clust_7="13000.00000" pt_clust_8="13000.00000" pt_clust_9="26.78916"></scales>
<clustering>
<clus scale="   26.789">  1  9  2 -1</clus>
<clus scale="   88.552">  5  6 -1 -1</clus>
<clus scale="   90.311">  7  8 -1 -1</clus>
<clus scale="  126.686">  1  5  2 -1</clus>
<clus scale="   26.789">  1  5  2 -1</clus>
</clustering>
</event>
<event>
 9    1  0.1445593E-005  0.1101850E+03  0.7546771E-02  0.1260659E+00
          2   -1    0    0  502    0 -0.00000000000E+00  0.00000000000E+00  0.20817576305E+03  0.20817576305E+03  0.00000000000E+00 0. -1.
         21   -1    0    0  501  502  0.00000000000E+00 -0.00000000000E+00 -0.22209591216E+03  0.22209591216E+03  0.00000000000E+00 0. -1.
         23    2    1    2    0    0  0.44368538665E+02 -0.25477352489E+02  0.90158464162E+02  0.13901279984E+03  0.92619367021E+02 0.  0.
         23    2    1    2    0    0 -0.51394640508E+02  0.53817247999E+02  0.54558847887E+02  0.12995679891E+03  0.91511728461E+02 0.  0.
        -11    1    4    4    0    0 -0.71535304590E+02  0.34275026453E+02  0.62280011332E+02  0.10085076625E+03  0.00000000000E+00 0.  1.
         11    1    4    4    0    0  0.20140664082E+02  0.19542221546E+02 -0.77211634447E+01  0.29106032666E+02  0.00000000000E+00 0. -1.
        -13    1    3    3    0    0  0.39319837118E+02 -0.38468636932E+01 -0.63205218608E+01  0.40009960608E+02  0.00000000000E+00 0.  1.
         13    1    3    3    0    0  0.50487015468E+01 -0.21630488796E+02  0.96478986023E+02  0.99002839236E+02  0.00000000000E+00 0. -1.
          2    1    1    2  501    0  0.70261018434E+01 -0.28339895510E+02 -0.15863746115E+03  0.16130207645E+03  0.00000000000E+00 0. -1.
<scales pt_clust_5="13000.00000" pt_clust_6="13000.00000" pt_clust_7="13000.00000" pt_clust_8="13000.00000" pt_clust_9="29.19787"></scales>
<clustering>
<clus scale="   29.198">  2  9  1 -1</clus>
<clus scale="   91.512">  5  6 -1 -1</clus>
<clus scale="   92.619">  7  8 -1 -1</clus>
<clus scale="  109.256">  2  5  1 -1</clus>
<clus scale="   29.198">  2  5  1 -1</clus>
</clustering>
</event>
<event>
 9    1  0.1445593E-005  0.1087832E+03  0.7546771E-02  0.1266748E+00
          2   -1    0    0  502    0 -0.00000000000E+00  0.00000000000E+00  0.51621650452E+03  0.51621650452E+03  0.00000000000E+00 0. -1.
         21   -1    0    0  501  502  0.00000000000E+00 -0.00000000000E+00 -0.12493186510E+03  0.12493186510E+03  0.00000000000E+00 0. -1.
         23    2    1    2    0    0  0.27121021054E+02 -0.21752448870E+02  0.19783146377E+03  0.22250892174E+03  0.95729898075E+02 0.  0.
         23    2    1    2    0    0 -0.66706937022E+02 -0.70950063226E+02  0.26729087298E+03  0.29368823323E+03  0.72970135274E+02 0.  0.
        -11    1    3    3    0    0  0.30325571168E+02  0.15912054268E+02  0.17886069425E+02  0.38636061098E+02  0.00000000000E+00 0.  1.
         11    1    3    3    0    0 -0.32045501135E+01 -0.37664503138E+02  0.17994539434E+03  0.18387286065E+03  0.00000000000E+00 0. -1.
        -11    1    4    4    0    0 -0.47493049210E+02 -0.82373428295E+02  0.24158146522E+03  0.25962006038E+03  0.00000000000E+00 0.  1.
         11    1    4    4    0    0 -0.19213887812E+02  0.11423365069E+02  0.25709407762E+02  0.34068172857E+02  0.00000000000E+00 0. -1.
          2    1    1    2  501    0  0.39585915967E+02  0.92702512096E+02 -0.73837697330E+02  0.12495121464E+03  0.00000000000E+00 0. -1.
<scales pt_clust_5="13000.00000" pt_clust_6="13000.00000" pt_clust_7="13000.00000" pt_clust_8="13000.00000" pt_clust_9="100.80080"></scales>
<clustering>
<clus scale="   72.970">  7  8 -1 -1</clus>
<clus scale="   95.730">  5  6 -1 -1</clus>
<clus scale="  100.801">  2  9  1 -1</clus>
<clus scale="  100.801">  2  7  1 -1</clus>
<clus scale="  100.801">  2  5  1 -1</clus>
</clustering>
</event>
<event>
 9    1  0.1445593E-005  0.1021374E+03  0.7546771E-02  0.1280879E+00
          2   -1    0    0  502    0 -0.00000000000E+00  0.00000000000E+00  0.25878545538E+02  0.25878545538E+02  0.00000000000E+00 0. -1.
         21   -1    0    0  501  502  0.00000000000E+00 -0.00000000000E+00 -0.51312318864E+03  0.51312318864E+03  0.00000000000E+00 0.  1.
         23    2    1    2    0    0 -0.14529986506E+02 -0.21997326080E+02 -0.21043689816E+03  0.23278894838E+03  0.95979182738E+02 0.  0.
         23    2    1    2    0    0 -0.44580525591E+01  0.47636343279E+02 -0.22120061150E+03  0.24210305081E+03  0.85994658264E+02 0.  0.
        -11    1    4    4    0    0  0.18307099204E+00 -0.24532001903E+02 -0.76502092831E+02  0.80339422701E+02  0.00000000000E+00 0. -1.
         11    1    4    4    0    0 -0.46411235512E+01  0.72168345182E+02 -0.14469851867E+03  0.16176362811E+03  0.00000000000E+00 0.  1.
        -13    1    3    3    0    0 -0.38946710009E+02 -0.49350810965E+02 -0.13320118117E+03  0.14729189872E+03  0.00000000000E+00 0.  1.
         13    1    3    3    0    0  0.24416723504E+02  0.27353484884E+02 -0.77235716987E+02  0.85497049660E+02  0.00000000000E+00 0. -1.
          2    1    1    2  501    0  0.18988039065E+02 -0.25639017198E+02 -0.55607133442E+02  0.64109734987E+02  0.00000000000E+00 0. -1.
<scales pt_clust_5="13000.00000" pt_clust_6="13000.00000" pt_clust_7="13000.00000" pt_clust_8="13000.00000" pt_clust_9="31.90464"></scales>
<clustering>
<clus scale="   31.905">  2  9  1 -1</clus>
<clus scale="   85.995">  5  6 -1 -1</clus>
<clus scale="   92.818">  2  5  1 -1</clus>
<clus scale="   95.979">  7  8 -1 -1</clus>
<clus scale="   31.905">  2  5  1 -1</clus>
</clustering>
</event>
<event>
 9    1  0.1445593E-005  0.1568986E+03  0.7546771E-02  0.1192434E+00
         -2   -1    0    0    0  501 -0.00000000000E+00  0.00000000000E+00  0.11090860189E+03  0.11090860189E+03  0.00000000000E+00 0.  1.
         21   -1    0    0  501  502  0.00000000000E+00 -0.00000000000E+00 -0.51739363571E+03  0.51739363571E+03  0.00000000000E+00 0.  1.
         23    2    1    2    0    0 -0.33768806613E+02 -0.11969585409E+03  0.66193176514E+01  0.15416404993E+03  0.90858731758E+02 0.  0.
         23    2    1    2    0    0  0.78143322691E+01  0.14192858475E+03 -0.21399649249E+03  0.27211871198E+03  0.89717933837E+02 0.  0.
        -11    1    3    3    0    0  0.28072315703E+02 -0.15369162323E+02 -0.47477089698E+01  0.32354393827E+02  0.00000000000E+00 0.  1.
         11    1    3    3    0    0 -0.61841122316E+02 -0.10432669177E+03  0.11367026621E+02  0.12180965610E+03  0.00000000000E+00 0. -1.
        -13    1    4    4    0    0 -0.38153269353E+02  0.84749756249E+02 -0.13895572244E+03  0.16717322138E+03  0.00000000000E+00 0.  1.
         13    1    4    4    0    0  0.45967601622E+02  0.57178828500E+02 -0.75040770051E+02  0.10494549060E+03  0.00000000000E+00 0. -1.
         -2    1    1    2    0  502  0.25954474344E+02 -0.22232730659E+02 -0.19910785899E+03  0.20201947570E+03  0.00000000000E+00 0.  1.
<scales pt_clust_5="13000.00000" pt_clust_6="13000.00000" pt_clust_7="13000.00000" pt_clust_8="13000.00000" pt_clust_9="34.17498"></scales>
<clustering>
<clus scale="   34.175">  2  9  1 -1</clus>
<clus scale="   89.718">  7  8 -1 -1</clus>
<clus scale="   90.859">  5  6 -1 -1</clus>
<clus scale="  156.241">  2  7  1 -1</clus>
<clus scale="   34.175">  2  5  1 -1</clus>
</clustering>
</event>
<event>
 9    1  0.1445593E-005  0.1042338E+03  0.7546771E-02  0.1272020E+00
         21   -1    0    0  501  502  0.00000000000E+00  0.00000000000E+00  0.20367419476E+03  0.20367419476E+03  0.00000000000E+00 0. -1.
          1   -1    0    0  502    0 -0.00000000000E+00 -0.00000000000E+00 -0.12120414265E+03  0.12120414265E+03  0.00000000000E+00 0. -1.
         23    2    1    2    0    0  0.58081341270E+02  0.16986189501E+02 -0.14757615646E+02  0.11042517739E+03  0.91180917651E+02 0.  0.
         23    2    1    2    0    0 -0.29266407760E+02  0.56715813311E+02  0.57239980218E+02  0.12578918332E+03  0.92050514401E+02 0.  0.
        -11    1    3    3    0    0 -0.95756629723E+01 -0.24374818962E+02 -0.16776902872E+02  0.31101279568E+02  0.00000000000E+00 0.  1.
         11    1    3    3    0    0  0.67657004243E+02  0.41361008463E+02  0.20192872265E+01  0.79323897818E+02  0.00000000000E+00 0. -1.
        -11    1    4    4    0    0 -0.48757784605E+02 -0.33364277846E+01  0.24509396499E+02  0.54673245986E+02  0.00000000000E+00 0.  1.
         11    1    4    4    0    0  0.19491376844E+02  0.60052241096E+02  0.32730583719E+02  0.71115937331E+02  0.00000000000E+00 0. -1.
          1    1    1    2  501    0 -0.28814933510E+02 -0.73702002812E+02  0.39987687529E+02  0.88663976708E+02  0.00000000000E+00 0. -1.
<scales pt_clust_5="13000.00000" pt_clust_6="13000.00000" pt_clust_7="13000.00000" pt_clust_8="13000.00000" pt_clust_9="79.13460"></scales>
<clustering>
<clus scale="   79.135">  1  9  2 -1</clus>
<clus scale="   91.181">  5  6 -1 -1</clus>
<clus scale="   92.051">  7  8 -1 -1</clus>
<clus scale="  103.467">  2  5  1 -1</clus>
<clus scale="   79.135">  1  5  2 -1</clus>
</clustering>
</event>
<event>
 9    1  0.1445593E-005  0.1391004E+03  0.7546771E-02  0.1214593E+00
         -3   -1    0    0    0  501 -0.00000000000E+00  0.00000000000E+00  0.34430065431E+03  0.34430065431E+03  0.00000000000E+00 0.  1.
         21   -1    0    0  501  502  0.00000000000E+00 -0.00000000000E+00 -0.19781761547E+03  0.19781761547E+03  0.00000000000E+00 0. -1.
         23    2    1    2    0    0 -0.55572434763E+02 -0.83643943366E+02  0.23371472919E+03  0.27029511688E+03  0.91390758844E+02 0.  0.
         23    2    1    2    0    0  0.74307009075E+02  0.94609768151E+02  0.28891922252E+02  0.15368794648E+03  0.91174019853E+02 0.  0.
        -11    1    3    3    0    0  0.14118339412E+02 -0.37400348764E+02  0.13559832955E+03  0.14136838604E+03  0.00000000000E+00 0.  1.
         11    1    3    3    0    0 -0.69690774175E+02 -0.46243594601E+02  0.98116399647E+02  0.12892673085E+03  0.00000000000E+00 0. -1.
        -11    1    4    4    0    0  0.36279439078E+02 -0.11445577545E+02  0.11071589438E+02  0.39620437123E+02  0.00000000000E+00 0.  1.
         11    1    4    4    0    0  0.38027569997E+02  0.10605534570E+03  0.17820332814E+02  0.11406750936E+03  0.00000000000E+00 0. -1.
         -3    1    1    2    0  502 -0.18734574312E+02 -0.10965824785E+02 -0.11612361261E+03  0.11813520641E+03  0.00000000000E+00 0.  1.
<scales pt_clust_5="13000.00000" pt_clust_6="13000.00000" pt_clust_7="13000.00000" pt_clust_8="13000.00000" pt_clust_9="21.70792"></scales>
<clustering>
<clus scale="   21.708">  2  9  1 -1</clus>
<clus scale="   91.174">  7  8 -1 -1</clus>
<clus scale="   91.391">  5  6 -1 -1</clus>
<clus scale="  138.958">  2  7  1 -1</clus>
<clus scale="   21.708">  2  5  1 -1</clus>
</clustering>
</event>
<event>
 9    1  0.1445593E-005  0.2496381E+03  0.7546771E-02  0.1113871E+00
         -1   -1    0    0    0  501 -0.00000000000E+00  0.00000000000E+00  0.59924267876E+03  0.59924267876E+03  0.00000000000E+00 0.  1.
         21   -1    0    0  501  502  0.00000000000E+00 -0.00000000000E+00 -0.52223642890E+03  0.52223642890E+03  0.00000000000E+00 0. -1.
         23    2    1    2    0    0 -0.22058280799E+03  0.57499669845E+02  0.48090408536E+03  0.54082739959E+03  0.96242140583E+02 0.  0.
         23    2    1    2    0    0  0.25965903944E+03 -0.69660373613E+02 -0.44168702838E+03  0.52494840764E+03  0.90598097307E+02 0.  0.
        -11    1    3    3    0    0 -0.20185998285E+03  0.17774465632E+02  0.41163341674E+03  0.45880873366E+03  0.00000000000E+00 0.  1.
         11    1    3    3    0    0 -0.18722825141E+02  0.39725204212E+02  0.69270668618E+02  0.82018665935E+02  0.00000000000E+00 0. -1.
        -13    1    4    4    0    0  0.84768382531E+02 -0.67775811272E+02 -0.15824196042E+03  0.19188475006E+03  0.00000000000E+00 0.  1.
         13    1    4    4    0    0  0.17489065691E+03 -0.18845623415E+01 -0.28344506796E+03  0.33306365758E+03  0.00000000000E+00 0. -1.
         -1    1    1    2    0  502 -0.39076231449E+02  0.12160703769E+02  0.37789192881E+02  0.55703300432E+02  0.00000000000E+00 0.  1.
<scales pt_clust_5="13000.00000" pt_clust_6="13000.00000" pt_clust_7="13000.00000" pt_clust_8="13000.00000" pt_clust_9="40.92476"></scales>
<clustering>
<clus scale="   40.925">  2  9  1 -1</clus>
<clus scale="   90.598">  7  8 -1 -1</clus>
<clus scale="   96.242">  5  6 -1 -1</clus>
<clus scale="  247.517">  2  7  1 -1</clus>
<clus scale="   40.925">  2  5  1 -1</clus>
</clustering>
</event>
<event>
 9    1  0.1445593E-005  0.9513012E+02  0.7546771E-02  0.1304503E+00
         21   -1    0    0  501  502  0.00000000000E+00  0.00000000000E+00  0.56331089974E+02  0.56331089974E+02  0.00000000000E+00 0. -1.
         -3   -1    0    0    0  501 -0.00000000000E+00 -0.00000000000E+00 -0.32526022459E+03  0.32526022459E+03  0.00000000000E+00 0.  1.
         23    2    1    2    0    0 -0.72990629669E+01 -0.31595410806E+02 -0.20057839661E+03  0.21430395206E+03  0.68139154511E+02 0.  0.
         23    2    1    2    0    0 -0.12500733471E+02  0.20246890344E+02 -0.94126776064E+02  0.13286026572E+03  0.90696170414E+02 0.  0.
        -11    1    4    4    0    0 -0.40098432237E+02  0.48939509524E+01 -0.80732451737E+01  0.41194809278E+02  0.00000000000E+00 0. -1.
         11    1    4    4    0    0  0.27597698767E+02  0.15352939391E+02 -0.86053530891E+02  0.91665456437E+02  0.00000000000E+00 0.  1.
        -13    1    3    3    0    0  0.26069785002E+01  0.20802531779E+02 -0.40965476409E+02  0.46018604094E+02  0.00000000000E+00 0.  1.
         13    1    3    3    0    0 -0.99060414671E+01 -0.52397942586E+02 -0.15961292020E+03  0.16828534796E+03  0.00000000000E+00 0. -1.
         -3    1    1    2    0  502  0.19799796438E+02  0.11348520463E+02  0.25776038055E+02  0.34427096791E+02  0.00000000000E+00 0.  1.
<scales pt_clust_5="13000.00000" pt_clust_6="13000.00000" pt_clust_7="13000.00000" pt_clust_8="13000.00000" pt_clust_9="22.82150"></scales>
<clustering>
<clus scale="   22.821">  1  9  2 -1</clus>
<clus scale="   68.139">  7  8 -1 -1</clus>
<clus scale="   73.938">  2  7  1 -1</clus>
<clus scale="   90.696">  5  6 -1 -1</clus>
<clus scale="   22.821">  1  5  2 -1</clus>
</clustering>
</event>
<event>
 9    1  0.1445593E-005  0.9875455E+02  0.7546771E-02  0.1283581E+00
         -2   -1    0    0    0  501 -0.00000000000E+00  0.00000000000E+00  0.47705765267E+03  0.47705765267E+03  0.00000000000E+00 0.  1.
         21   -1    0    0  501  502  0.00000000000E+00 -0.00000000000E+00 -0.32998116385E+02  0.32998116385E+02  0.00000000000E+00 0. -1.
         23    2    1    2    0    0 -0.38250161107E+02 -0.98779097358E+01  0.30229199485E+03  0.31841572954E+03  0.91910166703E+02 0.  0.
         23    2    1    2    0    0  0.29503241416E+02 -0.13672019701E+02  0.80775980217E+02  0.12567733550E+03  0.90623773385E+02 0.  0.
        -13    1    4    4    0    0  0.29306066955E+00  0.28307429097E+02 -0.19971867687E+01  0.28379309041E+02  0.00000000000E+00 0. -1.
         13    1    4    4    0    0  0.29210180746E+02 -0.41979448798E+02  0.82773166986E+02  0.97298026463E+02  0.00000000000E+00 0.  1.
        -13    1    3    3    0    0  0.14006350290E+02  0.29112489452E+02  0.13633785095E+03  0.14011325594E+03  0.00000000000E+00 0.  1.
         13    1    3    3    0    0 -0.52256511397E+02 -0.38990399187E+02  0.16595414390E+03  0.17830247360E+03  0.00000000000E+00 0. -1.
         -2    1    1    2    0  502  0.87469196914E+01  0.23549929437E+02  0.60991561222E+02  0.65962704014E+02  0.00000000000E+00 0.  1.
<scales pt_clust_5="13000.00000" pt_clust_6="13000.00000" pt_clust_7="13000.00000" pt_clust_8="13000.00000" pt_clust_9="25.12187"></scales>
<clustering>
<clus scale="   25.122">  2  9  1 -1</clus>
<clus scale="   90.624">  5  6 -1 -1</clus>
<clus scale="   91.910">  7  8 -1 -1</clus>
<clus scale="   97.558">  2  5  1 -1</clus>
<clus scale="   25.122">  2  5  1 -1</clus>
</clustering>
</event>
<event>
 9    1  0.1445593E-005  0.1242065E+03  0.7546771E-02  0.1237295E+00
          1   -1    0    0  502    0 -0.00000000000E+00  0.00000000000E+00  0.49338229946E+03  0.49338229946E+03  0.00000000000E+00 0. -1.
         21   -1    0    0  501  502  0.00000000000E+00 -0.00000000000E+00 -0.63821124854E+02  0.63821124854E+02  0.00000000000E+00 0.  1.
         23    2    1    2    0    0 -0.42416951038E+02  0.90721133575E+02  0.21660560566E+03  0.25575719594E+03  0.92001266614E+02 0.  0.
         23    2    1    2    0    0  0.28277248729E+02 -0.40381874708E+02  0.22443014419E+02  0.10388862767E+03  0.88650208471E+02 0.  0.
        -13    1    3    3    0    0 -0.28414961535E+02  0.10882385943E+03  0.18859167557E+03  0.21958338397E+03  0.00000000000E+00 0.  1.
         13    1    3    3    0    0 -0.14001989503E+02 -0.18102725855E+02  0.28013930087E+02  0.36173811969E+02  0.00000000000E+00 0. -1.
        -13    1    4    4    0    0  0.17635867771E+02  0.15797882704E+02 -0.21338142633E+02  0.31873394250E+02  0.00000000000E+00 0.  1.
         13    1    4    4    0    0  0.10641380958E+02 -0.56179757412E+02  0.43781157051E+02  0.72015233419E+02  0.00000000000E+00 0. -1.
          1    1    1    2  501    0  0.14139702309E+02 -0.50339258867E+02  0.19051255453E+03  0.19755760071E+03  0.00000000000E+00 0. -1.
<scales pt_clust_5="13000.00000" pt_clust_6="13000.00000" pt_clust_7="13000.00000" pt_clust_8="13000.00000" pt_clust_9="52.28743"></scales>
<clustering>
<clus scale="   52.287">  2  9  1 -1</clus>
<clus scale="   88.650">  7  8 -1 -1</clus>
<clus scale="   92.001">  5  6 -1 -1</clus>
<clus scale="  121.745">  2  7  1 -1</clus>
<clus scale="   52.287">  2  5  1 -1</clus>
</clustering>
</event>
<event>
 9    1  0.1445593E-005  0.1283462E+03  0.7546771E-02  0.1248366E+00
         -1   -1    0    0    0  501 -0.00000000000E+00  0.00000000000E+00  0.64747450418E+03  0.64747450418E+03  0.00000000000E+00 0.  1.
         21   -1    0    0  501  502  0.00000000000E+00 -0.00000000000E+00 -0.76113965076E+02  0.76113965076E+02  0.00000000000E+00 0.  1.
         23    2    1    2    0    0  0.13030172578E+02  0.27737545476E+01  0.40119765022E+03  0.41078147903E+03  0.87203152799E+02 0.  0.
         23    2    1    2    0    0  0.80044041654E+02 -0.71691454207E+01  0.18231848835E+03  0.21883950960E+03  0.90511074020E+02 0.  0.
        -11    1    4    4    0    0  0.64983678586E+01  0.29656997824E+02  0.18556250890E+02  0.35582309535E+02  0.00000000000E+00 0. -1.
         11    1    4    4    0    0  0.73545673795E+02 -0.36826143244E+02  0.16376223746E+03  0.18325720007E+03  0.00000000000E+00 0.  1.
        -11    1    3    3    0    0 -0.37030156216E+02  0.45594447067E+01  0.19932582825E+03  0.20278759038E+03  0.00000000000E+00 0.  1.
         11    1    3    3    0    0  0.50060328794E+02 -0.17856901591E+01  0.20187182198E+03  0.20799388865E+03  0.00000000000E+00 0. -1.
         -1    1    1    2    0  502 -0.93074214231E+02  0.43953908731E+01 -0.12155599468E+02  0.93967480620E+02  0.00000000000E+00 0.  1.
<scales pt_clust_5="13000.00000" pt_clust_6="13000.00000" pt_clust_7="13000.00000" pt_clust_8="13000.00000" pt_clust_9="90.99715"></scales>
<clustering>
<clus scale="   87.203">  7  8 -1 -1</clus>
<clus scale="   88.215">  1  7  2 -1</clus>
<clus scale="   90.511">  5  6 -1 -1</clus>
<clus scale="   90.997">  2  9  1 -1</clus>
<clus scale="   90.997">  2  5  1 -1</clus>
</clustering>
</event>
<event>
 9    1  0.1445593E-005  0.1232360E+03  0.7546771E-02  0.1239328E+00
          1   -1    0    0  502    0 -0.00000000000E+00  0.00000000000E+00  0.26641313366E+03  0.26641313366E+03  0.00000000000E+00 0. -1.
         21   -1    0    0  501  502  0.00000000000E+00 -0.00000000000E+00 -0.13365653392E+03  0.13365653392E+03  0.00000000000E+00 0. -1.
         23    2    1    2    0    0  0.37993948115E+02 -0.56467020958E+02  0.15753573018E+03  0.19627834966E+03  0.95266047013E+02 0.  0.
         23    2    1    2    0    0 -0.64691226334E+02  0.92048432834E+02  0.13616822362E+02  0.14502882370E+03  0.90499022650E+02 0.  0.
        -11    1    4    4    0    0 -0.28771260260E+02  0.10290638312E+03  0.10834764645E+02  0.10740065749E+03  0.00000000000E+00 0. -1.
         11    1    4    4    0    0 -0.35919966074E+02 -0.10857950288E+02  0.27820577171E+01  0.37628166210E+02  0.00000000000E+00 0.  1.
        -13    1    3    3    0    0  0.15654409727E+02 -0.81717811974E+02  0.10734353609E+03  0.13581419690E+03  0.00000000000E+00 0. -1.
         13    1    3    3    0    0  0.22339538388E+02  0.25250791017E+02  0.50192194088E+02  0.60464152766E+02  0.00000000000E+00 0.  1.
          1    1    1    2  501    0  0.26697278219E+02 -0.35581411876E+02 -0.38395952801E+02  0.58762494219E+02  0.00000000000E+00 0. -1.
<scales pt_clust_5="13000.00000" pt_clust_6="13000.00000" pt_clust_7="13000.00000" pt_clust_8="13000.00000" pt_clust_9="44.48350"></scales>
<clustering>
<clus scale="   44.483">  2  9  1 -1</clus>
<clus scale="   90.499">  5  6 -1 -1</clus>
<clus scale="   95.266">  7  8 -1 -1</clus>
<clus scale="  119.589">  2  5  1 -1</clus>
<clus scale="   44.483">  2  5  1 -1</clus>
</clustering>
</event>
<event>
 9    1  0.1445593E-005  0.1005877E+03  0.7546771E-02  0.1282263E+00
          3   -1    0    0  502    0 -0.00000000000E+00  0.00000000000E+00  0.30088700663E+02  0.30088700663E+02  0.00000000000E+00 0. -1.
         21   -1    0    0  501  502  0.00000000000E+00 -0.00000000000E+00 -0.40722165573E+03  0.40722165573E+03  0.00000000000E+00 0. -1.
         23    2    1    2    0    0  0.75947490807E+01  0.20528853247E+02 -0.14900218179E+03  0.17963735035E+03  0.97922486857E+02 0.  0.
         23    2    1    2    0    0 -0.27990450013E+02 -0.99456386560E+01 -0.19129255919E+03  0.21425592341E+03  0.91817081712E+02 0.  0.
        -11    1    3    3    0    0 -0.25760322021E+02 -0.29190035831E+02 -0.43876985790E+02  0.58658693000E+02  0.00000000000E+00 0.  1.
         11    1    3    3    0    0  0.33355071102E+02  0.49718889078E+02 -0.10512519600E+03  0.12097865735E+03  0.00000000000E+00 0. -1.
        -13    1    4    4    0    0  0.19520239042E+02 -0.28638376357E+02 -0.12971550901E+03  0.13426581698E+03  0.00000000000E+00 0.  1.
         13    1    4    4    0    0 -0.47510689055E+02  0.18692737701E+02 -0.61577050188E+02  0.79990106433E+02  0.00000000000E+00 0. -1.
          3    1    1    2  501    0  0.20395700932E+02 -0.10583214591E+02 -0.36838214084E+02  0.43417082634E+02  0.00000000000E+00 0. -1.
<scales pt_clust_5="13000.00000" pt_clust_6="13000.00000" pt_clust_7="13000.00000" pt_clust_8="13000.00000" pt_clust_9="22.97802"></scales>
<clustering>
<clus scale="   22.978">  2  9  1 -1</clus>
<clus scale="   91.817">  7  8 -1 -1</clus>
<clus scale="   94.654">  2  7  1 -1</clus>
<clus scale="   97.922">  5  6 -1 -1</clus>
<clus scale="   22.978">  2  5  1 -1</clus>
</clustering>
</event>
<event>
 9    1  0.1445593E-005  0.9345188E+02  0.7546771E-02  0.1295577E+00
         21   -1    0    0  501  502  0.00000000000E+00  0.00000000000E+00  0.12466041133E+03  0.12466041133E+03  0.00000000000E+00 0. -1.
          1   -1    0    0  502    0 -0.00000000000E+00 -0.00000000000E+00 -0.22561756421E+03  0.22561756421E+03  0.00000000000E+00 0. -1.
         23    2    1    2    0    0 -0.70819885607E+01 -0.20191155587E+02 -0.10803863016E+03  0.14394108669E+03  0.92676067584E+02 0.  0.
         23    2    1    2    0    0 -0.15838735311E+01  0.15104914708E+01 -0.77263044953E+02  0.11951487087E+03  0.91156107875E+02 0.  0.
        -11    1    3    3    0    0  0.26161532678E+02  0.22307380552E+02 -0.17584596118E+02  0.38616875065E+02  0.00000000000E+00 0.  1.
         11    1    3    3    0    0 -0.33243521239E+02 -0.42498536140E+02 -0.90454034046E+02  0.10532421162E+03  0.00000000000E+00 0. -1.
        -13    1    4    4    0    0  0.35133950316E+02 -0.26860997106E+02 -0.31134993862E+02  0.54086000713E+02  0.00000000000E+00 0.  1.
         13    1    4    4    0    0 -0.36717823847E+02  0.28371488577E+02 -0.46128051091E+02  0.65428870153E+02  0.00000000000E+00 0. -1.
          1    1    1    2  501    0  0.86658620918E+01  0.18680664116E+02  0.84344522230E+02  0.86822017990E+02  0.00000000000E+00 0. -1.
<scales pt_clust_5="13000.00000" pt_clust_6="13000.00000" pt_clust_7="13000.00000" pt_clust_8="13000.00000" pt_clust_9="20.59282"></scales>
<clustering>
<clus scale="   20.593">  1  9  2 -1</clus>
<clus scale="   91.156">  7  8 -1 -1</clus>
<clus scale="   91.945">  1  7  2 -1</clus>
<clus scale="   92.676">  5  6 -1 -1</clus>
<clus scale="   20.593">  1  5  2 -1</clus>
</clustering>
</event>
<event>
 9    1  0.1445593E-005  0.1075911E+03  0.7546771E-02  0.1267355E+00
         21   -1    0    0  501  502  0.00000000000E+00  0.00000000000E+00  0.96059731002E+03  0.96059731002E+03  0.00000000000E+00 0. -1.
          1   -1    0    0  502    0 -0.00000000000E+00 -0.00000000000E+00 -0.73731698447E+02  0.73731698447E+02  0.00000000000E+00 0. -1.
         23    2    1    2    0    0 -0.15170502584E+02  0.53351189748E+02 -0.13890792113E+02  0.10869208359E+03  0.92436580061E+02 0.  0.
         23    2    1    2    0    0  0.30226143599E+02  0.34665898482E+02  0.31132219268E+03  0.32947724052E+03  0.97562288267E+02 0.  0.
        -11    1    4    4    0    0  0.42399336973E+02  0.63049331139E+02  0.19984800552E+03  0.21380399258E+03  0.00000000000E+00 0. -1.
         11    1    4    4    0    0 -0.12173193374E+02 -0.28383432657E+02  0.11147418716E+03  0.11567324794E+03  0.00000000000E+00 0.  1.
        -13    1    3    3    0    0 -0.33667309296E+02  0.70690759290E+02 -0.23232214093E+02  0.81672559259E+02  0.00000000000E+00 0. -1.
         13    1    3    3    0    0  0.18496806712E+02 -0.17339569542E+02  0.93414219802E+01  0.27019524331E+02  0.00000000000E+00 0.  1.
          1    1    1    2  501    0 -0.15055641015E+02 -0.88017088231E+02  0.58943421100E+03  0.59615968435E+03  0.00000000000E+00 0. -1.
<scales pt_clust_5="13000.00000" pt_clust_6="13000.00000" pt_clust_7="13000.00000" pt_clust_8="13000.00000" pt_clust_9="89.29547"></scales>
<clustering>
<clus scale="   89.295">  1  9  2 -1</clus>
<clus scale="   92.437">  7  8 -1 -1</clus>
<clus scale="   97.562">  5  6 -1 -1</clus>
<clus scale="  102.966">  2  7  1 -1</clus>
<clus scale="   89.295">  1  5  2 -1</clus>
</clustering>
</event>
<event>
 9    1  0.1445593E-005  0.1346794E+03  0.7546771E-02  0.1221761E+00
          2   -1    0    0  502    0 -0.00000000000E+00  0.00000000000E+00  0.63239234566E+03  0.63239234566E+03  0.00000000000E+00 0. -1.
         21   -1    0    0  501  502  0.00000000000E+00 -0.00000000000E+00 -0.33950090064E+02  0.33950090064E+02  0.00000000000E+00 0. -1.
         23    2    1    2    0    0 -0.47217682928E+02 -0.88104432093E+02  0.30776232689E+03  0.33607456354E+03  0.90755505980E+02 0.  0.
         23    2    1    2    0    0  0.22414033131E+02  0.88643508640E+02  0.24155236480E+03  0.27523125545E+03  0.95103304526E+02 0.  0.
        -11    1    3    3    0    0  0.19941463070E+02 -0.56856233166E+02  0.12135596549E+03  0.13549008657E+03  0.00000000000E+00 0.  1.
         11    1    3    3    0    0 -0.67159145998E+02 -0.31248198927E+02  0.18640636141E+03  0.20058447697E+03  0.00000000000E+00 0. -1.
        -13    1    4    4    0    0  0.86444550284E+01  0.10621026140E+03  0.17349364010E+03  0.20360596598E+03  0.00000000000E+00 0. -1.
         13    1    4    4    0    0  0.13769578103E+02 -0.17566752757E+02  0.68058724704E+02  0.71625289472E+02  0.00000000000E+00 0.  1.
          2    1    1    2  501    0  0.24803649796E+02 -0.53907654649E+00  0.49127563905E+02  0.55036616738E+02  0.00000000000E+00 0. -1.
<scales pt_clust_5="13000.00000" pt_clust_6="13000.00000" pt_clust_7="13000.00000" pt_clust_8="13000.00000" pt_clust_9="24.80951"></scales>
<clustering>
<clus scale="   24.810">  2  9  1 -1</clus>
<clus scale="   90.756">  5  6 -1 -1</clus>
<clus scale="   95.103">  7  8 -1 -1</clus>
<clus scale="  131.645">  1  5  2 -1</clus>
<clus scale="   24.810">  2  5  1 -1</clus>
</clustering>
</event>
<event>
 9    1  0.1445593E-005  0.1269080E+03  0.7546771E-02  0.1233194E+00
          2   -1    0    0  502    0 -0.00000000000E+00  0.00000000000E+00  0.62538128833E+03  0.62538128833E+03  0.00000000000E+00 0. -1.
         21   -1    0    0  501  502  0.00000000000E+00 -0.00000000000E+00 -0.60205441306E+02  0.60205441306E+02  0.00000000000E+00 0. -1.
         23    2    1    2    0    0 -0.21901384697E+02  0.10696619164E+03  0.44538060100E+03  0.46782803942E+03  0.92616186005E+02 0.  0.
         23    2    1    2    0    0 -0.98051214597E+01 -0.49467839676E+02  0.11213751192E+03  0.15165268517E+03  0.88772224088E+02 0.  0.
        -11    1    4    4    0    0  0.31489348734E+02 -0.42012838945E+02  0.32815635957E+02  0.61915455931E+02  0.00000000000E+00 0.  1.
         11    1    4    4    0    0 -0.41294470194E+02 -0.74550007316E+01  0.79321875964E+02  0.89737229236E+02  0.00000000000E+00 0. -1.
        -13    1    3    3    0    0 -0.14047046002E+02  0.16446750543E+02  0.11422104966E+02  0.24459754427E+02  0.00000000000E+00 0.  1.
         13    1    3    3    0    0 -0.78543386954E+01  0.90519441101E+02  0.43395849604E+03  0.44336828499E+03  0.00000000000E+00 0. -1.
          2    1    1    2  501    0  0.31706506157E+02 -0.57498351967E+02  0.76577340961E+01  0.66106005046E+02  0.00000000000E+00 0. -1.
<scales pt_clust_5="13000.00000" pt_clust_6="13000.00000" pt_clust_7="13000.00000" pt_clust_8="13000.00000" pt_clust_9="65.66097"></scales>
<clustering>
<clus scale="   65.661">  2  9  1 -1</clus>
<clus scale="   88.772">  5  6 -1 -1</clus>
<clus scale="   92.616">  7  8 -1 -1</clus>
<clus scale="  124.131">  2  5  1 -1</clus>
<clus scale="   65.661">  2  5  1 -1</clus>
</clustering>
</event>
<event>
 9    1  0.1445593E-005  0.1025145E+03  0.7546771E-02  0.1275757E+00
         -1   -1    0    0    0  501 -0.00000000000E+00  0.00000000000E+00  0.24962603969E+03  0.24962603969E+03  0.00000000000E+00 0.  1.
         21   -1    0    0  501  502  0.00000000000E+00 -0.00000000000E+00 -0.17716160217E+03  0.17716160217E+03  0.00000000000E+00 0.  1.
         23    2    1    2    0    0  0.29792788148E+02  0.31363798994E+02  0.18178439971E+03  0.20833503888E+03  0.92122865412E+02 0.  0.
         23    2    1    2    0    0 -0.54616947821E+02 -0.17604707302E+02 -0.18833194817E+01  0.10733022132E+03  0.90682373196E+02 0.  0.
        -11    1    4    4    0    0 -0.38516170474E+02  0.27460776533E+02  0.23870811779E+02  0.52984953438E+02  0.00000000000E+00 0.  1.
         11    1    4    4    0    0 -0.16100777347E+02 -0.45065483835E+02 -0.25754131261E+02  0.54345267885E+02  0.00000000000E+00 0. -1.
        -13    1    3    3    0    0 -0.41923857494E+00  0.30094752775E+02  0.17470514022E+03  0.17727875204E+03  0.00000000000E+00 0.  1.
         13    1    3    3    0    0  0.30212026723E+02  0.12690462192E+01  0.70792594908E+01  0.31056286834E+02  0.00000000000E+00 0. -1.
         -1    1    1    2    0  502  0.24824159674E+02 -0.13759091691E+02 -0.10743664272E+03  0.11112238166E+03  0.00000000000E+00 0.  1.
<scales pt_clust_5="13000.00000" pt_clust_6="13000.00000" pt_clust_7="13000.00000" pt_clust_8="13000.00000" pt_clust_9="28.38224"></scales>
<clustering>
<clus scale="   28.382">  2  9  1 -1</clus>
<clus scale="   90.682">  5  6 -1 -1</clus>
<clus scale="   92.123">  7  8 -1 -1</clus>
<clus scale="  101.222">  2  5  1 -1</clus>
<clus scale="   28.382">  2  5  1 -1</clus>
</clustering>
</event>
<event>
 9    1  0.1445593E-005  0.9900513E+02  0.7546771E-02  0.1286000E+00
         21   -1    0    0  501  502  0.00000000000E+00  0.00000000000E+00  0.80413196750E+02  0.80413196750E+02  0.00000000000E+00 0.  1.
          2   -1    0    0  502    0 -0.00000000000E+00 -0.00000000000E+00 -0.19659958060E+03  0.19659958060E+03  0.00000000000E+00 0. -1.
         23    2    1    2    0    0 -0.14051066783E+02 -0.10378496077E+02 -0.10555873294E+03  0.13920032676E+03  0.89044591136E+02 0.  0.
         23    2    1    2    0    0  0.29676342494E+02  0.36055944746E+02 -0.14341221194E+02  0.10752596490E+03  0.95788548620E+02 0.  0.
        -11    1    4    4    0    0  0.54268113685E+02 -0.55757886663E+01  0.63701667901E+01  0.54924462739E+02  0.00000000000E+00 0.  1.
         11    1    4    4    0    0 -0.24591771191E+02  0.41631733412E+02 -0.20711387984E+02  0.52601502160E+02  0.00000000000E+00 0. -1.
        -11    1    3    3    0    0 -0.23521141450E+02 -0.32181037203E+02 -0.10817603547E+03  0.11528624333E+03  0.00000000000E+00 0. -1.
         11    1    3    3    0    0  0.94700746676E+01  0.21802541126E+02  0.26173025286E+01  0.23914083430E+02  0.00000000000E+00 0.  1.
          2    1    1    2  501    0 -0.15625275711E+02 -0.25677448669E+02  0.37135702887E+01  0.30286485691E+02  0.00000000000E+00 0. -1.
<scales pt_clust_5="13000.00000" pt_clust_6="13000.00000" pt_clust_7="13000.00000" pt_clust_8="13000.00000" pt_clust_9="30.05795"></scales>
<clustering>
<clus scale="   30.058">  1  9  2 -1</clus>
<clus scale="   89.045">  7  8 -1 -1</clus>
<clus scale="   92.496">  2  7  1 -1</clus>
<clus scale="   95.789">  5  6 -1 -1</clus>
<clus scale="   30.058">  1  5  2 -1</clus>
</clustering>
</event>
<event>
 9    1  0.1445593E-005  0.1000262E+03  0.7546771E-02  0.1280699E+00
          1   -1    0    0  502    0 -0.00000000000E+00  0.00000000000E+00  0.91452639235E+03  0.91452639235E+03  0.00000000000E+00 0. -1.
         21   -1    0    0  501  502  0.00000000000E+00 -0.00000000000E+00 -0.16077130596E+02  0.16077130596E+02  0.00000000000E+00 0. -1.
         23    2    1    2    0    0 -0.39112611199E+02  0.15415950569E+02  0.54632164887E+03  0.55562376567E+03  0.92103078491E+02 0.  0.
         23    2    1    2    0    0  0.19963057902E+02 -0.32155473939E+02  0.23090111124E+03  0.25111377431E+03  0.91160881374E+02 0.  0.
        -11    1    4    4    0    0 -0.35979543764E+02 -0.12391574985E+02  0.70905998738E+02  0.80471978708E+02  0.00000000000E+00 0. -1.
         11    1    4    4    0    0  0.55942601666E+02 -0.19763898954E+02  0.15999511250E+03  0.17064179560E+03  0.00000000000E+00 0.  1.
        -11    1    3    3    0    0  0.25684508523E+02  0.24262934940E+02  0.16576662324E+03  0.16949028695E+03  0.00000000000E+00 0.  1.
         11    1    3    3    0    0 -0.64797119723E+02 -0.88469843718E+01  0.38055502563E+03  0.38613347873E+03  0.00000000000E+00 0. -1.
          1    1    1    2  501    0  0.19149553298E+02  0.16739523370E+02  0.12122650165E+03  0.12386598297E+03  0.00000000000E+00 0. -1.
<scales pt_clust_5="13000.00000" pt_clust_6="13000.00000" pt_clust_7="13000.00000" pt_clust_8="13000.00000" pt_clust_9="25.43458"></scales>
<clustering>
<clus scale="   25.435">  2  9  1 -1</clus>
<clus scale="   91.161">  5  6 -1 -1</clus>
<clus scale="   92.103">  7  8 -1 -1</clus>
<clus scale="   99.159">  2  5  1 -1</clus>
<clus scale="   25.435">  2  5  1 -1</clus>
</clustering>
</event>
<event>
 9    1  0.1445593E-005  0.1083150E+03  0.7546771E-02  0.1264228E+00
         21   -1    0    0  501  502  0.00000000000E+00  0.00000000000E+00  0.42966977062E+02  0.42966977062E+02  0.00000000000E+00 0. -1.
          1   -1    0    0  502    0 -0.00000000000E+00 -0.00000000000E+00 -0.66565318294E+03  0.66565318294E+03  0.00000000000E+00 0. -1.
         23    2    1    2    0    0  0.37485305754E+02  0.52366422035E+02 -0.46286998955E+03  0.47606877490E+03  0.90804520296E+02 0.  0.
         23    2    1    2    0    0 -0.50061412879E+01 -0.52196904692E+02 -0.16943222200E+03  0.19867820359E+03  0.89533080024E+02 0.  0.
        -11    1    4    4    0    0 -0.26842390871E+02 -0.52646716128E+02 -0.16645704937E+03  0.17663561349E+03  0.00000000000E+00 0. -1.
         11    1    4    4    0    0  0.21836249583E+02  0.44981143674E+00 -0.29751726315E+01  0.22042590101E+02  0.00000000000E+00 0.  1.
        -11    1    3    3    0    0 -0.45751043392E+01  0.66512877790E+02 -0.29412374022E+03  0.30158526000E+03  0.00000000000E+00 0.  1.
         11    1    3    3    0    0  0.42060410094E+02 -0.14146455754E+02 -0.16874624933E+03  0.17448351490E+03  0.00000000000E+00 0. -1.
          1    1    1    2  501    0 -0.32479164466E+02 -0.16951734370E+00  0.96160056752E+01  0.33873181512E+02  0.00000000000E+00 0. -1.
<scales pt_clust_5="13000.00000" pt_clust_6="13000.00000" pt_clust_7="13000.00000" pt_clust_8="13000.00000" pt_clust_9="32.47961"></scales>
<clustering>
<clus scale="   32.480">  1  9  2 -1</clus>
<clus scale="   89.533">  5  6 -1 -1</clus>
<clus scale="   90.805">  7  8 -1 -1</clus>
<clus scale="  107.251">  1  5  2 -1</clus>
<clus scale="   32.480">  1  5  2 -1</clus>
</clustering>
</event>
<event>
 9    1  0.1445593E-005  0.1122142E+03  0.7546771E-02  0.1257255E+00
         21   -1    0    0  501  502  0.00000000000E+00  0.00000000000E+00  0.15025637618E+03  0.15025637618E+03  0.00000000000E+00 0. -1.
          2   -1    0    0  502    0 -0.00000000000E+00 -0.00000000000E+00 -0.32326789180E+03  0.32326789180E+03  0.00000000000E+00 0. -1.
         23    2    1    2    0    0  0.74334862422E+02 -0.40041668876E+02 -0.21123337296E+03  0.24514720648E+03  0.91370717260E+02 0.  0.
         23    2    1    2    0    0  0.16509790685E+01  0.39595981064E+02 -0.49082436900E+02  0.11263559730E+03  0.93311975220E+02 0.  0.
        -11    1    3    3    0    0  0.69097006410E+02  0.11442720227E+02 -0.14557012726E+03  0.16154254577E+03  0.00000000000E+00 0. -1.
         11    1    3    3    0    0  0.52378560122E+01 -0.51484389102E+02 -0.65663245697E+02  0.83604660709E+02  0.00000000000E+00 0.  1.
        -13    1    4    4    0    0 -0.31150832879E+02  0.71293369089E+01  0.13654560652E+02  0.34751242574E+02  0.00000000000E+00 0.  1.
         13    1    4    4    0    0  0.32801811947E+02  0.32466644155E+02 -0.62736997552E+02  0.77884354729E+02  0.00000000000E+00 0. -1.
          2    1    1    2  501    0 -0.75985841491E+02  0.44568781224E+00  0.87304294237E+02  0.11574146421E+03  0.00000000000E+00 0. -1.
<scales pt_clust_5="13000.00000" pt_clust_6="13000.00000" pt_clust_7="13000.00000" pt_clust_8="13000.00000" pt_clust_9="75.98715"></scales>
<clustering>
<clus scale="   75.987">  1  9  2 -1</clus>
<clus scale="   91.371">  5  6 -1 -1</clus>
<clus scale="   93.312">  7  8 -1 -1</clus>
<clus scale="  110.605">  2  5  1 -1</clus>
<clus scale="   75.987">  1  5  2 -1</clus>
</clustering>
</event>
<event>
 9    1  0.1445593E-005  0.1039657E+03  0.7546771E-02  0.1272594E+00
         21   -1    0    0  501  502  0.00000000000E+00  0.00000000000E+00  0.10516164340E+03  0.10516164340E+03  0.00000000000E+00 0.  1.
          1   -1    0    0  502    0 -0.00000000000E+00 -0.00000000000E+00 -0.18306858746E+03  0.18306858746E+03  0.00000000000E+00 0. -1.
         23    2    1    2    0    0  0.27856772569E+02 -0.31017888503E+02 -0.10333480143E+03  0.14411712369E+03  0.91397784266E+02 0.  0.
         23    2    1    2    0    0 -0.43850198385E+02  0.48679964513E+02  0.60318671182E+01  0.11338945119E+03  0.92348283026E+02 0.  0.
        -11    1    4    4    0    0  0.16855292775E+02  0.49259386221E+02  0.78622182873E+01  0.52653608630E+02  0.00000000000E+00 0. -1.
         11    1    4    4    0    0 -0.60705491160E+02 -0.57942170808E+00 -0.18303511691E+01  0.60735842564E+02  0.00000000000E+00 0.  1.
        -11    1    3    3    0    0  0.60694001032E+02 -0.28130509056E+02 -0.61630935475E+02  0.90958559292E+02  0.00000000000E+00 0. -1.
         11    1    3    3    0    0 -0.32837228463E+02 -0.28873794467E+01 -0.41703865956E+02  0.53158564398E+02  0.00000000000E+00 0.  1.
          1    1    1    2  501    0  0.15993425816E+02 -0.17662076010E+02  0.19395990258E+02  0.30723655974E+02  0.00000000000E+00 0. -1.
<scales pt_clust_5="13000.00000" pt_clust_6="13000.00000" pt_clust_7="13000.00000" pt_clust_8="13000.00000" pt_clust_9="23.82727"></scales>
<clustering>
<clus scale="   23.827">  1  9  2 -1</clus>
<clus scale="   91.398">  7  8 -1 -1</clus>
<clus scale="   92.348">  5  6 -1 -1</clus>
<clus scale="  103.122">  2  7  1 -1</clus>
<clus scale="   23.827">  1  5  2 -1</clus>
</clustering>
</event>
<event>
 9    1  0.1445593E-005  0.1131799E+03  0.7546771E-02  0.1256287E+00
          3   -1    0    0  502    0 -0.00000000000E+00  0.00000000000E+00  0.12730351560E+03  0.12730351560E+03  0.00000000000E+00 0. -1.
         21   -1    0    0  501  502  0.00000000000E+00 -0.00000000000E+00 -0.18516709903E+03  0.18516709903E+03  0.00000000000E+00 0. -1.
         23    2    1    2    0    0 -0.90921689830E+00  0.44970590488E+02  0.96530242529E+01  0.10441541492E+03  0.93734824436E+02 0.  0.
         23    2    1    2    0    0  0.26229608724E+01 -0.86938193481E+02  0.41028126321E+01  0.12502774650E+03  0.89721652419E+02 0.  0.
        -11    1    3    3    0    0  0.30286796041E+02  0.61131014897E+02  0.11718241010E+02  0.69221442986E+02  0.00000000000E+00 0. -1.
         11    1    3    3    0    0 -0.31196012939E+02 -0.16160424409E+02 -0.20652167576E+01  0.35193971936E+02  0.00000000000E+00 0.  1.
        -13    1    4    4    0    0  0.11307327883E+02 -0.57332644584E+02 -0.40280152466E+02  0.70974491767E+02  0.00000000000E+00 0.  1.
         13    1    4    4    0    0 -0.86843670101E+01 -0.29605548897E+02  0.44382965098E+02  0.54053254729E+02  0.00000000000E+00 0. -1.
          3    1    1    2  501    0 -0.17137439741E+01  0.41967602993E+02 -0.71619420319E+02  0.83027453208E+02  0.00000000000E+00 0. -1.
<scales pt_clust_5="13000.00000" pt_clust_6="13000.00000" pt_clust_7="13000.00000" pt_clust_8="13000.00000" pt_clust_9="42.00258"></scales>
<clustering>
<clus scale="   42.003">  2  9  1 -1</clus>
<clus scale="   89.722">  7  8 -1 -1</clus>
<clus scale="   93.735">  5  6 -1 -1</clus>
<clus scale="  109.879">  2  7  1 -1</clus>
<clus scale="   42.003">  2  5  1 -1</clus>
</clustering>
</event>
<event>
 9    1  0.1445593E-005  0.1418084E+03  0.7546771E-02  0.1211319E+00
         21   -1    0    0  501  502  0.00000000000E+00  0.00000000000E+00  0.36392252256E+03  0.36392252256E+03  0.00000000000E+00 0. -1.
          2   -1    0    0  502    0 -0.00000000000E+00 -0.00000000000E+00 -0.13616458190E+03  0.13616458190E+03  0.00000000000E+00 0. -1.
         23    2    1    2    0    0 -0.12077520636E+03  0.99014144461E+00 -0.49215418594E+02  0.16012149979E+03  0.92892983681E+02 0.  0.
         23    2    1    2    0    0  0.70893398203E+02  0.35707548226E+02  0.11587534797E+03  0.16737509377E+03  0.91029790932E+02 0.  0.
        -11    1    4    4    0    0  0.28655518159E+02  0.18793355423E+02  0.11694641023E+03  0.12186382480E+03  0.00000000000E+00 0. -1.
         11    1    4    4    0    0  0.42237880043E+02  0.16914192803E+02 -0.10710622597E+01  0.45511268968E+02  0.00000000000E+00 0.  1.
        -13    1    3    3    0    0 -0.66998305930E+01 -0.32373035837E+02 -0.15915386152E+02  0.36690607730E+02  0.00000000000E+00 0.  1.
         13    1    3    3    0    0 -0.11407537577E+03  0.33363177281E+02 -0.33300032442E+02  0.12343089206E+03  0.00000000000E+00 0. -1.
          2    1    1    2  501    0  0.49881808155E+02 -0.36697689671E+02  0.16109801128E+03  0.17259051090E+03  0.00000000000E+00 0. -1.
<scales pt_clust_5="13000.00000" pt_clust_6="13000.00000" pt_clust_7="13000.00000" pt_clust_8="13000.00000" pt_clust_9="61.92669"></scales>
<clustering>
<clus scale="   61.927">  1  9  2 -1</clus>
<clus scale="   91.030">  5  6 -1 -1</clus>
<clus scale="   92.893">  7  8 -1 -1</clus>
<clus scale="  140.595">  1  5  2 -1</clus>
<clus scale="   61.927">  1  5  2 -1</clus>
</clustering>
</event>
<event>
 9    1  0.1445593E-005  0.9171337E+02  0.7546771E-02  0.1303646E+00
         21   -1    0    0  501  502  0.00000000000E+00  0.00000000000E+00  0.30499837725E+02  0.30499837725E+02  0.00000000000E+00 0. -1.
          1   -1    0    0  502    0 -0.00000000000E+00 -0.00000000000E+00 -0.43985941993E+03  0.43985941993E+03  0.00000000000E+00 0. -1.
         23    2    1    2    0    0  0.50597048043E+01 -0.20158075642E+01 -0.25658829284E+03  0.26994854361E+03  0.83695878502E+02 0.  0.
         23    2    1    2    0    0  0.11378762374E+02 -0.18141769921E+02 -0.14574611684E+03  0.17346810500E+03  0.91600506711E+02 0.  0.
        -11    1    4    4    0    0 -0.27547080813E+01 -0.33944130251E+02 -0.14825799965E+03  0.15211912061E+03  0.00000000000E+00 0. -1.
         11    1    4    4    0    0  0.14133470455E+02  0.15802360331E+02  0.25118828126E+01  0.21348984388E+02  0.00000000000E+00 0.  1.
        -13    1    3    3    0    0  0.31532788040E+02  0.18087840408E+02 -0.20752479090E+03  0.21068465898E+03  0.00000000000E+00 0.  1.
         13    1    3    3    0    0 -0.26473083236E+02 -0.20103647972E+02 -0.49063501941E+02  0.59263884622E+02  0.00000000000E+00 0. -1.
          1    1    1    2  501    0 -0.16438467178E+02  0.20157577485E+02 -0.70251725201E+01  0.26942609045E+02  0.00000000000E+00 0. -1.
<scales pt_clust_5="13000.00000" pt_clust_6="13000.00000" pt_clust_7="13000.00000" pt_clust_8="13000.00000" pt_clust_9="26.01060"></scales>
<clustering>
<clus scale="   26.011">  1  9  2 -1</clus>
<clus scale="   83.696">  7  8 -1 -1</clus>
<clus scale="   83.819">  2  7  1 -1</clus>
<clus scale="   91.601">  5  6 -1 -1</clus>
<clus scale="   26.011">  1  5  2 -1</clus>
</clustering>
</event>
<event>
 9    1  0.1445593E-005  0.1003779E+03  0.7546771E-02  0.1283843E+00
         21   -1    0    0  501  502  0.00000000000E+00  0.00000000000E+00  0.65437953301E+02  0.65437953301E+02  0.00000000000E+00 0.  1.
          1   -1    0    0  502    0 -0.00000000000E+00 -0.00000000000E+00 -0.28550210498E+03  0.28550210498E+03  0.00000000000E+00 0. -1.
         23    2    1    2    0    0  0.34489898563E+02  0.44222043693E+01 -0.85206668979E+02  0.12645680609E+03  0.86729685659E+02 0.  0.
         23    2    1    2    0    0 -0.76497239425E+01  0.57864192711E+02 -0.85408522016E+02  0.14054762240E+03  0.95143236521E+02 0.  0.
        -11    1    3    3    0    0 -0.24446518520E+02 -0.13813511009E+02 -0.11511334570E+02  0.30347259806E+02  0.00000000000E+00 0.  1.
         11    1    3    3    0    0  0.58936417083E+02  0.18235715379E+02 -0.73695334409E+02  0.96109546287E+02  0.00000000000E+00 0. -1.
        -13    1    4    4    0    0 -0.42619726072E+02  0.15863460791E+02 -0.86047130914E+01  0.46283166768E+02  0.00000000000E+00 0.  1.
         13    1    4    4    0    0  0.34970002129E+02  0.42000731920E+02 -0.76803808925E+02  0.94264455635E+02  0.00000000000E+00 0. -1.
          1    1    1    2  501    0 -0.26840174621E+02 -0.62286397080E+02 -0.49448960687E+02  0.83935629788E+02  0.00000000000E+00 0. -1.
<scales pt_clust_5="13000.00000" pt_clust_6="13000.00000" pt_clust_7="13000.00000" pt_clust_8="13000.00000" pt_clust_9="67.82323"></scales>
<clustering>
<clus scale="   67.823">  1  9  2 -1</clus>
<clus scale="   86.730">  5  6 -1 -1</clus>
<clus scale="   92.442">  2  5  1 -1</clus>
<clus scale="   95.143">  7  8 -1 -1</clus>
<clus scale="   67.823">  1  5  2 -1</clus>
</clustering>
</event>
<event>
 9    1  0.1445593E-005  0.2747433E+03  0.7546771E-02  0.1098616E+00
          2   -1    0    0  502    0 -0.00000000000E+00  0.00000000000E+00  0.90928542245E+03  0.90928542245E+03  0.00000000000E+00 0. -1.
         21   -1    0    0  501  502  0.00000000000E+00 -0.00000000000E+00 -0.12578916276E+03  0.12578916276E+03  0.00000000000E+00 0. -1.
         23    2    1    2    0    0 -0.36580765514E+02  0.23747425379E+03  0.32881676820E+03  0.41702546323E+03  0.89764114823E+02 0.  0.
         23    2    1    2    0    0 -0.56915525744E+02 -0.28614101550E+03  0.38691293013E+03  0.49274023558E+03  0.89304347244E+02 0.  0.
        -11    1    3    3    0    0 -0.15897462170E+02  0.96693964254E+02  0.20966524253E+03  0.23143458244E+03  0.00000000000E+00 0.  1.
         11    1    3    3    0    0 -0.20683303344E+02  0.14078028954E+03  0.11915152567E+03  0.18559088078E+03  0.00000000000E+00 0. -1.
        -13    1    4    4    0    0 -0.26862692394E+02 -0.23421791567E+03  0.35098367035E+03  0.42281103713E+03  0.00000000000E+00 0. -1.
         13    1    4    4    0    0 -0.30052833350E+02 -0.51923099823E+02  0.35929259778E+02  0.69929198450E+02  0.00000000000E+00 0.  1.
          2    1    1    2  501    0  0.93496291258E+02  0.48666761702E+02  0.67766561356E+02  0.12530888640E+03  0.00000000000E+00 0. -1.
<scales pt_clust_5="13000.00000" pt_clust_6="13000.00000" pt_clust_7="13000.00000" pt_clust_8="13000.00000" pt_clust_9="105.40403"></scales>
<clustering>
<clus scale="   89.304">  7  8 -1 -1</clus>
<clus scale="   89.764">  5  6 -1 -1</clus>
<clus scale="  105.404">  2  9  1 -1</clus>
<clus scale="  274.593">  2  7  1 -1</clus>
<clus scale="  105.404">  2  5  1 -1</clus>
</clustering>
</event>
<event>
 9    1  0.1445593E-005  0.9264636E+02  0.7546771E-02  0.1297427E+00
         21   -1    0    0  501  502  0.00000000000E+00  0.00000000000E+00  0.98797608071E+02  0.98797608071E+02  0.00000000000E+00 0. -1.
          3   -1    0    0  502    0 -0.00000000000E+00 -0.00000000000E+00 -0.30287299669E+03  0.30287299669E+03  0.00000000000E+00 0. -1.
         23    2    1    2    0    0  0.30225709221E+00 -0.72495091921E+01 -0.14953189236E+03  0.17524688687E+03  0.91099054771E+02 0.  0.
         23    2    1    2    0    0 -0.19612643152E+02 -0.57591955047E+02  0.33189615818E+02  0.11563380207E+03  0.92564229188E+02 0.  0.
        -13    1    4    4    0    0  0.37303512875E+02 -0.18106056305E+02  0.11104074616E+02  0.42926469932E+02  0.00000000000E+00 0.  1.
         13    1    4    4    0    0 -0.56916156027E+02 -0.39485898741E+02  0.22085541203E+02  0.72707332137E+02  0.00000000000E+00 0. -1.
        -13    1    3    3    0    0 -0.13016991754E+02 -0.46744075137E+02 -0.66266828636E+02  0.82132473555E+02  0.00000000000E+00 0. -1.
         13    1    3    3    0    0  0.13319248846E+02  0.39494565945E+02 -0.83265063728E+02  0.93114413314E+02  0.00000000000E+00 0.  1.
          3    1    1    2  501    0  0.19310386060E+02  0.64841464239E+02 -0.87733112077E+02  0.11078991583E+03  0.00000000000E+00 0. -1.
<scales pt_clust_5="13000.00000" pt_clust_6="13000.00000" pt_clust_7="13000.00000" pt_clust_8="13000.00000" pt_clust_9="67.65583"></scales>
<clustering>
<clus scale="   67.656">  1  9  2 -1</clus>
<clus scale="   91.099">  7  8 -1 -1</clus>
<clus scale="   91.183">  2  7  1 -1</clus>
<clus scale="   92.564">  5  6 -1 -1</clus>
<clus scale="   67.656">  1  5  2 -1</clus>
</clustering>
</event>
<event>
 9    1  0.1445593E-005  0.1233293E+03  0.7546771E-02  0.1237749E+00
         21   -1    0    0  501  502  0.00000000000E+00  0.00000000000E+00  0.44762256351E+03  0.44762256351E+03  0.00000000000E+00 0. -1.
          3   -1    0    0  502    0 -0.00000000000E+00 -0.00000000000E+00 -0.97634374435E+02  0.97634374435E+02  0.00000000000E+00 0. -1.
         23    2    1    2    0    0  0.63637551194E+02 -0.63848119689E+02 -0.30285035027E+02  0.13119100241E+03  0.90374639456E+02 0.  0.
         23    2    1    2    0    0 -0.14575147039E+02  0.61240417341E+02  0.21475350558E+03  0.24140819075E+03  0.90531888183E+02 0.  0.
        -11    1    3    3    0    0  0.82910393921E+02 -0.32768508938E+02 -0.10941282554E+02  0.89819932432E+02  0.00000000000E+00 0. -1.
         11    1    3    3    0    0 -0.19272842728E+02 -0.31079610752E+02 -0.19343752473E+02  0.41371069977E+02  0.00000000000E+00 0.  1.
        -13    1    4    4    0    0 -0.49606589014E+02  0.55304470622E+02  0.13484355391E+03  0.15395513039E+03  0.00000000000E+00 0. -1.
         13    1    4    4    0    0  0.35031441975E+02  0.59359467194E+01  0.79909951671E+02  0.87453060360E+02  0.00000000000E+00 0.  1.
          3    1    1    2  501    0 -0.49062404155E+02  0.26077023481E+01  0.16551971852E+03  0.17265774478E+03  0.00000000000E+00 0. -1.
<scales pt_clust_5="13000.00000" pt_clust_6="13000.00000" pt_clust_7="13000.00000" pt_clust_8="13000.00000" pt_clust_9="49.13166"></scales>
<clustering>
<clus scale="   49.132">  1  9  2 -1</clus>
<clus scale="   90.375">  5  6 -1 -1</clus>
<clus scale="   90.532">  7  8 -1 -1</clus>
<clus scale="  123.214">  2  5  1 -1</clus>
<clus scale="   49.132">  1  5  2 -1</clus>
</clustering>
</event>
<event>
 9    1  0.1445593E-005  0.1001077E+03  0.7546771E-02  0.1281422E+00
         21   -1    0    0  501  502  0.00000000000E+00  0.00000000000E+00  0.16809391833E+03  0.16809391833E+03  0.00000000000E+00 0.  1.
          1   -1    0    0  502    0 -0.00000000000E+00 -0.00000000000E+00 -0.21823983659E+03  0.21823983659E+03  0.00000000000E+00 0. -1.
         23    2    1    2    0    0  0.31815340853E+02 -0.26678698205E+02 -0.17335485384E+03  0.20093650885E+03  0.92734062724E+02 0.  0.
         23    2    1    2    0    0 -0.10080136586E+02  0.15564065351E+02  0.42784343653E+02  0.10134922911E+03  0.89985092633E+02 0.  0.
        -11    1    4    4    0    0  0.63695952058E+01  0.36080484464E+02  0.59725529891E+02  0.70067910080E+02  0.00000000000E+00 0.  1.
         11    1    4    4    0    0 -0.16449731792E+02 -0.20516419113E+02 -0.16941186239E+02  0.31281319032E+02  0.00000000000E+00 0. -1.
        -13    1    3    3    0    0  0.13267567656E+02  0.21799584552E+02 -0.66983230700E+01  0.26384043854E+02  0.00000000000E+00 0.  1.
         13    1    3    3    0    0  0.18547773197E+02 -0.48478282757E+02 -0.16665653077E+03  0.17455246500E+03  0.00000000000E+00 0. -1.
          1    1    1    2  501    0 -0.21735204267E+02  0.11114632854E+02  0.80424591924E+02  0.84048016956E+02  0.00000000000E+00 0. -1.
<scales pt_clust_5="13000.00000" pt_clust_6="13000.00000" pt_clust_7="13000.00000" pt_clust_8="13000.00000" pt_clust_9="24.41217"></scales>
<clustering>
<clus scale="   24.412">  1  9  2 -1</clus>
<clus scale="   89.985">  5  6 -1 -1</clus>
<clus scale="   92.734">  7  8 -1 -1</clus>
<clus scale="   97.567">  1  5  2 -1</clus>
<clus scale="   24.412">  1  5  2 -1</clus>
</clustering>
</event>
<event>
 9    1  0.1445593E-005  0.1150257E+03  0.7546771E-02  0.1251844E+00
         21   -1    0    0  501  502  0.00000000000E+00  0.00000000000E+00  0.22204648740E+02  0.22204648740E+02  0.00000000000E+00 0.  1.
          2   -1    0    0  502    0 -0.00000000000E+00 -0.00000000000E+00 -0.84495572136E+03  0.84495572136E+03  0.00000000000E+00 0. -1.
         23    2    1    2    0    0  0.85784830314E+02  0.46616040838E+01 -0.39875411125E+03  0.41790574264E+03  0.90882346102E+02 0.  0.
         23    2    1    2    0    0 -0.50404938272E+02 -0.20545488762E+01 -0.23972170114E+03  0.26159561480E+03  0.91765422199E+02 0.  0.
        -13    1    4    4    0    0 -0.31968175740E+02  0.43723816652E+02 -0.10556527452E+03  0.11864975174E+03  0.00000000000E+00 0.  1.
         13    1    4    4    0    0 -0.18436762532E+02 -0.45778365528E+02 -0.13415642661E+03  0.14294586306E+03  0.00000000000E+00 0. -1.
        -13    1    3    3    0    0  0.57919857883E+01  0.30039658850E+02 -0.45561442910E+02  0.54879625393E+02  0.00000000000E+00 0.  1.
         13    1    3    3    0    0  0.79992844526E+02 -0.25378054766E+02 -0.35319266834E+03  0.36302611725E+03  0.00000000000E+00 0. -1.
          2    1    1    2  501    0 -0.35379892042E+02 -0.26070552076E+01 -0.18427526024E+03  0.18765901266E+03  0.00000000000E+00 0. -1.
<scales pt_clust_5="13000.00000" pt_clust_6="13000.00000" pt_clust_7="13000.00000" pt_clust_8="13000.00000" pt_clust_9="35.47583"></scales>
<clustering>
<clus scale="   35.476">  1  9  2 -1</clus>
<clus scale="   90.882">  7  8 -1 -1</clus>
<clus scale="   91.765">  5  6 -1 -1</clus>
<clus scale="  114.322">  2  7  1 -1</clus>
<clus scale="   35.476">  1  5  2 -1</clus>
</clustering>
</event>
<event>
 9    1  0.1445593E-005  0.1331031E+03  0.7546771E-02  0.1223295E+00
         21   -1    0    0  501  502  0.00000000000E+00  0.00000000000E+00  0.27326002503E+03  0.27326002503E+03  0.00000000000E+00 0. -1.
         -3   -1    0    0    0  501 -0.00000000000E+00 -0.00000000000E+00 -0.18313535797E+03  0.18313535797E+03  0.00000000000E+00 0.  1.
         23    2    1    2    0    0  0.80652001223E+02  0.18385046657E+02 -0.70558062946E+02  0.14211577406E+03  0.91518838221E+02 0.  0.
         23    2    1    2    0    0 -0.12832976217E+03 -0.21597465039E+02  0.12662415197E+02  0.15873700346E+03  0.90011783413E+02 0.  0.
        -11    1    3    3    0    0  0.45391100220E+02  0.54901819467E+02 -0.30674527501E+02  0.77559579662E+02  0.00000000000E+00 0.  1.
         11    1    3    3    0    0  0.35260901004E+02 -0.36516772811E+02 -0.39883535444E+02  0.64556194402E+02  0.00000000000E+00 0. -1.
        -11    1    4    4    0    0 -0.51102661341E+02 -0.45673654187E+02  0.31883357616E+02  0.75591753359E+02  0.00000000000E+00 0. -1.
         11    1    4    4    0    0 -0.77227100833E+02  0.24076189148E+02 -0.19220942420E+02  0.83145250102E+02  0.00000000000E+00 0.  1.
         -3    1    1    2    0  502  0.47677760951E+02  0.32124183820E+01  0.14802031481E+03  0.15554260548E+03  0.00000000000E+00 0.  1.
<scales pt_clust_5="13000.00000" pt_clust_6="13000.00000" pt_clust_7="13000.00000" pt_clust_8="13000.00000" pt_clust_9="47.78586"></scales>
<clustering>
<clus scale="   47.786">  1  9  2 -1</clus>
<clus scale="   90.012">  7  8 -1 -1</clus>
<clus scale="   91.519">  5  6 -1 -1</clus>
<clus scale="  132.071">  1  7  2 -1</clus>
<clus scale="   47.786">  1  5  2 -1</clus>
</clustering>
</event>
<event>
 9    1  0.1445593E-005  0.9506019E+02  0.7546771E-02  0.1292526E+00
          2   -1    0    0  502    0 -0.00000000000E+00  0.00000000000E+00  0.56721936941E+03  0.56721936941E+03  0.00000000000E+00 0. -1.
         21   -1    0    0  501  502  0.00000000000E+00 -0.00000000000E+00 -0.45880302142E+02  0.45880302142E+02  0.00000000000E+00 0. -1.
         23    2    1    2    0    0  0.86874671772E+01 -0.24873475118E+02  0.32952894071E+03  0.34360922002E+03  0.93721990297E+02 0.  0.
         23    2    1    2    0    0 -0.13451770104E+02 -0.61079320698E+01  0.21267893374E+03  0.23183340324E+03  0.91083154557E+02 0.  0.
        -11    1    3    3    0    0 -0.35874536315E+02  0.11422225713E+02  0.16780121952E+03  0.17197295970E+03  0.00000000000E+00 0.  1.
         11    1    3    3    0    0  0.44562003492E+02 -0.36295700831E+02  0.16172772119E+03  0.17163626032E+03  0.00000000000E+00 0. -1.
        -11    1    4    4    0    0  0.32297300344E+02  0.20578877444E+02  0.72707076741E+02  0.82176181552E+02  0.00000000000E+00 0.  1.
         11    1    4    4    0    0 -0.45749070448E+02 -0.26686809514E+02  0.13997185700E+03  0.14965722168E+03  0.00000000000E+00 0. -1.
          2    1    1    2  501    0  0.47643029268E+01  0.30981407188E+02 -0.20868807181E+02  0.37657048303E+02  0.00000000000E+00 0. -1.
<scales pt_clust_5="13000.00000" pt_clust_6="13000.00000" pt_clust_7="13000.00000" pt_clust_8="13000.00000" pt_clust_9="31.34559"></scales>
<clustering>
<clus scale="   31.346">  2  9  1 -1</clus>
<clus scale="   91.083">  7  8 -1 -1</clus>
<clus scale="   92.460">  2  7  1 -1</clus>
<clus scale="   93.722">  5  6 -1 -1</clus>
<clus scale="   31.346">  2  5  1 -1</clus>
</clustering>
</event>
<event>
 9    1  0.1445593E-005  0.1101043E+03  0.7546771E-02  0.1260424E+00
          2   -1    0    0  502    0 -0.00000000000E+00  0.00000000000E+00  0.70668254397E+02  0.70668254397E+02  0.00000000000E+00 0. -1.
         21   -1    0    0  501  502  0.00000000000E+00 -0.00000000000E+00 -0.32078325745E+03  0.32078325745E+03  0.00000000000E+00 0.  1.
         23    2    1    2    0    0 -0.56719518619E+01 -0.81816784445E+02 -0.61399940032E+02  0.13784033823E+03  0.92216316094E+02 0.  0.
         23    2    1    2    0    0  0.36029310780E+02  0.28907215960E+02 -0.86260878800E+02  0.13437254085E+03  0.92093985440E+02 0.  0.
        -13    1    3    3    0    0  0.31202642161E+02 -0.68452704948E+02 -0.14347822409E+02  0.76584839886E+02  0.00000000000E+00 0.  1.
         13    1    3    3    0    0 -0.36874594023E+02 -0.13364079497E+02 -0.47052117623E+02  0.61255498349E+02  0.00000000000E+00 0. -1.
        -13    1    4    4    0    0  0.66323900693E+02  0.23086956260E+02 -0.47270222085E+02  0.84654245307E+02  0.00000000000E+00 0.  1.
         13    1    4    4    0    0 -0.30294589913E+02  0.58202597004E+01 -0.38990656716E+02  0.49718295547E+02  0.00000000000E+00 0. -1.
          2    1    1    2  501    0 -0.30357358918E+02  0.52909568484E+02 -0.10245418422E+03  0.11923863275E+03  0.00000000000E+00 0. -1.
<scales pt_clust_5="13000.00000" pt_clust_6="13000.00000" pt_clust_7="13000.00000" pt_clust_8="13000.00000" pt_clust_9="60.99993"></scales>
<clustering>
<clus scale="   61.000">  2  9  1 -1</clus>
<clus scale="   92.094">  7  8 -1 -1</clus>
<clus scale="   92.216">  5  6 -1 -1</clus>
<clus scale="  110.002">  2  7  1 -1</clus>
<clus scale="   61.000">  2  5  1 -1</clus>
</clustering>
</event>
<event>
 9    1  0.1445593E-005  0.1012369E+03  0.7546771E-02  0.1283139E+00
          1   -1    0    0  502    0 -0.00000000000E+00  0.00000000000E+00  0.16795521800E+03  0.16795521800E+03  0.00000000000E+00 0. -1.
         21   -1    0    0  501  502  0.00000000000E+00 -0.00000000000E+00 -0.77188292302E+02  0.77188292302E+02  0.00000000000E+00 0.  1.
         23    2    1    2    0    0  0.10986778671E+01  0.14448367060E+02  0.84767629283E+02  0.13247114832E+03  0.10076255138E+03 0.  0.
         23    2    1    2    0    0  0.12652898652E+02  0.57900994754E+00  0.88834936490E+01  0.92099406185E+02  0.90790710227E+02 0.  0.
        -11    1    3    3    0    0 -0.37600357646E+02  0.31871565352E+02  0.73609302657E+02  0.88588447388E+02  0.00000000000E+00 0. -1.
         11    1    3    3    0    0  0.38699035513E+02 -0.17423198291E+02  0.11158326626E+02  0.43882700936E+02  0.00000000000E+00 0.  1.
        -13    1    4    4    0    0 -0.20706409289E+02  0.36895539703E+02  0.55965895662E+01  0.42677371643E+02  0.00000000000E+00 0. -1.
         13    1    4    4    0    0  0.33359307941E+02 -0.36316529756E+02  0.32869040828E+01  0.49422034542E+02  0.00000000000E+00 0.  1.
          1    1    1    2  501    0 -0.13751576519E+02 -0.15027377008E+02 -0.28841972297E+01  0.20572955796E+02  0.00000000000E+00 0. -1.
<scales pt_clust_5="13000.00000" pt_clust_6="13000.00000" pt_clust_7="13000.00000" pt_clust_8="13000.00000" pt_clust_9="20.36978"></scales>
<clustering>
<clus scale="   20.370">  2  9  1 -1</clus>
<clus scale="   90.791">  7  8 -1 -1</clus>
<clus scale="   91.317">  2  7  1 -1</clus>
<clus scale="  100.763">  5  6 -1 -1</clus>
<clus scale="   20.370">  2  5  1 -1</clus>
</clustering>
</event>
<event>
 9    1  0.1445593E-005  0.2922590E+03  0.7546771E-02  0.1089343E+00
         -1   -1    0    0    0  501 -0.00000000000E+00  0.00000000000E+00  0.35882554073E+03  0.35882554073E+03  0.00000000000E+00 0.  1.
         21   -1    0    0  501  502  0.00000000000E+00 -0.00000000000E+00 -0.36687847682E+03  0.36687847682E+03  0.00000000000E+00 0. -1.
         23    2    1    2    0    0 -0.16401629111E+02  0.28003171598E+03  0.17770373571E+03  0.34597521075E+03  0.97125966532E+02 0.  0.
         23    2    1    2    0    0  0.30415866779E+02 -0.26231291360E+03 -0.11029543130E+03  0.30095854826E+03  0.93154581261E+02 0.  0.
        -11    1    4    4    0    0  0.52637548648E+02 -0.94161368768E+02 -0.23409848243E+02  0.11038612182E+03  0.00000000000E+00 0.  1.
         11    1    4    4    0    0 -0.22221681868E+02 -0.16815154483E+03 -0.86885583058E+02  0.19057242644E+03  0.00000000000E+00 0. -1.
        -13    1    3    3    0    0  0.13835798370E+02  0.25428173787E+03  0.16803047286E+03  0.30509813395E+03  0.00000000000E+00 0.  1.
         13    1    3    3    0    0 -0.30237427481E+02  0.25749978111E+02  0.96732628487E+01  0.40877076797E+02  0.00000000000E+00 0. -1.
         -1    1    1    2    0  502 -0.14014237668E+02 -0.17718802380E+02 -0.75461240496E+02  0.78770258553E+02  0.00000000000E+00 0.  1.
<scales pt_clust_5="13000.00000" pt_clust_6="13000.00000" pt_clust_7="13000.00000" pt_clust_8="13000.00000" pt_clust_9="22.59103"></scales>
<clustering>
<clus scale="   22.591">  2  9  1 -1</clus>
<clus scale="   93.155">  5  6 -1 -1</clus>
<clus scale="   97.126">  7  8 -1 -1</clus>
<clus scale="  290.963">  2  5  1 -1</clus>
<clus scale="   22.591">  2  5  1 -1</clus>
</clustering>
</event>
<event>
 9    1  0.1445593E-005  0.1166351E+03  0.7546771E-02  0.1249060E+00
          2   -1    0    0  502    0 -0.00000000000E+00  0.00000000000E+00  0.39364140654E+03  0.39364140654E+03  0.00000000000E+00 0. -1.
         21   -1    0    0  501  502  0.00000000000E+00 -0.00000000000E+00 -0.61609511544E+02  0.61609511544E+02  0.00000000000E+00 0. -1.
         23    2    1    2    0    0  0.67172438878E+02  0.11101328379E+02  0.27256600237E+03  0.29553292900E+03  0.91717557990E+02 0.  0.
         23    2    1    2    0    0 -0.82561406406E+02 -0.26204696562E+02  0.57572640675E+02  0.13807274815E+03  0.90809706957E+02 0.  0.
        -13    1    3    3    0    0  0.27315202161E+02  0.50876273623E+02  0.12989287877E+03  0.14215018622E+03  0.00000000000E+00 0.  1.
         13    1    3    3    0    0  0.39857236717E+02 -0.39774945244E+02  0.14267312360E+03  0.15338274279E+03  0.00000000000E+00 0. -1.
        -13    1    4    4    0    0 -0.65949239308E+02  0.26764811849E+01  0.75463065286E+02  0.10025537362E+03  0.00000000000E+00 0. -1.
         13    1    4    4    0    0 -0.16612167099E+02 -0.28881177747E+02 -0.17890424611E+02  0.37817374533E+02  0.00000000000E+00 0.  1.
          2    1    1    2  501    0  0.15388967528E+02  0.15103368183E+02  0.18932519594E+01  0.21645240933E+02  0.00000000000E+00 0. -1.
<scales pt_clust_5="13000.00000" pt_clust_6="13000.00000" pt_clust_7="13000.00000" pt_clust_8="13000.00000" pt_clust_9="21.56228"></scales>
<clustering>
<clus scale="   21.562">  2  9  1 -1</clus>
<clus scale="   90.810">  7  8 -1 -1</clus>
<clus scale="   91.718">  5  6 -1 -1</clus>
<clus scale="  115.923">  2  7  1 -1</clus>
<clus scale="   21.562">  2  5  1 -1</clus>
</clustering>
</event>
<event>
 9    1  0.1445593E-005  0.9419649E+02  0.7546771E-02  0.1293287E+00
          2   -1    0    0  502    0 -0.00000000000E+00  0.00000000000E+00  0.80657525879E+03  0.80657525879E+03  0.00000000000E+00 0. -1.
         21   -1    0    0  501  502  0.00000000000E+00 -0.00000000000E+00 -0.19170320796E+02  0.19170320796E+02  0.00000000000E+00 0.  1.
         23    2    1    2    0    0 -0.18604247406E+02  0.52742108192E+01  0.43321872493E+03  0.44336935895E+03  0.92325454265E+02 0.  0.
         23    2    1    2    0    0 -0.94337061545E+01 -0.28446302122E+02  0.18312946826E+03  0.20749488202E+03  0.92841461646E+02 0.  0.
        -13    1    4    4    0    0  0.27102412069E+02  0.47771895284E+01  0.13175221747E+02  0.30511452733E+02  0.00000000000E+00 0.  1.
         13    1    4    4    0    0 -0.36536118224E+02 -0.33223491651E+02  0.16995424652E+03  0.17698342929E+03  0.00000000000E+00 0. -1.
        -13    1    3    3    0    0 -0.43631204932E+02  0.33963543024E+02  0.22464400023E+03  0.23134850581E+03  0.00000000000E+00 0. -1.
         13    1    3    3    0    0  0.25026957526E+02 -0.28689332204E+02  0.20857472470E+03  0.21202085314E+03  0.00000000000E+00 0.  1.
          2    1    1    2  501    0  0.28037953560E+02  0.23172091303E+02  0.17105674480E+03  0.17488133862E+03  0.00000000000E+00 0. -1.
<scales pt_clust_5="13000.00000" pt_clust_6="13000.00000" pt_clust_7="13000.00000" pt_clust_8="13000.00000" pt_clust_9="36.37408"></scales>
<clustering>
<clus scale="   36.374">  2  9  1 -1</clus>
<clus scale="   92.325">  7  8 -1 -1</clus>
<clus scale="   92.841">  5  6 -1 -1</clus>
<clus scale="   93.688">  1  7  2 -1</clus>
<clus scale="   36.374">  2  5  1 -1</clus>
</clustering>
</event>
<event>
 9    1  0.1445593E-005  0.1114661E+03  0.7546771E-02  0.1264693E+00
          1   -1    0    0  502    0 -0.00000000000E+00  0.00000000000E+00  0.66201121696E+02  0.66201121696E+02  0.00000000000E+00 0. -1.
         21   -1    0    0  501  502  0.00000000000E+00 -0.00000000000E+00 -0.34784453382E+03  0.34784453382E+03  0.00000000000E+00 0. -1.
         23    2    1    2    0    0  0.82823019043E+01 -0.20375195272E+02 -0.88488815058E+02  0.12562107046E+03  0.86409709216E+02 0.  0.
         23    2    1    2    0    0 -0.71445116059E+02  0.53479237100E+02 -0.16043548133E+03  0.20996466400E+03  0.10188809081E+03 0.  0.
        -11    1    3    3    0    0  0.44226336365E+02 -0.25117465398E+02 -0.64530044585E+02  0.82164363020E+02  0.00000000000E+00 0.  1.
         11    1    3    3    0    0 -0.35944034461E+02  0.47422701255E+01 -0.23958770473E+02  0.43456707444E+02  0.00000000000E+00 0. -1.
        -11    1    4    4    0    0 -0.82406099267E+02  0.36954613659E+01 -0.11600638517E+03  0.14234431155E+03  0.00000000000E+00 0. -1.
         11    1    4    4    0    0  0.10960983208E+02  0.49783775734E+02 -0.44429096158E+02  0.67620352444E+02  0.00000000000E+00 0.  1.
          1    1    1    2  501    0  0.63162814155E+02 -0.33104041828E+02 -0.32719115737E+02  0.78459921054E+02  0.00000000000E+00 0. -1.
<scales pt_clust_5="13000.00000" pt_clust_6="13000.00000" pt_clust_7="13000.00000" pt_clust_8="13000.00000" pt_clust_9="71.31216"></scales>
<clustering>
<clus scale="   71.312">  2  9  1 -1</clus>
<clus scale="   86.410">  5  6 -1 -1</clus>
<clus scale="   97.520">  1  5  2 -1</clus>
<clus scale="  101.888">  7  8 -1 -1</clus>
<clus scale="   71.312">  2  5  1 -1</clus>
</clustering>
</event>
<event>
 9    1  0.1445593E-005  0.1683168E+03  0.7546771E-02  0.1179635E+00
         21   -1    0    0  501  502  0.00000000000E+00  0.00000000000E+00  0.27642543730E+02  0.27642543730E+02  0.00000000000E+00 0.  1.
          2   -1    0    0  502    0 -0.00000000000E+00 -0.00000000000E+00 -0.12905771635E+04  0.12905771635E+04  0.00000000000E+00 0. -1.
         23    2    1    2    0    0 -0.11132108062E+03 -0.93276197644E+02 -0.68388511119E+03  0.70513885246E+03  0.91810260337E+02 0.  0.
         23    2    1    2    0    0  0.11707633902E+03  0.71587525488E+02 -0.55946513964E+03  0.58329715108E+03  0.91666138887E+02 0.  0.
        -11    1    4    4    0    0  0.51841392216E+02  0.18681166735E+02 -0.83941003538E+02  0.10041219056E+03  0.00000000000E+00 0.  1.
         11    1    4    4    0    0  0.65234946808E+02  0.52906358753E+02 -0.47552413611E+03  0.48288496052E+03  0.00000000000E+00 0. -1.
        -11    1    3    3    0    0 -0.82010601262E+02 -0.10897926750E+02 -0.28393125880E+03  0.29573884299E+03  0.00000000000E+00 0. -1.
         11    1    3    3    0    0 -0.29310479361E+02 -0.82378270895E+02 -0.39995385239E+03  0.40940000947E+03  0.00000000000E+00 0.  1.
          2    1    1    2  501    0 -0.57552584011E+01  0.21688672156E+02 -0.19584368958E+02  0.29783703709E+02  0.00000000000E+00 0. -1.
<scales pt_clust_5="13000.00000" pt_clust_6="13000.00000" pt_clust_7="13000.00000" pt_clust_8="13000.00000" pt_clust_9="22.43928"></scales>
<clustering>
<clus scale="   22.439">  1  9  2 -1</clus>
<clus scale="   91.666">  5  6 -1 -1</clus>
<clus scale="   91.810">  7  8 -1 -1</clus>
<clus scale="  168.238">  1  5  2 -1</clus>
<clus scale="   22.439">  1  5  2 -1</clus>
</clustering>
</event>
<event>
 9    1  0.1445593E-005  0.1331587E+03  0.7546771E-02  0.1225161E+00
          1   -1    0    0  502    0 -0.00000000000E+00  0.00000000000E+00  0.93809329249E+03  0.93809329249E+03  0.00000000000E+00 0. -1.
         21   -1    0    0  501  502  0.00000000000E+00 -0.00000000000E+00 -0.24037430451E+02  0.24037430451E+02  0.00000000000E+00 0.  1.
         23    2    1    2    0    0 -0.83465044565E+02  0.48827088032E+02  0.52836378749E+03  0.54467383234E+03  0.90281745210E+02 0.  0.
         23    2    1    2    0    0  0.62262082711E+02 -0.49943928670E+02  0.36951085706E+03  0.39076148418E+03  0.98920680747E+02 0.  0.
        -11    1    3    3    0    0 -0.65398763285E+02 -0.77909518191E+01  0.18902927275E+03  0.20017433184E+03  0.00000000000E+00 0. -1.
         11    1    3    3    0    0 -0.18066281280E+02  0.56618039851E+02  0.33933451474E+03  0.34449950050E+03  0.00000000000E+00 0.  1.
        -13    1    4    4    0    0  0.21495238350E+02 -0.52903146528E+02  0.32638710647E+03  0.33134473205E+03  0.00000000000E+00 0. -1.
         13    1    4    4    0    0  0.40766844361E+02  0.29592178577E+01  0.43123750593E+02  0.59416752138E+02  0.00000000000E+00 0.  1.
          1    1    1    2  501    0  0.21202961854E+02  0.11168406378E+01  0.16181217486E+02  0.26695406416E+02  0.00000000000E+00 0. -1.
<scales pt_clust_5="13000.00000" pt_clust_6="13000.00000" pt_clust_7="13000.00000" pt_clust_8="13000.00000" pt_clust_9="21.23236"></scales>
<clustering>
<clus scale="   21.232">  2  9  1 -1</clus>
<clus scale="   90.282">  5  6 -1 -1</clus>
<clus scale="   98.921">  7  8 -1 -1</clus>
<clus scale="  126.873">  1  5  2 -1</clus>
<clus scale="   21.232">  2  5  1 -1</clus>
</clustering>
</event>
<event>
 9    1  0.1445593E-005  0.1079569E+03  0.7546771E-02  0.1265774E+00
          1   -1    0    0  502    0 -0.00000000000E+00  0.00000000000E+00  0.14231640777E+03  0.14231640777E+03  0.00000000000E+00 0. -1.
         21   -1    0    0  501  502  0.00000000000E+00 -0.00000000000E+00 -0.27387749323E+03  0.27387749323E+03  0.00000000000E+00 0.  1.
         23    2    1    2    0    0  0.66418707186E+02 -0.23756999667E+02  0.75463614247E+02  0.14054452732E+03  0.95300406019E+02 0.  0.
         23    2    1    2    0    0  0.45627108566E+01  0.12467930344E+02 -0.56451174363E+02  0.10880156481E+03  0.92058556364E+02 0.  0.
        -11    1    4    4    0    0 -0.36679360181E+02 -0.14164655170E+02 -0.86070541024E+01  0.40250395026E+02  0.00000000000E+00 0. -1.
         11    1    4    4    0    0  0.41242071038E+02  0.26632585514E+02 -0.47844120260E+02  0.68551169780E+02  0.00000000000E+00 0.  1.
        -13    1    3    3    0    0  0.89358908335E+02 -0.11317916665E+02  0.69518584923E+02  0.11378024163E+03  0.00000000000E+00 0.  1.
         13    1    3    3    0    0 -0.22940201150E+02 -0.12439083002E+02  0.59450293231E+01  0.26764285688E+02  0.00000000000E+00 0. -1.
          1    1    1    2  501    0 -0.70981418043E+02  0.11289069323E+02 -0.15057352534E+03  0.16684780887E+03  0.00000000000E+00 0. -1.
<scales pt_clust_5="13000.00000" pt_clust_6="13000.00000" pt_clust_7="13000.00000" pt_clust_8="13000.00000" pt_clust_9="71.87353"></scales>
<clustering>
<clus scale="   71.874">  2  9  1 -1</clus>
<clus scale="   92.059">  5  6 -1 -1</clus>
<clus scale="   95.300">  7  8 -1 -1</clus>
<clus scale="  105.106">  2  5  1 -1</clus>
<clus scale="   71.874">  2  5  1 -1</clus>
</clustering>
</event>
<event>
 9    1  0.1445593E-005  0.1489354E+03  0.7546771E-02  0.1216816E+00
         21   -1    0    0  501  502  0.00000000000E+00  0.00000000000E+00  0.24397884963E+03  0.24397884963E+03  0.00000000000E+00 0.  1.
         -2   -1    0    0    0  501 -0.00000000000E+00 -0.00000000000E+00 -0.27031811828E+03  0.27031811828E+03  0.00000000000E+00 0.  1.
         23    2    1    2    0    0 -0.35723699118E+01  0.55911235535E+02 -0.16845747286E+03  0.20010978971E+03  0.92342729492E+02 0.  0.
         23    2    1    2    0    0 -0.10189878704E+02  0.73913402908E+02  0.37718633203E+00  0.12148442164E+03  0.95871255725E+02 0.  0.
        -13    1    3    3    0    0  0.36615251990E+02  0.56400615504E+02 -0.11519547418E+03  0.13338554412E+03  0.00000000000E+00 0.  1.
         13    1    3    3    0    0 -0.40187621902E+02 -0.48937996853E+00 -0.53261998683E+02  0.66724245598E+02  0.00000000000E+00 0. -1.
        -13    1    4    4    0    0 -0.28573773774E+02  0.85401523823E+02 -0.19421962958E+02  0.92125422463E+02  0.00000000000E+00 0.  1.
         13    1    4    4    0    0  0.18383895070E+02 -0.11488120914E+02  0.19799149290E+02  0.29358999177E+02  0.00000000000E+00 0. -1.
         -2    1    1    2    0  502  0.13762248616E+02 -0.12982463844E+03  0.14174101789E+03  0.19270275656E+03  0.00000000000E+00 0.  1.
<scales pt_clust_5="13000.00000" pt_clust_6="13000.00000" pt_clust_7="13000.00000" pt_clust_8="13000.00000" pt_clust_9="113.97563"></scales>
<clustering>
<clus scale="   92.343">  5  6 -1 -1</clus>
<clus scale="   95.871">  7  8 -1 -1</clus>
<clus scale="  108.009">  2  5  1 -1</clus>
<clus scale="  113.976">  1  9  2 -1</clus>
<clus scale="  113.976">  1  5  2 -1</clus>
</clustering>
</event>
<event>
 9    1  0.1445593E-005  0.9970819E+02  0.7546771E-02  0.1282711E+00
         21   -1    0    0  501  502  0.00000000000E+00  0.00000000000E+00  0.71661313424E+02  0.71661313424E+02  0.00000000000E+00 0. -1.
          1   -1    0    0  502    0 -0.00000000000E+00 -0.00000000000E+00 -0.54553635580E+03  0.54553635580E+03  0.00000000000E+00 0. -1.
         23    2    1    2    0    0  0.28245932201E+02  0.13397724887E+02 -0.29491525505E+03  0.31131217229E+03  0.94672748146E+02 0.  0.
         23    2    1    2    0    0 -0.31124402206E+01  0.26570638035E+02 -0.22062175315E+03  0.24291818914E+03  0.98079572614E+02 0.  0.
        -11    1    4    4    0    0  0.32951528585E+02  0.33073860080E+02 -0.18847301810E+03  0.19416941574E+03  0.00000000000E+00 0. -1.
         11    1    4    4    0    0 -0.36063968806E+02 -0.65032220442E+01 -0.32148735043E+02  0.48748773398E+02  0.00000000000E+00 0.  1.
        -11    1    3    3    0    0  0.69260409888E+01  0.53374413131E+02 -0.14338350229E+03  0.15315229920E+03  0.00000000000E+00 0. -1.
         11    1    3    3    0    0  0.21319891212E+02 -0.39976688244E+02 -0.15153175275E+03  0.15815987309E+03  0.00000000000E+00 0.  1.
          1    1    1    2  501    0 -0.25133491980E+02 -0.39968362923E+02  0.41661965819E+02  0.62967307786E+02  0.00000000000E+00 0. -1.
<scales pt_clust_5="13000.00000" pt_clust_6="13000.00000" pt_clust_7="13000.00000" pt_clust_8="13000.00000" pt_clust_9="47.21401"></scales>
<clustering>
<clus scale="   47.214">  1  9  2 -1</clus>
<clus scale="   94.673">  7  8 -1 -1</clus>
<clus scale="   96.359">  2  7  1 -1</clus>
<clus scale="   98.080">  5  6 -1 -1</clus>
<clus scale="   47.214">  1  5  2 -1</clus>
</clustering>
</event>
<event>
 9    1  0.1445593E-005  0.1173590E+03  0.7546771E-02  0.1247762E+00
         -3   -1    0    0    0  501 -0.00000000000E+00  0.00000000000E+00  0.32740658138E+03  0.32740658138E+03  0.00000000000E+00 0.  1.
         21   -1    0    0  501  502  0.00000000000E+00 -0.00000000000E+00 -0.19786163714E+03  0.19786163714E+03  0.00000000000E+00 0. -1.
         23    2    1    2    0    0 -0.62280203149E+01  0.74443191737E+02  0.22712932024E+03  0.25573437724E+03  0.90729083306E+02 0.  0.
         23    2    1    2    0    0  0.10194287594E+03 -0.57486829404E+02 -0.87971792239E+02  0.17185450068E+03  0.89988041792E+02 0.  0.
        -11    1    4    4    0    0  0.76023592060E+02 -0.61705572791E+01 -0.12993941807E+02  0.77372507072E+02  0.00000000000E+00 0.  1.
         11    1    4    4    0    0  0.25919283882E+02 -0.51316272125E+02 -0.74977850431E+02  0.94481993613E+02  0.00000000000E+00 0. -1.
        -13    1    3    3    0    0 -0.20852482227E+02  0.91985985666E+02  0.17440668822E+03  0.19827743308E+03  0.00000000000E+00 0.  1.
         13    1    3    3    0    0  0.14624461912E+02 -0.17542793929E+02  0.52722632019E+02  0.57456944159E+02  0.00000000000E+00 0. -1.
         -3    1    1    2    0  502 -0.95714855627E+02 -0.16956362333E+02 -0.96125837638E+01  0.97679340589E+02  0.00000000000E+00 0.  1.
<scales pt_clust_5="13000.00000" pt_clust_6="13000.00000" pt_clust_7="13000.00000" pt_clust_8="13000.00000" pt_clust_9="97.20520"></scales>
<clustering>
<clus scale="   89.988">  5  6 -1 -1</clus>
<clus scale="   90.729">  7  8 -1 -1</clus>
<clus scale="   97.205">  2  9  1 -1</clus>
<clus scale="  116.787">  2  5  1 -1</clus>
<clus scale="   97.205">  2  5  1 -1</clus>
</clustering>
</event>
<event>
 9    1  0.1445593E-005  0.1055660E+03  0.7546771E-02  0.1270540E+00
          3   -1    0    0  502    0 -0.00000000000E+00  0.00000000000E+00  0.18899723964E+03  0.18899723964E+03  0.00000000000E+00 0. -1.
         21   -1    0    0  501  502  0.00000000000E+00 -0.00000000000E+00 -0.13883619177E+03  0.13883619177E+03  0.00000000000E+00 0. -1.
         23    2    1    2    0    0 -0.37769957665E+02  0.42677509074E+02  0.13789888855E+03  0.17324457855E+03  0.88032045579E+02 0.  0.
         23    2    1    2    0    0  0.24418640419E+02 -0.15192118651E+02 -0.73303412696E+02  0.12079451798E+03  0.91601609117E+02 0.  0.
        -11    1    3    3    0    0 -0.43005319475E+02 -0.16030828281E+02  0.62498766341E+02  0.77540574879E+02  0.00000000000E+00 0. -1.
         11    1    3    3    0    0  0.52353618104E+01  0.58708337355E+02  0.75400122211E+02  0.95704003666E+02  0.00000000000E+00 0.  1.
        -13    1    4    4    0    0 -0.32332387711E+02 -0.37524882999E+01 -0.47088420840E+02  0.57243199079E+02  0.00000000000E+00 0.  1.
         13    1    4    4    0    0  0.56751028130E+02 -0.11439630351E+02 -0.26214991856E+02  0.63551318904E+02  0.00000000000E+00 0. -1.
          3    1    1    2  501    0  0.13351317246E+02 -0.27485390423E+02 -0.14434427981E+02  0.33794334881E+02  0.00000000000E+00 0. -1.
<scales pt_clust_5="13000.00000" pt_clust_6="13000.00000" pt_clust_7="13000.00000" pt_clust_8="13000.00000" pt_clust_9="30.55658"></scales>
<clustering>
<clus scale="   30.557">  2  9  1 -1</clus>
<clus scale="   88.032">  5  6 -1 -1</clus>
<clus scale="   91.602">  7  8 -1 -1</clus>
<clus scale="  102.484">  1  5  2 -1</clus>
<clus scale="   30.557">  2  5  1 -1</clus>
</clustering>
</event>
<event>
 9    1  0.1445593E-005  0.1412042E+03  0.7546771E-02  0.1211841E+00
          1   -1    0    0  502    0 -0.00000000000E+00  0.00000000000E+00  0.56241929340E+03  0.56241929340E+03  0.00000000000E+00 0. -1.
         21   -1    0    0  501  502  0.00000000000E+00 -0.00000000000E+00 -0.10261278381E+03  0.10261278381E+03  0.00000000000E+00 0. -1.
         23    2    1    2    0    0 -0.50377803060E+02  0.11864006654E+03  0.34975167995E+03  0.38409375976E+03  0.92673568115E+02 0.  0.
         23    2    1    2    0    0  0.40671750826E+02 -0.69713125621E+02  0.16580646482E+03  0.20612991001E+03  0.92106703484E+02 0.  0.
        -11    1    3    3    0    0 -0.12716274081E+02  0.56670765218E+02  0.53057790113E+02  0.78666437243E+02  0.00000000000E+00 0.  1.
         11    1    3    3    0    0 -0.37661528979E+02  0.61969301318E+02  0.29669388984E+03  0.30542732252E+03  0.00000000000E+00 0. -1.
        -13    1    4    4    0    0  0.60191726661E+02 -0.58227991115E+02  0.16306921179E+03  0.18331696795E+03  0.00000000000E+00 0.  1.
         13    1    4    4    0    0 -0.19519975834E+02 -0.11485134507E+02  0.27372530354E+01  0.22812942059E+02  0.00000000000E+00 0. -1.
          1    1    1    2  501    0  0.97060522337E+01 -0.48926940914E+02 -0.55751635181E+02  0.74808407432E+02  0.00000000000E+00 0. -1.
<scales pt_clust_5="13000.00000" pt_clust_6="13000.00000" pt_clust_7="13000.00000" pt_clust_8="13000.00000" pt_clust_9="49.88039"></scales>
<clustering>
<clus scale="   49.880">  2  9  1 -1</clus>
<clus scale="   92.107">  7  8 -1 -1</clus>
<clus scale="   92.674">  5  6 -1 -1</clus>
<clus scale="  140.833">  2  7  1 -1</clus>
<clus scale="   49.880">  2  5  1 -1</clus>
</clustering>
</event>
<event>
 9    1  0.1445593E-005  0.9216717E+02  0.7546771E-02  0.1313148E+00
         21   -1    0    0  501  502  0.00000000000E+00  0.00000000000E+00  0.72188818181E+02  0.72188818181E+02  0.00000000000E+00 0. -1.
         -1   -1    0    0    0  501 -0.00000000000E+00 -0.00000000000E+00 -0.49487319524E+03  0.49487319524E+03  0.00000000000E+00 0.  1.
         23    2    1    2    0    0 -0.79396621525E+01  0.26301053286E+01 -0.42670968559E+03  0.43648589421E+03  0.91481278803E+02 0.  0.
         23    2    1    2    0    0  0.11997705491E+02 -0.29964960168E+02 -0.34418544085E+02  0.83230667383E+02  0.68562847382E+02 0.  0.
        -13    1    4    4    0    0 -0.63187636695E+01 -0.47445646772E+02 -0.32465404843E+02  0.57836136485E+02  0.00000000000E+00 0.  1.
         13    1    4    4    0    0  0.18316469160E+02  0.17480686604E+02 -0.19531392421E+01  0.25394530898E+02  0.00000000000E+00 0. -1.
        -13    1    3    3    0    0 -0.36298693123E+02  0.33382935704E+02 -0.20351821287E+03  0.20940792365E+03  0.00000000000E+00 0. -1.
         13    1    3    3    0    0  0.28359030970E+02 -0.30752830376E+02 -0.22319147273E+03  0.22707797056E+03  0.00000000000E+00 0.  1.
         -1    1    1    2    0  502 -0.40580433382E+01  0.27334854839E+02  0.38443852621E+02  0.47345451832E+02  0.00000000000E+00 0.  1.
<scales pt_clust_5="13000.00000" pt_clust_6="13000.00000" pt_clust_7="13000.00000" pt_clust_8="13000.00000" pt_clust_9="27.63444"></scales>
<clustering>
<clus scale="   27.634">  1  9  2 -1</clus>
<clus scale="   68.563">  5  6 -1 -1</clus>
<clus scale="   69.475">  1  5  2 -1</clus>
<clus scale="   91.481">  7  8 -1 -1</clus>
<clus scale="   27.634">  1  5  2 -1</clus>
</clustering>
</event>
<event>
 9    1  0.1445593E-005  0.1032622E+03  0.7546771E-02  0.1275210E+00
          2   -1    0    0  502    0 -0.00000000000E+00  0.00000000000E+00  0.94577999189E+03  0.94577999189E+03  0.00000000000E+00 0. -1.
         21   -1    0    0  501  502  0.00000000000E+00 -0.00000000000E+00 -0.24878973899E+02  0.24878973899E+02  0.00000000000E+00 0.  1.
         23    2    1    2    0    0 -0.51817732837E+02  0.31817131533E+02  0.52885755329E+03  0.54008609873E+03  0.91133281936E+02 0.  0.
         23    2    1    2    0    0  0.14053339114E+02  0.18102695663E+01  0.97744062292E+02  0.13196092859E+03  0.87515778831E+02 0.  0.
        -11    1    3    3    0    0  0.24607003581E+02  0.19012436484E+02  0.12095394704E+03  0.12488728787E+03  0.00000000000E+00 0. -1.
         11    1    3    3    0    0 -0.76424736418E+02  0.12804695049E+02  0.40790360624E+03  0.41519881086E+03  0.00000000000E+00 0.  1.
        -11    1    4    4    0    0 -0.14801843241E+02  0.32866531301E+02  0.15104774470E+02  0.39082702758E+02  0.00000000000E+00 0.  1.
         11    1    4    4    0    0  0.28855182354E+02 -0.31056261735E+02  0.82639287822E+02  0.92878225830E+02  0.00000000000E+00 0. -1.
          2    1    1    2  501    0  0.37764393723E+02 -0.33627401099E+02  0.29429940241E+03  0.29861193847E+03  0.00000000000E+00 0. -1.
<scales pt_clust_5="13000.00000" pt_clust_6="13000.00000" pt_clust_7="13000.00000" pt_clust_8="13000.00000" pt_clust_9="50.56633"></scales>
<clustering>
<clus scale="   50.566">  2  9  1 -1</clus>
<clus scale="   87.516">  7  8 -1 -1</clus>
<clus scale="   91.133">  5  6 -1 -1</clus>
<clus scale="  100.084">  2  7  1 -1</clus>
<clus scale="   50.566">  2  5  1 -1</clus>
</clustering>
</event>
<event>
 9    1  0.1445593E-005  0.9241533E+02  0.7546771E-02  0.1302295E+00
         21   -1    0    0  501  502  0.00000000000E+00  0.00000000000E+00  0.66349236333E+02  0.66349236333E+02  0.00000000000E+00 0. -1.
          2   -1    0    0  502    0 -0.00000000000E+00 -0.00000000000E+00 -0.28859480558E+03  0.28859480558E+03  0.00000000000E+00 0. -1.
         23    2    1    2    0    0 -0.19710228719E+01  0.54167634486E+01 -0.20527843115E+03  0.22183836246E+03  0.83903507109E+02 0.  0.
         23    2    1    2    0    0  0.12078111987E+02  0.24492690410E+02  0.19177130143E+01  0.96317552537E+02  0.92345116984E+02 0.  0.
        -13    1    3    3    0    0 -0.14074093785E+02 -0.37071979171E+02 -0.10598076418E+03  0.11315623771E+03  0.00000000000E+00 0. -1.
         13    1    3    3    0    0  0.12103070913E+02  0.42488742620E+02 -0.99297666963E+02  0.10868212475E+03  0.00000000000E+00 0.  1.
        -13    1    4    4    0    0  0.19869912140E+02 -0.12114062719E+02 -0.36111426050E+02  0.42960435465E+02  0.00000000000E+00 0.  1.
         13    1    4    4    0    0 -0.77918001528E+01  0.36606753129E+02  0.38029139064E+02  0.53357117072E+02  0.00000000000E+00 0. -1.
          2    1    1    2  501    0 -0.10107089116E+02 -0.29909453859E+02 -0.18884851111E+02  0.36788126916E+02  0.00000000000E+00 0. -1.
<scales pt_clust_5="13000.00000" pt_clust_6="13000.00000" pt_clust_7="13000.00000" pt_clust_8="13000.00000" pt_clust_9="31.57101"></scales>
<clustering>
<clus scale="   31.571">  1  9  2 -1</clus>
<clus scale="   83.904">  5  6 -1 -1</clus>
<clus scale="   83.981">  2  5  1 -1</clus>
<clus scale="   92.345">  7  8 -1 -1</clus>
<clus scale="   31.571">  1  5  2 -1</clus>
</clustering>
</event>
<event>
 9    1  0.1445593E-005  0.1019489E+03  0.7546771E-02  0.1277174E+00
         21   -1    0    0  501  502  0.00000000000E+00  0.00000000000E+00  0.44741269602E+03  0.44741269602E+03  0.00000000000E+00 0.  1.
          3   -1    0    0  502    0 -0.00000000000E+00 -0.00000000000E+00 -0.43700829048E+02  0.43700829048E+02  0.00000000000E+00 0. -1.
         23    2    1    2    0    0  0.57189938602E+02 -0.80195613292E+01  0.72798204976E+02  0.12975168478E+03  0.90558923437E+02 0.  0.
         23    2    1    2    0    0 -0.60605891964E+01  0.62192895368E+01  0.23383823743E+03  0.25162994245E+03  0.92530515767E+02 0.  0.
        -11    1    3    3    0    0  0.25644062800E+02 -0.48882966798E+02  0.44340409739E+02  0.70804197162E+02  0.00000000000E+00 0.  1.
         11    1    3    3    0    0  0.31545875802E+02  0.40863405469E+02  0.28457795236E+02  0.58947487617E+02  0.00000000000E+00 0. -1.
        -13    1    4    4    0    0  0.39294599875E+02 -0.14090443596E+02  0.12949230864E+03  0.13605463673E+03  0.00000000000E+00 0.  1.
         13    1    4    4    0    0 -0.45355189072E+02  0.20309733132E+02  0.10434592879E+03  0.11557530571E+03  0.00000000000E+00 0. -1.
          3    1    1    2  501    0 -0.51129349406E+02  0.18002717924E+01  0.97075424568E+02  0.10973189784E+03  0.00000000000E+00 0. -1.
<scales pt_clust_5="13000.00000" pt_clust_6="13000.00000" pt_clust_7="13000.00000" pt_clust_8="13000.00000" pt_clust_9="51.16103"></scales>
<clustering>
<clus scale="   51.161">  1  9  2 -1</clus>
<clus scale="   90.559">  5  6 -1 -1</clus>
<clus scale="   92.531">  7  8 -1 -1</clus>
<clus scale="  100.163">  2  5  1 -1</clus>
<clus scale="   51.161">  1  5  2 -1</clus>
</clustering>
</event>
<event>
 9    1  0.1445593E-005  0.9544448E+02  0.7546771E-02  0.1292031E+00
          2   -1    0    0  502    0 -0.00000000000E+00  0.00000000000E+00  0.40957426784E+03  0.40957426784E+03  0.00000000000E+00 0. -1.
         21   -1    0    0  501  502  0.00000000000E+00 -0.00000000000E+00 -0.34161153314E+02  0.34161153314E+02  0.00000000000E+00 0.  1.
         23    2    1    2    0    0 -0.97871205487E+01  0.13918613754E+02  0.25131836275E+03  0.26926483435E+03  0.95147864007E+02 0.  0.
         23    2    1    2    0    0 -0.33061320214E+01  0.11962298976E+02  0.10312645561E+03  0.13868058330E+03  0.91886948105E+02 0.  0.
        -11    1    3    3    0    0 -0.49233953861E+02 -0.64808077724E+01  0.10139296155E+03  0.11290046826E+03  0.00000000000E+00 0. -1.
         11    1    3    3    0    0  0.39446833312E+02  0.20399421526E+02  0.14992540120E+03  0.15636436609E+03  0.00000000000E+00 0.  1.
        -13    1    4    4    0    0  0.70624247023E+01 -0.25313265775E+02  0.95752496722E+02  0.99293403081E+02  0.00000000000E+00 0. -1.
         13    1    4    4    0    0 -0.10368556724E+02  0.37275564751E+02  0.73739588893E+01  0.39387180220E+02  0.00000000000E+00 0.  1.
          2    1    1    2  501    0  0.13093252570E+02 -0.25880912730E+02  0.20968296163E+02  0.35790003500E+02  0.00000000000E+00 0. -1.
<scales pt_clust_5="13000.00000" pt_clust_6="13000.00000" pt_clust_7="13000.00000" pt_clust_8="13000.00000" pt_clust_9="29.00439"></scales>
<clustering>
<clus scale="   29.004">  2  9  1 -1</clus>
<clus scale="   91.887">  7  8 -1 -1</clus>
<clus scale="   92.194">  2  7  1 -1</clus>
<clus scale="   95.148">  5  6 -1 -1</clus>
<clus scale="   29.004">  2  5  1 -1</clus>
</clustering>
</event>
<event>
 9    1  0.1445593E-005  0.1929715E+03  0.7546771E-02  0.1181344E+00
         21   -1    0    0  501  502  0.00000000000E+00  0.00000000000E+00  0.10996069028E+03  0.10996069028E+03  0.00000000000E+00 0. -1.
          2   -1    0    0  502    0 -0.00000000000E+00 -0.00000000000E+00 -0.59084513647E+03  0.59084513647E+03  0.00000000000E+00 0. -1.
         23    2    1    2    0    0 -0.53245788571E+02  0.16637693077E+02 -0.48560356817E+02  0.11790300615E+03  0.91820933195E+02 0.  0.
         23    2    1    2    0    0 -0.31032182012E+02 -0.16654178547E+03 -0.33132464608E+03  0.38346636258E+03  0.92581140094E+02 0.  0.
        -11    1    3    3    0    0 -0.31832741590E+02  0.49258318380E+02 -0.41652079304E+01  0.58796720349E+02  0.00000000000E+00 0.  1.
         11    1    3    3    0    0 -0.21413046981E+02 -0.32620625302E+02 -0.44395148886E+02  0.59106285797E+02  0.00000000000E+00 0. -1.
        -13    1    4    4    0    0 -0.40511013287E+02 -0.12467157556E+03 -0.30771270615E+03  0.33447160339E+03  0.00000000000E+00 0. -1.
         13    1    4    4    0    0  0.94788312755E+01 -0.41870209912E+02 -0.23611939930E+02  0.48994759186E+02  0.00000000000E+00 0.  1.
          2    1    1    2  501    0  0.84277970582E+02  0.14990409239E+03 -0.10099944329E+03  0.19943645802E+03  0.00000000000E+00 0. -1.
<scales pt_clust_5="13000.00000" pt_clust_6="13000.00000" pt_clust_7="13000.00000" pt_clust_8="13000.00000" pt_clust_9="169.31253"></scales>
<clustering>
<clus scale="   91.821">  5  6 -1 -1</clus>
<clus scale="   92.581">  7  8 -1 -1</clus>
<clus scale="  107.438">  2  5  1 -1</clus>
<clus scale="  169.313">  1  9  2 -1</clus>
<clus scale="  169.313">  1  5  2 -1</clus>
</clustering>
</event>
<event>
 9    1  0.1445593E-005  0.1345589E+03  0.7546771E-02  0.1222596E+00
         21   -1    0    0  501  502  0.00000000000E+00  0.00000000000E+00  0.50517942514E+02  0.50517942514E+02  0.00000000000E+00 0. -1.
         -1   -1    0    0    0  501 -0.00000000000E+00 -0.00000000000E+00 -0.63673141754E+03  0.63673141754E+03  0.00000000000E+00 0.  1.
         23    2    1    2    0    0  0.70274637118E+02  0.53543742387E+02 -0.45702265666E+03  0.47554899465E+03  0.97322559760E+02 0.  0.
         23    2    1    2    0    0 -0.83756858502E+02 -0.68652917603E+02 -0.12936020417E+03  0.19144978120E+03  0.90501501968E+02 0.  0.
        -11    1    3    3    0    0  0.88177588560E+02  0.20460148931E+02 -0.36667617022E+03  0.37768415194E+03  0.00000000000E+00 0.  1.
         11    1    3    3    0    0 -0.17902951441E+02  0.33083593456E+02 -0.90346486442E+02  0.97864842711E+02  0.00000000000E+00 0. -1.
        -13    1    4    4    0    0 -0.50438095160E+02 -0.25642645701E+02 -0.12458819052E+03  0.13683480529E+03  0.00000000000E+00 0.  1.
         13    1    4    4    0    0 -0.33318763343E+02 -0.43010271902E+02 -0.47720136497E+01  0.54614975913E+02  0.00000000000E+00 0. -1.
         -1    1    1    2    0  502  0.13482221384E+02  0.15109175216E+02  0.16938580060E+00  0.20250584207E+02  0.00000000000E+00 0.  1.
<scales pt_clust_5="13000.00000" pt_clust_6="13000.00000" pt_clust_7="13000.00000" pt_clust_8="13000.00000" pt_clust_9="20.24988"></scales>
<clustering>
<clus scale="   20.250">  1  9  2 -1</clus>
<clus scale="   90.502">  7  8 -1 -1</clus>
<clus scale="   97.323">  5  6 -1 -1</clus>
<clus scale="  129.711">  1  7  2 -1</clus>
<clus scale="   20.250">  1  5  2 -1</clus>
</clustering>
</event>
<event>
 9    1  0.1445593E-005  0.9462811E+02  0.7546771E-02  0.1302318E+00
         21   -1    0    0  501  502  0.00000000000E+00  0.00000000000E+00  0.12650707309E+03  0.12650707309E+03  0.00000000000E+00 0.  1.
         -4   -1    0    0    0  501 -0.00000000000E+00 -0.00000000000E+00 -0.21202596006E+03  0.21202596006E+03  0.00000000000E+00 0.  1.
         23    2    1    2    0    0 -0.28864856350E+02 -0.48190394435E+01 -0.15665210468E+03  0.17518737773E+03  0.72762162843E+02 0.  0.
         23    2    1    2    0    0  0.27173194658E+02 -0.25176572318E+02  0.13609790042E+02  0.98449252007E+02  0.90193051474E+02 0.  0.
        -11    1    3    3    0    0 -0.37000964970E+02  0.23272212394E+02 -0.60177969315E+02  0.74377787473E+02  0.00000000000E+00 0.  1.
         11    1    3    3    0    0  0.81361086200E+01 -0.28091251837E+02 -0.96474135366E+02  0.10080959026E+03  0.00000000000E+00 0. -1.
        -11    1    4    4    0    0  0.39475479577E+02 -0.12565486337E+01  0.43150865356E+02  0.58496919434E+02  0.00000000000E+00 0. -1.
         11    1    4    4    0    0 -0.12302284919E+02 -0.23920023684E+02 -0.29541075314E+02  0.39952332573E+02  0.00000000000E+00 0.  1.
         -4    1    1    2    0  502  0.16916616924E+01  0.29995611761E+02  0.57523427670E+02  0.64896403407E+02  0.00000000000E+00 0.  1.
<scales pt_clust_5="13000.00000" pt_clust_6="13000.00000" pt_clust_7="13000.00000" pt_clust_8="13000.00000" pt_clust_9="30.04328"></scales>
<clustering>
<clus scale="   30.043">  1  9  2 -1</clus>
<clus scale="   72.762">  5  6 -1 -1</clus>
<clus scale="   78.192">  2  5  1 -1</clus>
<clus scale="   90.193">  7  8 -1 -1</clus>
<clus scale="   30.043">  1  5  2 -1</clus>
</clustering>
</event>
<event>
 9    1  0.1445593E-005  0.1086607E+03  0.7546771E-02  0.1264506E+00
          2   -1    0    0  502    0 -0.00000000000E+00  0.00000000000E+00  0.63652235190E+03  0.63652235190E+03  0.00000000000E+00 0. -1.
         21   -1    0    0  501  502  0.00000000000E+00 -0.00000000000E+00 -0.27387750383E+02  0.27387750383E+02  0.00000000000E+00 0. -1.
         23    2    1    2    0    0 -0.10067647405E+02  0.62602429983E+02  0.44063451944E+03  0.45423511100E+03  0.90279203467E+02 0.  0.
         23    2    1    2    0    0  0.26277692748E+02 -0.49126561379E+02  0.14761645541E+03  0.18000193166E+03  0.86637990072E+02 0.  0.
        -11    1    3    3    0    0  0.21749321453E+02  0.70335720965E+02  0.35501168777E+03  0.36256509082E+03  0.00000000000E+00 0. -1.
         11    1    3    3    0    0 -0.31816968858E+02 -0.77332909819E+01  0.85622831676E+02  0.91670020186E+02  0.00000000000E+00 0.  1.
        -11    1    4    4    0    0 -0.26538814629E+02 -0.35807793552E+02  0.91603944295E+02  0.10187143550E+03  0.00000000000E+00 0.  1.
         11    1    4    4    0    0  0.52816507378E+02 -0.13318767827E+02  0.56012511111E+02  0.78130496152E+02  0.00000000000E+00 0. -1.
          2    1    1    2  501    0 -0.16210045344E+02 -0.13475868604E+02  0.20883626665E+02  0.29673059622E+02  0.00000000000E+00 0. -1.
<scales pt_clust_5="13000.00000" pt_clust_6="13000.00000" pt_clust_7="13000.00000" pt_clust_8="13000.00000" pt_clust_9="21.07996"></scales>
<clustering>
<clus scale="   21.080">  2  9  1 -1</clus>
<clus scale="   86.638">  7  8 -1 -1</clus>
<clus scale="   90.279">  5  6 -1 -1</clus>
<clus scale="  105.655">  2  7  1 -1</clus>
<clus scale="   21.080">  2  5  1 -1</clus>
</clustering>
</event>
<event>
 9    1  0.1445593E-005  0.9413215E+02  0.7546771E-02  0.1293185E+00
         21   -1    0    0  501  502  0.00000000000E+00  0.00000000000E+00  0.36260216948E+03  0.36260216948E+03  0.00000000000E+00 0.  1.
          1   -1    0    0  502    0 -0.00000000000E+00 -0.00000000000E+00 -0.63077910484E+02  0.63077910484E+02  0.00000000000E+00 0. -1.
         23    2    1    2    0    0 -0.62565488167E+01 -0.89945320284E+01  0.28909009411E+02  0.97342234340E+02  0.92302403824E+02 0.  0.
         23    2    1    2    0    0  0.12300365639E+02  0.51456729237E+02  0.26442813491E+03  0.28500372164E+03  0.92226833612E+02 0.  0.
        -11    1    4    4    0    0 -0.51642459689E+01  0.71763287998E+02  0.23223921396E+03  0.24312896051E+03  0.00000000000E+00 0.  1.
         11    1    4    4    0    0  0.17464611608E+02 -0.20306558761E+02  0.32188920953E+02  0.41874761127E+02  0.00000000000E+00 0. -1.
        -11    1    3    3    0    0 -0.34632722816E+02 -0.32140166444E+02 -0.49011182333E+01  0.47501965734E+02  0.00000000000E+00 0.  1.
         11    1    3    3    0    0  0.28376174000E+02  0.23145634415E+02  0.33810127644E+02  0.49840268605E+02  0.00000000000E+00 0. -1.
          1    1    1    2  501    0 -0.60438168220E+01 -0.42462197209E+02  0.61871146764E+01  0.43334123985E+02  0.00000000000E+00 0. -1.
<scales pt_clust_5="13000.00000" pt_clust_6="13000.00000" pt_clust_7="13000.00000" pt_clust_8="13000.00000" pt_clust_9="42.89018"></scales>
<clustering>
<clus scale="   42.890">  1  9  2 -1</clus>
<clus scale="   92.227">  5  6 -1 -1</clus>
<clus scale="   92.302">  7  8 -1 -1</clus>
<clus scale="   94.058">  1  5  2 -1</clus>
<clus scale="   42.890">  1  5  2 -1</clus>
</clustering>
</event>
<event>
 9    1  0.1997422E-005  0.1466183E+03  0.7546771E-02  0.1218039E+00
          1   -1    0    0  502    0 -0.00000000000E+00  0.00000000000E+00  0.18145315250E+03  0.18145315250E+03  0.00000000000E+00 0. -1.
         21   -1    0    0  501  502  0.00000000000E+00 -0.00000000000E+00 -0.61792356956E+03  0.61792356956E+03  0.00000000000E+00 0. -1.
         23    2    1    2    0    0 -0.54179208404E+02  0.22324508687E+02  0.63486026501E+02  0.12729024697E+03  0.93480271193E+02 0.  0.
         23    2    1    2    0    0 -0.60290791074E+02 -0.49014553724E+02  0.34074567582E+02  0.12527310643E+03  0.92167614024E+02 0.  0.
        -13    1    4    4    0    0 -0.87324578791E+01  0.18443695807E+02 -0.16678479918E+02  0.26355216334E+02  0.00000000000E+00 0.  1.
         13    1    4    4    0    0 -0.51558333195E+02 -0.67458249531E+02  0.50753047500E+02  0.98917890101E+02  0.00000000000E+00 0. -1.
        -13    1    3    3    0    0  0.24242768129E+02  0.26127563811E+01 -0.16299269354E+00  0.24383700890E+02  0.00000000000E+00 0.  1.
         13    1    3    3    0    0 -0.78421976533E+02  0.19711752306E+02  0.63649019194E+02  0.10290654608E+03  0.00000000000E+00 0. -1.
          1    1    1    2  501    0  0.11446999948E+03  0.26690045037E+02 -0.53403101113E+03  0.54681336865E+03  0.00000000000E+00 0. -1.
<scales pt_clust_5="13000.00000" pt_clust_6="13000.00000" pt_clust_7="13000.00000" pt_clust_8="13000.00000" pt_clust_9="114.02660"></scales>
<clustering>
<clus scale="   92.168">  5  6 -1 -1</clus>
<clus scale="   93.480">  7  8 -1 -1</clus>
<clus scale="  110.328">  1  7  2 -1</clus>
<clus scale="  114.027">  2  9  1 -1</clus>
<clus scale="  114.027">  2  5  1 -1</clus>
</clustering>
</event>
<event>
 9    1  0.1445593E-005  0.1300794E+03  0.7546771E-02  0.1228153E+00
         21   -1    0    0  501  502  0.00000000000E+00  0.00000000000E+00  0.45102095589E+03  0.45102095589E+03  0.00000000000E+00 0. -1.
          1   -1    0    0  502    0 -0.00000000000E+00 -0.00000000000E+00 -0.64159030815E+02  0.64159030815E+02  0.00000000000E+00 0. -1.
         23    2    1    2    0    0  0.11248035892E+03 -0.19062609079E+02  0.10298165793E+03  0.17904362915E+03  0.91848707464E+02 0.  0.
         23    2    1    2    0    0 -0.64612258189E+02  0.30058157178E+02  0.12144220595E+03  0.16643550054E+03  0.88737420138E+02 0.  0.
        -11    1    3    3    0    0  0.13245097283E+02 -0.31535338851E+02  0.62297343610E+02  0.71069467560E+02  0.00000000000E+00 0.  1.
         11    1    3    3    0    0  0.99235261637E+02  0.12472729771E+02  0.40684314321E+02  0.10797416159E+03  0.00000000000E+00 0. -1.
        -11    1    4    4    0    0 -0.43092161616E+02  0.55569495416E+02  0.11111782796E+03  0.13149933423E+03  0.00000000000E+00 0. -1.
         11    1    4    4    0    0 -0.21520096573E+02 -0.25511338238E+02  0.10324377988E+02  0.34936166304E+02  0.00000000000E+00 0.  1.
          1    1    1    2  501    0 -0.47868100731E+02 -0.10995548099E+02  0.16243806120E+03  0.16970085701E+03  0.00000000000E+00 0. -1.
<scales pt_clust_5="13000.00000" pt_clust_6="13000.00000" pt_clust_7="13000.00000" pt_clust_8="13000.00000" pt_clust_9="49.11473"></scales>
<clustering>
<clus scale="   49.115">  1  9  2 -1</clus>
<clus scale="   88.737">  7  8 -1 -1</clus>
<clus scale="   91.849">  5  6 -1 -1</clus>
<clus scale="  127.902">  1  7  2 -1</clus>
<clus scale="   49.115">  1  5  2 -1</clus>
</clustering>
</event>
<event>
 9    1  0.1445593E-005  0.2119365E+03  0.7546771E-02  0.1172649E+00
         21   -1    0    0  501  502  0.00000000000E+00  0.00000000000E+00  0.16304462978E+03  0.16304462978E+03  0.00000000000E+00 0. -1.
          2   -1    0    0  502    0 -0.00000000000E+00 -0.00000000000E+00 -0.48382524131E+03  0.48382524131E+03  0.00000000000E+00 0. -1.
         23    2    1    2    0    0 -0.38546181275E+02 -0.12855651669E+02 -0.16567940994E+03  0.19285527111E+03  0.89957839276E+02 0.  0.
         23    2    1    2    0    0 -0.55789216717E+02  0.18071844028E+03 -0.83029377461E+01  0.21188485505E+03  0.95155985959E+02 0.  0.
        -11    1    4    4    0    0 -0.73086097736E+02  0.16929779139E+03  0.93819614506E+01  0.18463840622E+03  0.00000000000E+00 0. -1.
         11    1    4    4    0    0  0.17296881019E+02  0.11420648894E+02 -0.17684899197E+02  0.27246448828E+02  0.00000000000E+00 0.  1.
        -13    1    3    3    0    0 -0.57916973728E+02  0.19380266836E+02 -0.10473192350E+03  0.12123838661E+03  0.00000000000E+00 0.  1.
         13    1    3    3    0    0  0.19370792454E+02 -0.32235918505E+02 -0.60947486442E+02  0.71616884502E+02  0.00000000000E+00 0. -1.
          2    1    1    2  501    0  0.94335397992E+02 -0.16786278861E+03 -0.14679826384E+03  0.24212974493E+03  0.00000000000E+00 0. -1.
<scales pt_clust_5="13000.00000" pt_clust_6="13000.00000" pt_clust_7="13000.00000" pt_clust_8="13000.00000" pt_clust_9="189.37385"></scales>
<clustering>
<clus scale="   89.958">  7  8 -1 -1</clus>
<clus scale="   95.156">  5  6 -1 -1</clus>
<clus scale="   98.709">  2  7  1 -1</clus>
<clus scale="  189.374">  1  9  2 -1</clus>
<clus scale="  189.374">  1  5  2 -1</clus>
</clustering>
</event>
<event>
 9    1  0.1445593E-005  0.2421753E+03  0.7546771E-02  0.1150904E+00
         21   -1    0    0  501  502  0.00000000000E+00  0.00000000000E+00  0.30593802857E+03  0.30593802857E+03  0.00000000000E+00 0.  1.
         -1   -1    0    0    0  501 -0.00000000000E+00 -0.00000000000E+00 -0.33619716959E+03  0.33619716959E+03  0.00000000000E+00 0.  1.
         23    2    1    2    0    0  0.61377042678E+02 -0.10328970931E+00 -0.89147939556E+02  0.14126602262E+03  0.90783159133E+02 0.  0.
         23    2    1    2    0    0  0.11032372088E+02  0.21725897913E+03 -0.58295243993E+02  0.24370810419E+03  0.93124257455E+02 0.  0.
        -11    1    3    3    0    0  0.33333372188E+02 -0.25776481474E+02  0.23299945962E+01  0.42201535202E+02  0.00000000000E+00 0. -1.
         11    1    3    3    0    0  0.28043670489E+02  0.25673191764E+02 -0.91477934152E+02  0.99064487414E+02  0.00000000000E+00 0.  1.
        -13    1    4    4    0    0  0.29842463119E+02  0.37989024162E+02 -0.39641295454E+02  0.62491366340E+02  0.00000000000E+00 0. -1.
         13    1    4    4    0    0 -0.18810091031E+02  0.17926995497E+03 -0.18653948538E+02  0.18121673785E+03  0.00000000000E+00 0.  1.
         -1    1    1    2    0  502 -0.72409414765E+02 -0.21715568942E+03  0.11718404253E+03  0.25716107135E+03  0.00000000000E+00 0.  1.
<scales pt_clust_5="13000.00000" pt_clust_6="13000.00000" pt_clust_7="13000.00000" pt_clust_8="13000.00000" pt_clust_9="223.55477"></scales>
<clustering>
<clus scale="   90.783">  5  6 -1 -1</clus>
<clus scale="   93.124">  7  8 -1 -1</clus>
<clus scale="  109.584">  2  5  1 -1</clus>
<clus scale="  223.555">  1  9  2 -1</clus>
<clus scale="  223.555">  1  5  2 -1</clus>
</clustering>
</event>
<event>
 9    1  0.1445593E-005  0.9346785E+02  0.7546771E-02  0.1295334E+00
         21   -1    0    0  501  502  0.00000000000E+00  0.00000000000E+00  0.10483477115E+03  0.10483477115E+03  0.00000000000E+00 0. -1.
          3   -1    0    0  502    0 -0.00000000000E+00 -0.00000000000E+00 -0.15770123742E+03  0.15770123742E+03  0.00000000000E+00 0. -1.
         23    2    1    2    0    0  0.96133378512E+01  0.19347066999E+02 -0.65798489124E+02  0.11412356446E+03  0.90708442431E+02 0.  0.
         23    2    1    2    0    0  0.30114278863E+02 -0.26657603982E+02 -0.15032944983E+02  0.99282342266E+02  0.89518134529E+02 0.  0.
        -11    1    3    3    0    0 -0.34518719138E+02  0.29408908944E+02 -0.19462878386E+02  0.49348044858E+02  0.00000000000E+00 0. -1.
         11    1    3    3    0    0  0.44132056989E+02 -0.10061841945E+02 -0.46335610738E+02  0.64775519604E+02  0.00000000000E+00 0.  1.
        -13    1    4    4    0    0 -0.18490793535E+02 -0.14882265461E+02 -0.37560373572E+02  0.44431665889E+02  0.00000000000E+00 0.  1.
         13    1    4    4    0    0  0.48605072399E+02 -0.11775338521E+02  0.22527428589E+02  0.54850676377E+02  0.00000000000E+00 0. -1.
          3    1    1    2  501    0 -0.39727616715E+02  0.73105369828E+01  0.27964967836E+02  0.49130101840E+02  0.00000000000E+00 0. -1.
<scales pt_clust_5="13000.00000" pt_clust_6="13000.00000" pt_clust_7="13000.00000" pt_clust_8="13000.00000" pt_clust_9="40.39465"></scales>
<clustering>
<clus scale="   40.395">  1  9  2 -1</clus>
<clus scale="   89.518">  7  8 -1 -1</clus>
<clus scale="   90.708">  5  6 -1 -1</clus>
<clus scale="   92.313">  1  7  2 -1</clus>
<clus scale="   40.395">  1  5  2 -1</clus>
</clustering>
</event>
<event>
 9    1  0.1445593E-005  0.1055983E+03  0.7546771E-02  0.1269454E+00
         21   -1    0    0  501  502  0.00000000000E+00  0.00000000000E+00  0.36221866070E+02  0.36221866070E+02  0.00000000000E+00 0. -1.
          1   -1    0    0  502    0 -0.00000000000E+00 -0.00000000000E+00 -0.48129604671E+03  0.48129604671E+03  0.00000000000E+00 0. -1.
         23    2    1    2    0    0  0.28128465855E+02 -0.30625319703E+02 -0.19811181978E+03  0.22100568154E+03  0.88691021753E+02 0.  0.
         23    2    1    2    0    0 -0.50105613909E+02  0.63075662235E+02 -0.15436988003E+03  0.19596678244E+03  0.89910000828E+02 0.  0.
        -13    1    3    3    0    0  0.12760093827E+02 -0.52702426382E+02 -0.18141461552E+03  0.18934526259E+03  0.00000000000E+00 0.  1.
         13    1    3    3    0    0  0.15368372027E+02  0.22077106679E+02 -0.16697204256E+02  0.31660418949E+02  0.00000000000E+00 0. -1.
        -13    1    4    4    0    0  0.21979522891E+02 -0.32040281624E+01 -0.36491978864E+02  0.42720366857E+02  0.00000000000E+00 0.  1.
         13    1    4    4    0    0 -0.72085136800E+02  0.66279690397E+02 -0.11787790116E+03  0.15324641558E+03  0.00000000000E+00 0. -1.
          1    1    1    2  501    0  0.21977148054E+02 -0.32450342531E+02 -0.92592480837E+02  0.10054544880E+03  0.00000000000E+00 0. -1.
<scales pt_clust_5="13000.00000" pt_clust_6="13000.00000" pt_clust_7="13000.00000" pt_clust_8="13000.00000" pt_clust_9="39.19211"></scales>
<clustering>
<clus scale="   39.192">  1  9  2 -1</clus>
<clus scale="   88.691">  5  6 -1 -1</clus>
<clus scale="   89.910">  7  8 -1 -1</clus>
<clus scale="  104.562">  2  5  1 -1</clus>
<clus scale="   39.192">  1  5  2 -1</clus>
</clustering>
</event>
<event>
 9    1  0.1445593E-005  0.9251407E+02  0.7546771E-02  0.1297594E+00
          2   -1    0    0  502    0 -0.00000000000E+00  0.00000000000E+00  0.68150758649E+02  0.68150758649E+02  0.00000000000E+00 0. -1.
         21   -1    0    0  501  502  0.00000000000E+00 -0.00000000000E+00 -0.26239020663E+03  0.26239020663E+03  0.00000000000E+00 0.  1.
         23    2    1    2    0    0 -0.23971667844E+02 -0.11803119001E+02 -0.64871263099E+02  0.11535237748E+03  0.91563834216E+02 0.  0.
         23    2    1    2    0    0 -0.46092884234E+02  0.66230980163E+01 -0.73268871548E+02  0.12528304275E+03  0.90327702603E+02 0.  0.
        -11    1    4    4    0    0  0.25695598978E+02  0.17023070387E+01 -0.35957569089E+02  0.44227914611E+02  0.00000000000E+00 0.  1.
         11    1    4    4    0    0 -0.71788483213E+02  0.49207909776E+01 -0.37311302459E+02  0.81055128135E+02  0.00000000000E+00 0. -1.
        -11    1    3    3    0    0 -0.49316568375E+02 -0.56938093186E+01 -0.48097313353E+01  0.49876616729E+02  0.00000000000E+00 0. -1.
         11    1    3    3    0    0  0.25344900532E+02 -0.61093096827E+01 -0.60061531764E+02  0.65475760749E+02  0.00000000000E+00 0.  1.
          2    1    1    2  501    0  0.70064552078E+02  0.51800209849E+01 -0.56099313337E+02  0.89905545058E+02  0.00000000000E+00 0. -1.
<scales pt_clust_5="13000.00000" pt_clust_6="13000.00000" pt_clust_7="13000.00000" pt_clust_8="13000.00000" pt_clust_9="70.25578"></scales>
<clustering>
<clus scale="   70.256">  2  9  1 -1</clus>
<clus scale="   90.328">  5  6 -1 -1</clus>
<clus scale="   91.291">  2  5  1 -1</clus>
<clus scale="   91.564">  7  8 -1 -1</clus>
<clus scale="   70.256">  2  5  1 -1</clus>
</clustering>
</event>
<event>
 9    1  0.1445593E-005  0.1047591E+03  0.7546771E-02  0.1271031E+00
         -3   -1    0    0    0  501 -0.00000000000E+00  0.00000000000E+00  0.33827947168E+02  0.33827947168E+02  0.00000000000E+00 0.  1.
         21   -1    0    0  501  502  0.00000000000E+00 -0.00000000000E+00 -0.65629085192E+03  0.65629085192E+03  0.00000000000E+00 0. -1.
         23    2    1    2    0    0 -0.13191532012E+02  0.47815140275E+02 -0.78416104826E+02  0.12996822498E+03  0.91007416467E+02 0.  0.
         23    2    1    2    0    0  0.35141022140E+02 -0.43125830047E+02 -0.39288657465E+03  0.40733308999E+03  0.92009005016E+02 0.  0.
        -11    1    4    4    0    0 -0.72956231098E+01  0.24187702276E+02 -0.60680024790E+02  0.65729266438E+02  0.00000000000E+00 0.  1.
         11    1    4    4    0    0  0.42436645250E+02 -0.67313532322E+02 -0.33220654986E+03  0.34160382355E+03  0.00000000000E+00 0. -1.
        -11    1    3    3    0    0 -0.19763844380E+02  0.73913123000E+02 -0.61679501817E+02  0.98275735768E+02  0.00000000000E+00 0.  1.
         11    1    3    3    0    0  0.65723123677E+01 -0.26097982725E+02 -0.16736603008E+02  0.31692489212E+02  0.00000000000E+00 0. -1.
         -3    1    1    2    0  502 -0.21949490128E+02 -0.46893102283E+01 -0.15116022527E+03  0.15281748412E+03  0.00000000000E+00 0.  1.
<scales pt_clust_5="13000.00000" pt_clust_6="13000.00000" pt_clust_7="13000.00000" pt_clust_8="13000.00000" pt_clust_9="22.44482"></scales>
<clustering>
<clus scale="   22.445">  2  9  1 -1</clus>
<clus scale="   91.007">  7  8 -1 -1</clus>
<clus scale="   92.009">  5  6 -1 -1</clus>
<clus scale="  103.880">  1  7  2 -1</clus>
<clus scale="   22.445">  2  5  1 -1</clus>
</clustering>
</event>
<event>
 9    1  0.1445593E-005  0.9868423E+02  0.7546771E-02  0.1283392E+00
          2   -1    0    0  502    0 -0.00000000000E+00  0.00000000000E+00  0.26075282290E+03  0.26075282290E+03  0.00000000000E+00 0. -1.
         21   -1    0    0  501  502  0.00000000000E+00 -0.00000000000E+00 -0.32795067340E+03  0.32795067340E+03  0.00000000000E+00 0. -1.
         23    2    1    2    0    0  0.27351764266E+02 -0.14002242797E+02  0.22021830359E+03  0.24104864874E+03  0.93081512724E+02 0.  0.
         23    2    1    2    0    0  0.14826305470E+01  0.69927152944E+02 -0.11447427454E+03  0.16362248192E+03  0.93680052017E+02 0.  0.
        -13    1    4    4    0    0 -0.21508397653E+02  0.68228187402E+02 -0.12019163163E+03  0.13987038657E+03  0.00000000000E+00 0.  1.
         13    1    4    4    0    0  0.22991028200E+02  0.16989655425E+01  0.57173570856E+01  0.23752095353E+02  0.00000000000E+00 0. -1.
        -13    1    3    3    0    0  0.41273336774E+02  0.14036169372E+02  0.43522402792E+02  0.61601151969E+02  0.00000000000E+00 0.  1.
         13    1    3    3    0    0 -0.13921572509E+02 -0.28038412169E+02  0.17669590080E+03  0.17944749677E+03  0.00000000000E+00 0. -1.
          2    1    1    2  501    0 -0.28834394813E+02 -0.55924910147E+02 -0.17294187955E+03  0.18403236564E+03  0.00000000000E+00 0. -1.
<scales pt_clust_5="13000.00000" pt_clust_6="13000.00000" pt_clust_7="13000.00000" pt_clust_8="13000.00000" pt_clust_9="62.92073"></scales>
<clustering>
<clus scale="   62.921">  2  9  1 -1</clus>
<clus scale="   93.082">  7  8 -1 -1</clus>
<clus scale="   93.680">  5  6 -1 -1</clus>
<clus scale="   98.116">  1  7  2 -1</clus>
<clus scale="   62.921">  2  5  1 -1</clus>
</clustering>
</event>
<event>
 9    1  0.1445593E-005  0.1452155E+03  0.7546771E-02  0.1207121E+00
         21   -1    0    0  501  502  0.00000000000E+00  0.00000000000E+00  0.11593778249E+03  0.11593778249E+03  0.00000000000E+00 0.  1.
          2   -1    0    0  502    0 -0.00000000000E+00 -0.00000000000E+00 -0.84793746599E+03  0.84793746599E+03  0.00000000000E+00 0. -1.
         23    2    1    2    0    0 -0.10032509423E+03  0.29443176286E+02 -0.50659592467E+03  0.52563656514E+03  0.93393482441E+02 0.  0.
         23    2    1    2    0    0  0.18877534838E+03  0.24409013626E+02 -0.24332622038E+02  0.21206815505E+03  0.90271223494E+02 0.  0.
        -13    1    3    3    0    0 -0.30812626790E+02  0.53901412586E+02 -0.16776494667E+03  0.17888504012E+03  0.00000000000E+00 0.  1.
         13    1    3    3    0    0 -0.69512467444E+02 -0.24458236300E+02 -0.33883097800E+03  0.34675152502E+03  0.00000000000E+00 0. -1.
        -13    1    4    4    0    0  0.89055992963E+02  0.14791763896E+02 -0.56916437086E+02  0.10672041497E+03  0.00000000000E+00 0.  1.
         13    1    4    4    0    0  0.99719355412E+02  0.96172497298E+01  0.32583815048E+02  0.10534774008E+03  0.00000000000E+00 0. -1.
          2    1    1    2  501    0 -0.88450254142E+02 -0.53852189912E+02 -0.20107113679E+03  0.22617052828E+03  0.00000000000E+00 0. -1.
<scales pt_clust_5="13000.00000" pt_clust_6="13000.00000" pt_clust_7="13000.00000" pt_clust_8="13000.00000" pt_clust_9="103.55441"></scales>
<clustering>
<clus scale="   90.271">  7  8 -1 -1</clus>
<clus scale="   93.393">  5  6 -1 -1</clus>
<clus scale="  103.554">  1  9  2 -1</clus>
<clus scale="  143.227">  1  7  2 -1</clus>
<clus scale="  103.554">  1  5  2 -1</clus>
</clustering>
</event>
<event>
 9    1  0.1445593E-005  0.1242354E+03  0.7546771E-02  0.1240437E+00
          1   -1    0    0  502    0 -0.00000000000E+00  0.00000000000E+00  0.64600812814E+03  0.64600812814E+03  0.00000000000E+00 0. -1.
         21   -1    0    0  501  502  0.00000000000E+00 -0.00000000000E+00 -0.52035669963E+02  0.52035669963E+02  0.00000000000E+00 0.  1.
         23    2    1    2    0    0 -0.65374990507E+02  0.42247023469E+02  0.50324469278E+03  0.51674309778E+03  0.87803803528E+02 0.  0.
         23    2    1    2    0    0  0.47020585142E+02 -0.27409919968E+02  0.10368467867E+03  0.15437663230E+03  0.10059519308E+03 0.  0.
        -11    1    3    3    0    0  0.67019684340E+01  0.44702186875E+02  0.18957188719E+03  0.19488638307E+03  0.00000000000E+00 0.  1.
         11    1    3    3    0    0 -0.72076958941E+02 -0.24551634057E+01  0.31367280559E+03  0.32185671471E+03  0.00000000000E+00 0. -1.
        -13    1    4    4    0    0 -0.59743832416E+01 -0.29830093143E+02 -0.73692284662E+01  0.31302288099E+02  0.00000000000E+00 0.  1.
         13    1    4    4    0    0  0.52994968383E+02  0.24201731750E+01  0.11105390713E+03  0.12307434421E+03  0.00000000000E+00 0. -1.
          1    1    1    2  501    0  0.18354405365E+02 -0.14837103501E+02 -0.12956913278E+02  0.26924068012E+02  0.00000000000E+00 0. -1.
<scales pt_clust_5="13000.00000" pt_clust_6="13000.00000" pt_clust_7="13000.00000" pt_clust_8="13000.00000" pt_clust_9="23.60135"></scales>
<clustering>
<clus scale="   23.601">  2  9  1 -1</clus>
<clus scale="   87.804">  5  6 -1 -1</clus>
<clus scale="  100.595">  7  8 -1 -1</clus>
<clus scale="  114.125">  1  5  2 -1</clus>
<clus scale="   23.601">  2  5  1 -1</clus>
</clustering>
</event>
<event>
 9    1  0.1445593E-005  0.1049893E+03  0.7546771E-02  0.1270537E+00
          3   -1    0    0  502    0 -0.00000000000E+00  0.00000000000E+00  0.59196586287E+03  0.59196586287E+03  0.00000000000E+00 0. -1.
         21   -1    0    0  501  502  0.00000000000E+00 -0.00000000000E+00 -0.56728112809E+02  0.56728112809E+02  0.00000000000E+00 0.  1.
         23    2    1    2    0    0 -0.35313089543E+02 -0.23785969174E+02  0.34614615483E+03  0.36098859138E+03  0.93181628985E+02 0.  0.
         23    2    1    2    0    0  0.68335773155E+02  0.27663771914E+02  0.27389639850E+02  0.12262038389E+03  0.94077117325E+02 0.  0.
        -11    1    4    4    0    0  0.44512607141E+02 -0.26151549390E+02 -0.10422157568E+02  0.52667799445E+02  0.00000000000E+00 0.  1.
         11    1    4    4    0    0  0.23823166014E+02  0.53815321305E+02  0.37811797418E+02  0.69952584441E+02  0.00000000000E+00 0. -1.
        -11    1    3    3    0    0  0.28265012407E+02 -0.24462124606E+01  0.51407671211E+02  0.58716637686E+02  0.00000000000E+00 0.  1.
         11    1    3    3    0    0 -0.63578101950E+02 -0.21339756713E+02  0.29473848362E+03  0.30227195370E+03  0.00000000000E+00 0. -1.
          3    1    1    2  501    0 -0.33022683612E+02 -0.38778027407E+01  0.16170195538E+03  0.16508500041E+03  0.00000000000E+00 0. -1.
<scales pt_clust_5="13000.00000" pt_clust_6="13000.00000" pt_clust_7="13000.00000" pt_clust_8="13000.00000" pt_clust_9="33.24960"></scales>
<clustering>
<clus scale="   33.250">  2  9  1 -1</clus>
<clus scale="   93.182">  7  8 -1 -1</clus>
<clus scale="   94.077">  5  6 -1 -1</clus>
<clus scale="  104.188">  1  7  2 -1</clus>
<clus scale="   33.250">  2  5  1 -1</clus>
</clustering>
</event>
<event>
 9    1  0.1445593E-005  0.1041712E+03  0.7546771E-02  0.1277719E+00
         21   -1    0    0  501  502  0.00000000000E+00  0.00000000000E+00  0.52105096122E+02  0.52105096122E+02  0.00000000000E+00 0. -1.
         -1   -1    0    0    0  501 -0.00000000000E+00 -0.00000000000E+00 -0.47100508062E+03  0.47100508062E+03  0.00000000000E+00 0.  1.
         23    2    1    2    0    0  0.24787889301E+01  0.18889714826E+02 -0.31752867657E+03  0.33048150064E+03  0.89613593270E+02 0.  0.
         23    2    1    2    0    0 -0.14762907306E+02 -0.40933881390E+02 -0.11874067462E+03  0.16199308008E+03  0.10123677251E+03 0.  0.
        -11    1    3    3    0    0 -0.38325472846E+02 -0.80452879573E+01 -0.97179748122E+02  0.10477343161E+03  0.00000000000E+00 0. -1.
         11    1    3    3    0    0  0.40804261776E+02  0.26935002784E+02 -0.22034892845E+03  0.22570806903E+03  0.00000000000E+00 0.  1.
        -13    1    4    4    0    0  0.27576563569E+02  0.15999701024E+02 -0.66939689784E+02  0.74144314411E+02  0.00000000000E+00 0.  1.
         13    1    4    4    0    0 -0.42339470875E+02 -0.56933582414E+02 -0.51800984835E+02  0.87848765673E+02  0.00000000000E+00 0. -1.
         -1    1    1    2    0  502  0.12284118376E+02  0.22044166563E+02  0.17369366696E+02  0.30635596014E+02  0.00000000000E+00 0.  1.
<scales pt_clust_5="13000.00000" pt_clust_6="13000.00000" pt_clust_7="13000.00000" pt_clust_8="13000.00000" pt_clust_9="25.23578"></scales>
<clustering>
<clus scale="   25.236">  1  9  2 -1</clus>
<clus scale="   89.614">  5  6 -1 -1</clus>
<clus scale="   92.916">  2  5  1 -1</clus>
<clus scale="  101.237">  7  8 -1 -1</clus>
<clus scale="   25.236">  1  5  2 -1</clus>
</clustering>
</event>
<event>
 9    1  0.1445593E-005  0.9161824E+02  0.7546771E-02  0.1299643E+00
         21   -1    0    0  501  502  0.00000000000E+00  0.00000000000E+00  0.27890485106E+03  0.27890485106E+03  0.00000000000E+00 0. -1.
          1   -1    0    0  502    0 -0.00000000000E+00 -0.00000000000E+00 -0.60423224210E+02  0.60423224210E+02  0.00000000000E+00 0. -1.
         23    2    1    2    0    0  0.18410383802E+02  0.68677714984E+01  0.25526921140E+02  0.96771620360E+02  0.91252475512E+02 0.  0.
         23    2    1    2    0    0  0.17222966135E+02 -0.67959761119E+01  0.73103341488E+02  0.11752009904E+03  0.90133563609E+02 0.  0.
        -11    1    3    3    0    0  0.50377020092E+01 -0.19496748170E+02 -0.28670732915E+02  0.35035875279E+02  0.00000000000E+00 0.  1.
         11    1    3    3    0    0  0.13372681793E+02  0.26364519668E+02  0.54197654054E+02  0.61735745081E+02  0.00000000000E+00 0. -1.
        -13    1    4    4    0    0 -0.22651462453E+02  0.27936512206E+02  0.45093298096E+02  0.57679658448E+02  0.00000000000E+00 0.  1.
         13    1    4    4    0    0  0.39874428588E+02 -0.34732488318E+02  0.28010043392E+02  0.59840440597E+02  0.00000000000E+00 0. -1.
          1    1    1    2  501    0 -0.35633349937E+02 -0.71795386488E-01  0.11985136422E+03  0.12503635587E+03  0.00000000000E+00 0. -1.
<scales pt_clust_5="13000.00000" pt_clust_6="13000.00000" pt_clust_7="13000.00000" pt_clust_8="13000.00000" pt_clust_9="35.63342"></scales>
<clustering>
<clus scale="   35.633">  1  9  2 -1</clus>
<clus scale="   90.134">  7  8 -1 -1</clus>
<clus scale="   90.504">  1  7  2 -1</clus>
<clus scale="   91.252">  5  6 -1 -1</clus>
<clus scale="   35.633">  1  5  2 -1</clus>
</clustering>
</event>
<event>
 9    1  0.1445593E-005  0.1015669E+03  0.7546771E-02  0.1277469E+00
          4   -1    0    0  502    0 -0.00000000000E+00  0.00000000000E+00  0.18142074317E+03  0.18142074317E+03  0.00000000000E+00 0. -1.
         21   -1    0    0  501  502  0.00000000000E+00 -0.00000000000E+00 -0.10965029349E+03  0.10965029349E+03  0.00000000000E+00 0. -1.
         23    2    1    2    0    0 -0.35063209306E+02 -0.39522498129E+02  0.10150121017E+03  0.14634448936E+03  0.91229147724E+02 0.  0.
         23    2    1    2    0    0  0.59668272289E+01  0.24179387059E+02  0.66348612918E+01  0.95691162588E+02  0.92154931650E+02 0.  0.
        -11    1    4    4    0    0 -0.33854780540E+02  0.21129940652E+02 -0.22906735772E+02  0.46014553145E+02  0.00000000000E+00 0. -1.
         11    1    4    4    0    0  0.39821607769E+02  0.30494464076E+01  0.29541597064E+02  0.49676609444E+02  0.00000000000E+00 0.  1.
        -13    1    3    3    0    0 -0.25246181868E+02 -0.36538456470E+01  0.10587098699E+03  0.10890080888E+03  0.00000000000E+00 0. -1.
         13    1    3    3    0    0 -0.98170274373E+01 -0.35868652482E+02 -0.43697768233E+01  0.37443680482E+02  0.00000000000E+00 0.  1.
          4    1    1    2  501    0  0.29096382077E+02  0.15343111069E+02 -0.36365621777E+02  0.49035384718E+02  0.00000000000E+00 0. -1.
<scales pt_clust_5="13000.00000" pt_clust_6="13000.00000" pt_clust_7="13000.00000" pt_clust_8="13000.00000" pt_clust_9="32.89393"></scales>
<clustering>
<clus scale="   32.894">  2  9  1 -1</clus>
<clus scale="   91.229">  7  8 -1 -1</clus>
<clus scale="   92.155">  5  6 -1 -1</clus>
<clus scale="  100.728">  1  7  2 -1</clus>
<clus scale="   32.894">  2  5  1 -1</clus>
</clustering>
</event>
<event>
 9    1  0.1445593E-005  0.9327319E+02  0.7546771E-02  0.1296308E+00
         -3   -1    0    0    0  501 -0.00000000000E+00  0.00000000000E+00  0.17833232390E+03  0.17833232390E+03  0.00000000000E+00 0.  1.
         21   -1    0    0  501  502  0.00000000000E+00 -0.00000000000E+00 -0.72064154803E+02  0.72064154803E+02  0.00000000000E+00 0. -1.
         23    2    1    2    0    0 -0.77621166007E+00  0.10848505758E+02  0.75020861763E+02  0.11751005778E+03  0.89789706525E+02 0.  0.
         23    2    1    2    0    0 -0.22572353446E+02 -0.17565073489E+02  0.43596470590E+02  0.10563262105E+03  0.91867053041E+02 0.  0.
        -13    1    4    4    0    0 -0.49434092638E+02 -0.14250675601E+01  0.53414093073E+02  0.72793033123E+02  0.00000000000E+00 0.  1.
         13    1    4    4    0    0  0.26861739191E+02 -0.16140005929E+02 -0.98176224826E+01  0.32839587923E+02  0.00000000000E+00 0. -1.
        -13    1    3    3    0    0 -0.27896875767E+02  0.98075297375E+01  0.83896262367E+02  0.88955079429E+02  0.00000000000E+00 0.  1.
         13    1    3    3    0    0  0.27120664107E+02  0.10409760205E+01 -0.88754006040E+01  0.28554978350E+02  0.00000000000E+00 0. -1.
         -3    1    1    2    0  502  0.23348565107E+02  0.67165677309E+01 -0.12349163257E+02  0.27253799877E+02  0.00000000000E+00 0.  1.
<scales pt_clust_5="13000.00000" pt_clust_6="13000.00000" pt_clust_7="13000.00000" pt_clust_8="13000.00000" pt_clust_9="24.29543"></scales>
<clustering>
<clus scale="   24.295">  2  9  1 -1</clus>
<clus scale="   89.790">  7  8 -1 -1</clus>
<clus scale="   91.228">  1  7  2 -1</clus>
<clus scale="   91.867">  5  6 -1 -1</clus>
<clus scale="   24.295">  2  5  1 -1</clus>
</clustering>
</event>
<event>
 9    1  0.1445593E-005  0.1801325E+03  0.7546771E-02  0.1178429E+00
         21   -1    0    0  501  502  0.00000000000E+00  0.00000000000E+00  0.13218273302E+03  0.13218273302E+03  0.00000000000E+00 0. -1.
          2   -1    0    0  502    0 -0.00000000000E+00 -0.00000000000E+00 -0.73497817990E+03  0.73497817990E+03  0.00000000000E+00 0. -1.
         23    2    1    2    0    0 -0.69375031914E+02 -0.82342197399E+02 -0.45683571440E+03  0.47811031727E+03  0.91090466053E+02 0.  0.
         23    2    1    2    0    0  0.18390092910E+03 -0.15358999502E+02 -0.11255754948E+03  0.23485133874E+03  0.91817747582E+02 0.  0.
        -11    1    4    4    0    0  0.37702573331E+02  0.25704320086E+02 -0.57311304878E+02  0.73258322215E+02  0.00000000000E+00 0.  1.
         11    1    4    4    0    0  0.14619835577E+03 -0.41063319588E+02 -0.55246244599E+02  0.16159301652E+03  0.00000000000E+00 0. -1.
        -13    1    3    3    0    0 -0.88883202610E+02 -0.73442238221E+02 -0.33211742233E+03  0.35156218265E+03  0.00000000000E+00 0.  1.
         13    1    3    3    0    0  0.19508170696E+02 -0.88999591781E+01 -0.12471829207E+03  0.12654813462E+03  0.00000000000E+00 0. -1.
          2    1    1    2  501    0 -0.11452589719E+03  0.97701196902E+02 -0.33402183006E+02  0.15419925691E+03  0.00000000000E+00 0. -1.
<scales pt_clust_5="13000.00000" pt_clust_6="13000.00000" pt_clust_7="13000.00000" pt_clust_8="13000.00000" pt_clust_9="154.97493"></scales>
<clustering>
<clus scale="   91.090">  7  8 -1 -1</clus>
<clus scale="   91.818">  5  6 -1 -1</clus>
<clus scale="  141.034">  2  7  1 -1</clus>
<clus scale="  154.975">  1  9  2 -1</clus>
<clus scale="  154.975">  1  5  2 -1</clus>
</clustering>
</event>
<event>
 9    1  0.1445593E-005  0.1111123E+03  0.7546771E-02  0.1258538E+00
         21   -1    0    0  501  502  0.00000000000E+00  0.00000000000E+00  0.14215257561E+03  0.14215257561E+03  0.00000000000E+00 0. -1.
         -4   -1    0    0    0  501 -0.00000000000E+00 -0.00000000000E+00 -0.26049415651E+03  0.26049415651E+03  0.00000000000E+00 0.  1.
         23    2    1    2    0    0  0.45249968228E+02 -0.38732479688E+02 -0.18235600527E+03  0.21246110232E+03  0.91313978854E+02 0.  0.
         23    2    1    2    0    0 -0.36518005204E+02  0.79705441229E+02  0.17794897068E+02  0.12780554115E+03  0.91274727732E+02 0.  0.
        -11    1    3    3    0    0  0.17822388192E+02  0.14638267858E+02 -0.29077137540E+01  0.23245885787E+02  0.00000000000E+00 0. -1.
         11    1    3    3    0    0  0.27427580036E+02 -0.53370747545E+02 -0.17944829152E+03  0.18921521653E+03  0.00000000000E+00 0.  1.
        -13    1    4    4    0    0 -0.47707888786E+02  0.66749894142E+01 -0.93918223354E+01  0.49079572766E+02  0.00000000000E+00 0.  1.
         13    1    4    4    0    0  0.11189883582E+02  0.73030451815E+02  0.27186719403E+02  0.78725968389E+02  0.00000000000E+00 0. -1.
         -4    1    1    2    0  502 -0.87319630237E+01 -0.40972961541E+02  0.46219527300E+02  0.62380088647E+02  0.00000000000E+00 0.  1.
<scales pt_clust_5="13000.00000" pt_clust_6="13000.00000" pt_clust_7="13000.00000" pt_clust_8="13000.00000" pt_clust_9="41.89309"></scales>
<clustering>
<clus scale="   41.893">  1  9  2 -1</clus>
<clus scale="   91.275">  7  8 -1 -1</clus>
<clus scale="   91.314">  5  6 -1 -1</clus>
<clus scale="  111.080">  1  7  2 -1</clus>
<clus scale="   41.893">  1  5  2 -1</clus>
</clustering>
</event>
<event>
 9    1  0.1445593E-005  0.4066559E+03  0.7546771E-02  0.1041537E+00
          1   -1    0    0  502    0 -0.00000000000E+00  0.00000000000E+00  0.62509943390E+03  0.62509943390E+03  0.00000000000E+00 0. -1.
         21   -1    0    0  501  502  0.00000000000E+00 -0.00000000000E+00 -0.32413814819E+03  0.32413814819E+03  0.00000000000E+00 0.  1.
         23    2    1    2    0    0  0.29128902717E+02 -0.40855719323E+03  0.30944716244E+03  0.52147175421E+03  0.91693898276E+02 0.  0.
         23    2    1    2    0    0 -0.46438600819E+02  0.36707053548E+03 -0.16856655567E+02  0.38204014190E+03  0.93665369923E+02 0.  0.
        -11    1    4    4    0    0 -0.71212853211E+02  0.26420907423E+03 -0.30620328298E+02  0.27534580054E+03  0.00000000000E+00 0.  1.
         11    1    4    4    0    0  0.24774252392E+02  0.10286146126E+03  0.13763672731E+02  0.10669434137E+03  0.00000000000E+00 0. -1.
        -13    1    3    3    0    0  0.17489884328E+02 -0.40815164643E+02  0.65105286805E+01  0.44879401760E+02  0.00000000000E+00 0.  1.
         13    1    3    3    0    0  0.11639018389E+02 -0.36774202859E+03  0.30293663376E+03  0.47659235245E+03  0.00000000000E+00 0. -1.
          1    1    1    2  501    0  0.17309698102E+02  0.41486657748E+02  0.83707788329E+01  0.45725685974E+02  0.00000000000E+00 0. -1.
<scales pt_clust_5="13000.00000" pt_clust_6="13000.00000" pt_clust_7="13000.00000" pt_clust_8="13000.00000" pt_clust_9="44.95296"></scales>
<clustering>
<clus scale="   44.953">  2  9  1 -1</clus>
<clus scale="   91.694">  7  8 -1 -1</clus>
<clus scale="   93.665">  5  6 -1 -1</clus>
<clus scale="  406.206">  1  7  2 -1</clus>
<clus scale="   44.953">  2  5  1 -1</clus>
</clustering>
</event>
<event>
 9    1  0.1445593E-005  0.2362728E+03  0.7546771E-02  0.1159934E+00
         21   -1    0    0  501  502  0.00000000000E+00  0.00000000000E+00  0.80095968745E+02  0.80095968745E+02  0.00000000000E+00 0. -1.
          1   -1    0    0  502    0 -0.00000000000E+00 -0.00000000000E+00 -0.12396087657E+04  0.12396087657E+04  0.00000000000E+00 0. -1.
         23    2    1    2    0    0  0.30072742400E+02 -0.11062476526E+02 -0.44973329937E+03  0.45975493176E+03  0.89932243934E+02 0.  0.
         23    2    1    2    0    0 -0.13945958407E+03  0.19150230665E+03 -0.51025358901E+03  0.56954559882E+03  0.88889566326E+02 0.  0.
        -11    1    3    3    0    0  0.18052056247E+02 -0.49485017105E+02 -0.30552135133E+03  0.31002893376E+03  0.00000000000E+00 0. -1.
         11    1    3    3    0    0  0.12020686153E+02  0.38422540579E+02 -0.14421194804E+03  0.14972599800E+03  0.00000000000E+00 0.  1.
        -13    1    4    4    0    0 -0.12052307349E+03  0.13741728619E+03 -0.45324935210E+03  0.48871699067E+03  0.00000000000E+00 0. -1.
         13    1    4    4    0    0 -0.18936510577E+02  0.54085020456E+02 -0.57004236905E+02  0.80828608152E+02  0.00000000000E+00 0.  1.
          1    1    1    2  501    0  0.10938684167E+03 -0.18043983013E+03 -0.19952590859E+03  0.29040420387E+03  0.00000000000E+00 0. -1.
<scales pt_clust_5="13000.00000" pt_clust_6="13000.00000" pt_clust_7="13000.00000" pt_clust_8="13000.00000" pt_clust_9="218.91429"></scales>
<clustering>
<clus scale="   88.890">  7  8 -1 -1</clus>
<clus scale="   89.932">  5  6 -1 -1</clus>
<clus scale="   95.470">  2  5  1 -1</clus>
<clus scale="  218.914">  1  9  2 -1</clus>
<clus scale="  218.914">  1  5  2 -1</clus>
</clustering>
</event>
<event>
 9    1  0.1445593E-005  0.1077503E+03  0.7546771E-02  0.1266449E+00
          4   -1    0    0  502    0 -0.00000000000E+00  0.00000000000E+00  0.57387592384E+02  0.57387592384E+02  0.00000000000E+00 0. -1.
         21   -1    0    0  501  502  0.00000000000E+00 -0.00000000000E+00 -0.47706064385E+03  0.47706064385E+03  0.00000000000E+00 0.  1.
         23    2    1    2    0    0 -0.24662276371E+02  0.20051557231E+02 -0.80663533330E+02  0.12241172124E+03  0.86416034772E+02 0.  0.
         23    2    1    2    0    0  0.56730521020E+02 -0.98050526518E+02 -0.17218032979E+03  0.22510286470E+03  0.90515059327E+02 0.  0.
        -11    1    4    4    0    0  0.46235347805E+02 -0.43624404426E+02 -0.15426831168E+03  0.16685175467E+03  0.00000000000E+00 0.  1.
         11    1    4    4    0    0  0.10495173215E+02 -0.54426122093E+02 -0.17912018106E+02  0.58251110028E+02  0.00000000000E+00 0. -1.
        -13    1    3    3    0    0 -0.30576416291E+02 -0.21436897225E+02 -0.69732524265E+02  0.79101723978E+02  0.00000000000E+00 0. -1.
         13    1    3    3    0    0  0.59141399197E+01  0.41488454456E+02 -0.10931009065E+02  0.43309997267E+02  0.00000000000E+00 0.  1.
          4    1    1    2  501    0 -0.32068244650E+02  0.77998969288E+02 -0.16682918834E+03  0.18693365028E+03  0.00000000000E+00 0. -1.
<scales pt_clust_5="13000.00000" pt_clust_6="13000.00000" pt_clust_7="13000.00000" pt_clust_8="13000.00000" pt_clust_9="84.33393"></scales>
<clustering>
<clus scale="   84.334">  2  9  1 -1</clus>
<clus scale="   86.416">  7  8 -1 -1</clus>
<clus scale="   90.515">  5  6 -1 -1</clus>
<clus scale="  104.331">  1  7  2 -1</clus>
<clus scale="   84.334">  2  5  1 -1</clus>
</clustering>
</event>
<event>
 9    1  0.1445593E-005  0.9840103E+02  0.7546771E-02  0.1285112E+00
         21   -1    0    0  501  502  0.00000000000E+00  0.00000000000E+00  0.31050239745E+02  0.31050239745E+02  0.00000000000E+00 0.  1.
         -2   -1    0    0    0  501 -0.00000000000E+00 -0.00000000000E+00 -0.55747388347E+03  0.55747388347E+03  0.00000000000E+00 0.  1.
         23    2    1    2    0    0  0.17258134591E+02 -0.25762397025E+02 -0.30137741050E+03  0.31639209763E+03  0.91181530885E+02 0.  0.
         23    2    1    2    0    0 -0.43776383693E+02  0.21634579524E+02 -0.22350455803E+03  0.24525018831E+03  0.88368210376E+02 0.  0.
        -11    1    3    3    0    0  0.35263738832E+02  0.24486369432E+02 -0.13511743335E+03  0.14177388462E+03  0.00000000000E+00 0. -1.
         11    1    3    3    0    0 -0.18005604241E+02 -0.50248766458E+02 -0.16625997715E+03  0.17461821301E+03  0.00000000000E+00 0.  1.
        -13    1    4    4    0    0 -0.56250803277E+01 -0.26705616755E+02 -0.23616704889E+02  0.36091276575E+02  0.00000000000E+00 0. -1.
         13    1    4    4    0    0 -0.38151303365E+02  0.48340196279E+02 -0.19988785314E+03  0.20915891174E+03  0.00000000000E+00 0.  1.
         -2    1    1    2    0  502  0.26518249102E+02  0.41278175009E+01 -0.15416751937E+01  0.26881837273E+02  0.00000000000E+00 0.  1.
<scales pt_clust_5="13000.00000" pt_clust_6="13000.00000" pt_clust_7="13000.00000" pt_clust_8="13000.00000" pt_clust_9="26.83759"></scales>
<clustering>
<clus scale="   26.838">  1  9  2 -1</clus>
<clus scale="   88.368">  7  8 -1 -1</clus>
<clus scale="   91.182">  5  6 -1 -1</clus>
<clus scale="   95.800">  1  7  2 -1</clus>
<clus scale="   26.838">  1  5  2 -1</clus>
</clustering>
</event>
<event>
 9    1  0.1445593E-005  0.9393312E+02  0.7546771E-02  0.1294631E+00
         -2   -1    0    0    0  501 -0.00000000000E+00  0.00000000000E+00  0.25234937827E+03  0.25234937827E+03  0.00000000000E+00 0.  1.
         21   -1    0    0  501  502  0.00000000000E+00 -0.00000000000E+00 -0.92707829020E+02  0.92707829020E+02  0.00000000000E+00 0.  1.
         23    2    1    2    0    0  0.19399659544E+02 -0.11019212239E+02  0.16698660914E+03  0.19131585339E+03  0.90661228203E+02 0.  0.
         23    2    1    2    0    0 -0.60026057248E+01 -0.35812366861E+02  0.14411747035E+02  0.10039309714E+03  0.92479828097E+02 0.  0.
        -11    1    3    3    0    0  0.34105098782E+02 -0.32705287030E+02  0.40774814847E+02  0.62412972117E+02  0.00000000000E+00 0.  1.
         11    1    3    3    0    0 -0.14705439238E+02  0.21686074791E+02  0.12621179429E+03  0.12890288128E+03  0.00000000000E+00 0. -1.
        -13    1    4    4    0    0 -0.42580850849E+02  0.21368063696E+01  0.20550923721E+02  0.47329010832E+02  0.00000000000E+00 0. -1.
         13    1    4    4    0    0  0.36578245124E+02 -0.37949173230E+02 -0.61391766864E+01  0.53064086307E+02  0.00000000000E+00 0.  1.
         -2    1    1    2    0  502 -0.13397053819E+02  0.46831579100E+02 -0.21756806920E+02  0.53348256760E+02  0.00000000000E+00 0.  1.
<scales pt_clust_5="13000.00000" pt_clust_6="13000.00000" pt_clust_7="13000.00000" pt_clust_8="13000.00000" pt_clust_9="48.71014"></scales>
<clustering>
<clus scale="   48.710">  2  9  1 -1</clus>
<clus scale="   90.661">  5  6 -1 -1</clus>
<clus scale="   92.143">  1  5  2 -1</clus>
<clus scale="   92.480">  7  8 -1 -1</clus>
<clus scale="   48.710">  2  5  1 -1</clus>
</clustering>
</event>
<event>
 9    1  0.1445593E-005  0.1045351E+03  0.7546771E-02  0.1271177E+00
         -3   -1    0    0    0  501 -0.00000000000E+00  0.00000000000E+00  0.27818266012E+03  0.27818266012E+03  0.00000000000E+00 0.  1.
         21   -1    0    0  501  502  0.00000000000E+00 -0.00000000000E+00 -0.16796387815E+03  0.16796387815E+03  0.00000000000E+00 0.  1.
         23    2    1    2    0    0  0.63570583237E+00  0.54682020489E+02  0.20304299885E+03  0.22940528330E+03  0.91704946077E+02 0.  0.
         23    2    1    2    0    0  0.10845178098E+02 -0.36263913631E+02  0.20787680202E+02  0.10107492229E+03  0.91385572975E+02 0.  0.
        -13    1    4    4    0    0  0.39259374009E+02 -0.33299022552E+02  0.41222653556E+02  0.65950212408E+02  0.00000000000E+00 0. -1.
         13    1    4    4    0    0 -0.28414195911E+02 -0.29648910793E+01 -0.20434973354E+02  0.35124709882E+02  0.00000000000E+00 0.  1.
        -13    1    3    3    0    0  0.44914364019E+02  0.36239148975E+02  0.12701011751E+03  0.13950679540E+03  0.00000000000E+00 0.  1.
         13    1    3    3    0    0 -0.44278658186E+02  0.18442871514E+02  0.76032881341E+02  0.89898487893E+02  0.00000000000E+00 0. -1.
         -3    1    1    2    0  502 -0.11480883930E+02 -0.18418106858E+02 -0.11361189709E+03  0.11566633268E+03  0.00000000000E+00 0.  1.
<scales pt_clust_5="13000.00000" pt_clust_6="13000.00000" pt_clust_7="13000.00000" pt_clust_8="13000.00000" pt_clust_9="21.70340"></scales>
<clustering>
<clus scale="   21.703">  2  9  1 -1</clus>
<clus scale="   91.386">  5  6 -1 -1</clus>
<clus scale="   91.705">  7  8 -1 -1</clus>
<clus scale="  104.255">  2  5  1 -1</clus>
<clus scale="   21.703">  2  5  1 -1</clus>
</clustering>
</event>
<event>
 9    1  0.1445593E-005  0.9431825E+02  0.7546771E-02  0.1293285E+00
         21   -1    0    0  501  502  0.00000000000E+00  0.00000000000E+00  0.36064590080E+03  0.36064590080E+03  0.00000000000E+00 0. -1.
         -1   -1    0    0    0  501 -0.00000000000E+00 -0.00000000000E+00 -0.83284710103E+02  0.83284710103E+02  0.00000000000E+00 0.  1.
         23    2    1    2    0    0 -0.22672076574E+02  0.14640061545E+01 -0.42330787709E+02  0.10282031288E+03  0.90906296717E+02 0.  0.
         23    2    1    2    0    0  0.64754166640E+01  0.15304785580E+02  0.27888282602E+03  0.29411124391E+03  0.91921845425E+02 0.  0.
        -13    1    3    3    0    0 -0.45697814607E+02  0.25285756338E+02 -0.45857337879E+02  0.69502195439E+02  0.00000000000E+00 0.  1.
         13    1    3    3    0    0  0.23025738033E+02 -0.23821750184E+02  0.35265501710E+01  0.33318117442E+02  0.00000000000E+00 0. -1.
        -13    1    4    4    0    0 -0.41424344429E+02  0.16425716738E+02  0.15525266271E+03  0.16152142199E+03  0.00000000000E+00 0.  1.
         13    1    4    4    0    0  0.47899761093E+02 -0.11209311581E+01  0.12363016330E+03  0.13258982193E+03  0.00000000000E+00 0. -1.
         -1    1    1    2    0  502  0.16196659910E+02 -0.16768791735E+02  0.40809152387E+02  0.46999054107E+02  0.00000000000E+00 0.  1.
<scales pt_clust_5="13000.00000" pt_clust_6="13000.00000" pt_clust_7="13000.00000" pt_clust_8="13000.00000" pt_clust_9="23.31360"></scales>
<clustering>
<clus scale="   23.314">  1  9  2 -1</clus>
<clus scale="   90.906">  5  6 -1 -1</clus>
<clus scale="   91.922">  7  8 -1 -1</clus>
<clus scale="   93.329">  2  5  1 -1</clus>
<clus scale="   23.314">  1  5  2 -1</clus>
</clustering>
</event>
<event>
 9    1  0.1445593E-005  0.9616813E+02  0.7546771E-02  0.1288787E+00
         21   -1    0    0  501  502  0.00000000000E+00  0.00000000000E+00  0.33071605564E+02  0.33071605564E+02  0.00000000000E+00 0.  1.
          2   -1    0    0  502    0 -0.00000000000E+00 -0.00000000000E+00 -0.48043787983E+03  0.48043787983E+03  0.00000000000E+00 0. -1.
         23    2    1    2    0    0  0.28708950071E+01 -0.24927138080E+02 -0.30257157673E+03  0.31765421291E+03  0.93407899450E+02 0.  0.
         23    2    1    2    0    0 -0.21382675564E+02  0.75101109599E+01 -0.13991534773E+03  0.16997387168E+03  0.93814668066E+02 0.  0.
        -11    1    3    3    0    0 -0.27385730229E+02 -0.42665577447E+02 -0.24539627282E+03  0.25057865119E+03  0.00000000000E+00 0.  1.
         11    1    3    3    0    0  0.30256625236E+02  0.17738439367E+02 -0.57175303914E+02  0.67075561716E+02  0.00000000000E+00 0. -1.
        -11    1    4    4    0    0  0.25707308157E+02  0.10458505032E+02 -0.65603029210E+01  0.28518127474E+02  0.00000000000E+00 0. -1.
         11    1    4    4    0    0 -0.47089983721E+02 -0.29483940723E+01 -0.13335504480E+03  0.14145574421E+03  0.00000000000E+00 0.  1.
          2    1    1    2  501    0  0.18511780557E+02  0.17417027120E+02 -0.48793498050E+01  0.25881400804E+02  0.00000000000E+00 0. -1.
<scales pt_clust_5="13000.00000" pt_clust_6="13000.00000" pt_clust_7="13000.00000" pt_clust_8="13000.00000" pt_clust_9="25.41729"></scales>
<clustering>
<clus scale="   25.417">  1  9  2 -1</clus>
<clus scale="   93.408">  5  6 -1 -1</clus>
<clus scale="   93.815">  7  8 -1 -1</clus>
<clus scale="   95.771">  2  5  1 -1</clus>
<clus scale="   25.417">  1  5  2 -1</clus>
</clustering>
</event>
<event>
 9    1  0.1445593E-005  0.3044307E+03  0.7546771E-02  0.1083049E+00
         -4   -1    0    0    0  501 -0.00000000000E+00  0.00000000000E+00  0.28371221483E+03  0.28371221483E+03  0.00000000000E+00 0.  1.
         21   -1    0    0  501  502  0.00000000000E+00 -0.00000000000E+00 -0.77253134376E+03  0.77253134376E+03  0.00000000000E+00 0.  1.
         23    2    1    2    0    0  0.66009562458E+02  0.35258578757E+03  0.55907341480E+02  0.37428354073E+03  0.91041408711E+02 0.  0.
         23    2    1    2    0    0  0.91093424387E+01 -0.19241133820E+03 -0.18950160328E+03  0.28511822276E+03  0.90974942252E+02 0.  0.
        -11    1    3    3    0    0 -0.47407343826E+01  0.21733366071E+03  0.36157951730E+02  0.22037194039E+03  0.00000000000E+00 0.  1.
         11    1    3    3    0    0  0.70750296841E+02  0.13525212686E+03  0.19749389749E+02  0.15391160034E+03  0.00000000000E+00 0. -1.
        -13    1    4    4    0    0 -0.11543353179E+02 -0.10702876844E+03 -0.46440290615E+02  0.11723952776E+03  0.00000000000E+00 0.  1.
         13    1    4    4    0    0  0.20652695618E+02 -0.85382569759E+02 -0.14306131267E+03  0.16787869500E+03  0.00000000000E+00 0. -1.
         -4    1    1    2    0  502 -0.75118904897E+02 -0.16017444937E+03 -0.35522486713E+03  0.39684179509E+03  0.00000000000E+00 0.  1.
<scales pt_clust_5="13000.00000" pt_clust_6="13000.00000" pt_clust_7="13000.00000" pt_clust_8="13000.00000" pt_clust_9="176.91440"></scales>
<clustering>
<clus scale="   90.975">  7  8 -1 -1</clus>
<clus scale="   91.041">  5  6 -1 -1</clus>
<clus scale="  176.914">  2  9  1 -1</clus>
<clus scale="  304.411">  2  7  1 -1</clus>
<clus scale="  176.914">  2  5  1 -1</clus>
</clustering>
</event>
<event>
 9    1  0.1445593E-005  0.1008775E+03  0.7546771E-02  0.1279852E+00
         21   -1    0    0  501  502  0.00000000000E+00  0.00000000000E+00  0.96173849334E+02  0.96173849334E+02  0.00000000000E+00 0. -1.
         -2   -1    0    0    0  501 -0.00000000000E+00 -0.00000000000E+00 -0.18971416383E+03  0.18971416383E+03  0.00000000000E+00 0. -1.
         23    2    1    2    0    0 -0.22257025607E+02 -0.10090865518E+02 -0.66006758073E+02  0.11364655791E+03  0.89226942437E+02 0.  0.
         23    2    1    2    0    0  0.62783731083E+02  0.24851541781E+02 -0.48732918712E+02  0.12418207134E+03  0.92124336954E+02 0.  0.
        -13    1    3    3    0    0  0.10049904935E+02  0.34999384980E+02 -0.19774760691E+02  0.41436683006E+02  0.00000000000E+00 0.  1.
         13    1    3    3    0    0 -0.32306930542E+02 -0.45090250498E+02 -0.46231997383E+02  0.72209874900E+02  0.00000000000E+00 0. -1.
        -13    1    4    4    0    0  0.21968257299E+02  0.28922357285E+02  0.21966315958E+02  0.42445566511E+02  0.00000000000E+00 0.  1.
         13    1    4    4    0    0  0.40815473785E+02 -0.40708155045E+01 -0.70699234671E+02  0.81736504832E+02  0.00000000000E+00 0. -1.
         -2    1    1    2    0  502 -0.40526705476E+02 -0.14760676263E+02  0.21199362292E+02  0.48059383913E+02  0.00000000000E+00 0. -1.
<scales pt_clust_5="13000.00000" pt_clust_6="13000.00000" pt_clust_7="13000.00000" pt_clust_8="13000.00000" pt_clust_9="43.13110"></scales>
<clustering>
<clus scale="   43.131">  1  9  2 -1</clus>
<clus scale="   89.227">  5  6 -1 -1</clus>
<clus scale="   92.124">  7  8 -1 -1</clus>
<clus scale="   98.239">  2  5  1 -1</clus>
<clus scale="   43.131">  1  5  2 -1</clus>
</clustering>
</event>
<event>
 9    1  0.1445593E-005  0.1251207E+03  0.7546771E-02  0.1235113E+00
         -1   -1    0    0    0  501 -0.00000000000E+00  0.00000000000E+00  0.42331067625E+03  0.42331067625E+03  0.00000000000E+00 0.  1.
         21   -1    0    0  501  502  0.00000000000E+00 -0.00000000000E+00 -0.23103035109E+03  0.23103035109E+03  0.00000000000E+00 0.  1.
         23    2    1    2    0    0 -0.35904868119E+02 -0.90926051466E+02  0.24269255707E+03  0.27700708739E+03  0.90975506702E+02 0.  0.
         23    2    1    2    0    0  0.60919063116E+02  0.47688887332E+02  0.13818596087E+03  0.18223283634E+03  0.90155890737E+02 0.  0.
        -11    1    3    3    0    0  0.18737218430E+02 -0.32640879244E+02  0.25171774600E+02  0.45278345695E+02  0.00000000000E+00 0. -1.
         11    1    3    3    0    0 -0.54642086549E+02 -0.58285172222E+02  0.21752078247E+03  0.23172874170E+03  0.00000000000E+00 0.  1.
        -13    1    4    4    0    0  0.61199412699E+02  0.71942551153E+02  0.11279728476E+03  0.14712010818E+03  0.00000000000E+00 0. -1.
         13    1    4    4    0    0 -0.28034958309E+00 -0.24253663821E+02  0.25388676105E+02  0.35112728162E+02  0.00000000000E+00 0.  1.
         -1    1    1    2    0  502 -0.25014194997E+02  0.43237164134E+02 -0.18859819277E+03  0.19510110361E+03  0.00000000000E+00 0.  1.
<scales pt_clust_5="13000.00000" pt_clust_6="13000.00000" pt_clust_7="13000.00000" pt_clust_8="13000.00000" pt_clust_9="49.95160"></scales>
<clustering>
<clus scale="   49.952">  2  9  1 -1</clus>
<clus scale="   90.156">  7  8 -1 -1</clus>
<clus scale="   90.976">  5  6 -1 -1</clus>
<clus scale="  124.526">  2  7  1 -1</clus>
<clus scale="   49.952">  2  5  1 -1</clus>
</clustering>
</event>
<event>
 9    1  0.1445593E-005  0.1576082E+03  0.7546771E-02  0.1191658E+00
          2   -1    0    0  502    0 -0.00000000000E+00  0.00000000000E+00  0.94844763405E+03  0.94844763405E+03  0.00000000000E+00 0. -1.
         21   -1    0    0  501  502  0.00000000000E+00 -0.00000000000E+00 -0.39924076452E+02  0.39924076452E+02  0.00000000000E+00 0. -1.
         23    2    1    2    0    0  0.46583428154E+02  0.13681195111E+03  0.60939520223E+03  0.63286216310E+03  0.90909181225E+02 0.  0.
         23    2    1    2    0    0 -0.48714112754E+02 -0.91970944650E+02  0.26436949674E+03  0.29873425410E+03  0.92299535886E+02 0.  0.
        -11    1    3    3    0    0 -0.26188462576E+02  0.21215459642E+02  0.13968334292E+03  0.14369191901E+03  0.00000000000E+00 0.  1.
         11    1    3    3    0    0  0.72771890730E+02  0.11559649146E+03  0.46971185931E+03  0.48917024408E+03  0.00000000000E+00 0. -1.
        -13    1    4    4    0    0 -0.47923677411E+02 -0.10076010611E+02  0.53551514652E+02  0.72567000544E+02  0.00000000000E+00 0. -1.
         13    1    4    4    0    0 -0.79043534291E+00 -0.81894934039E+02  0.21081798209E+03  0.22616725356E+03  0.00000000000E+00 0.  1.
          2    1    1    2  501    0  0.21306846001E+01 -0.44841006457E+02  0.34758858623E+02  0.56775293304E+02  0.00000000000E+00 0. -1.
<scales pt_clust_5="13000.00000" pt_clust_6="13000.00000" pt_clust_7="13000.00000" pt_clust_8="13000.00000" pt_clust_9="44.89160"></scales>
<clustering>
<clus scale="   44.892">  2  9  1 -1</clus>
<clus scale="   90.909">  5  6 -1 -1</clus>
<clus scale="   92.300">  7  8 -1 -1</clus>
<clus scale="  156.798">  1  5  2 -1</clus>
<clus scale="   44.892">  2  5  1 -1</clus>
</clustering>
</event>
<event>
 9    1  0.1445593E-005  0.9591651E+02  0.7546771E-02  0.1289377E+00
          1   -1    0    0  502    0 -0.00000000000E+00  0.00000000000E+00  0.40456477339E+03  0.40456477339E+03  0.00000000000E+00 0. -1.
         21   -1    0    0  501  502  0.00000000000E+00 -0.00000000000E+00 -0.39762777133E+02  0.39762777133E+02  0.00000000000E+00 0.  1.
         23    2    1    2    0    0 -0.58273816633E+01  0.20327484586E+02  0.26237511032E+03  0.27961068088E+03  0.94309433983E+02 0.  0.
         23    2    1    2    0    0  0.77080805896E+01  0.14216345278E+01  0.10621317624E+03  0.14256066950E+03  0.94767452901E+02 0.  0.
        -13    1    4    4    0    0 -0.41866188279E+02 -0.11698586048E+02  0.42757467780E+02  0.60974057496E+02  0.00000000000E+00 0.  1.
         13    1    4    4    0    0  0.49574268868E+02  0.13120220576E+02  0.63455708458E+02  0.81586612000E+02  0.00000000000E+00 0. -1.
        -13    1    3    3    0    0 -0.21299964231E+02 -0.19867973839E+02  0.25076736497E+02  0.38435238702E+02  0.00000000000E+00 0.  1.
         13    1    3    3    0    0  0.15472582568E+02  0.40195458425E+02  0.23729837382E+03  0.24117544218E+03  0.00000000000E+00 0. -1.
          1    1    1    2  501    0 -0.18806989264E+01 -0.21749119114E+02 -0.37862903042E+01  0.22156200147E+02  0.00000000000E+00 0. -1.
<scales pt_clust_5="13000.00000" pt_clust_6="13000.00000" pt_clust_7="13000.00000" pt_clust_8="13000.00000" pt_clust_9="21.83028"></scales>
<clustering>
<clus scale="   21.830">  2  9  1 -1</clus>
<clus scale="   94.309">  7  8 -1 -1</clus>
<clus scale="   94.767">  5  6 -1 -1</clus>
<clus scale="   95.464">  1  7  2 -1</clus>
<clus scale="   21.830">  2  5  1 -1</clus>
</clustering>
</event>
<event>
 9    1  0.1445593E-005  0.1041392E+03  0.7546771E-02  0.1272082E+00
          1   -1    0    0  502    0 -0.00000000000E+00  0.00000000000E+00  0.43524188885E+02  0.43524188885E+02  0.00000000000E+00 0. -1.
         21   -1    0    0  501  502  0.00000000000E+00 -0.00000000000E+00 -0.49908839015E+03  0.49908839015E+03  0.00000000000E+00 0. -1.
         23    2    1    2    0    0 -0.13274581125E+02  0.15243990696E+02 -0.17102844672E+03  0.19521629543E+03  0.91924309405E+02 0.  0.
         23    2    1    2    0    0  0.85882835736E+02 -0.13765547098E+01 -0.17792841377E+03  0.21766814662E+03  0.91340819173E+02 0.  0.
        -13    1    3    3    0    0 -0.31497391864E+02 -0.31133517113E+02 -0.81364704041E+02  0.92636907579E+02  0.00000000000E+00 0.  1.
         13    1    3    3    0    0  0.18222810739E+02  0.46377507809E+02 -0.89663742679E+02  0.10257938786E+03  0.00000000000E+00 0. -1.
        -13    1    4    4    0    0  0.41394178281E+02  0.43361883478E+02 -0.65843673859E+02  0.89045608098E+02  0.00000000000E+00 0. -1.
         13    1    4    4    0    0  0.44488657455E+02 -0.44738438187E+02 -0.11208473991E+03  0.12862253852E+03  0.00000000000E+00 0.  1.
          1    1    1    2  501    0 -0.72608254611E+02 -0.13867435986E+02 -0.10660734078E+03  0.12972813698E+03  0.00000000000E+00 0. -1.
<scales pt_clust_5="13000.00000" pt_clust_6="13000.00000" pt_clust_7="13000.00000" pt_clust_8="13000.00000" pt_clust_9="73.92070"></scales>
<clustering>
<clus scale="   73.921">  2  9  1 -1</clus>
<clus scale="   91.341">  7  8 -1 -1</clus>
<clus scale="   91.924">  5  6 -1 -1</clus>
<clus scale="  103.624">  2  7  1 -1</clus>
<clus scale="   73.921">  2  5  1 -1</clus>
</clustering>
</event>
<event>
 9    1  0.1445593E-005  0.1425434E+03  0.7546771E-02  0.1212581E+00
         -3   -1    0    0    0  501 -0.00000000000E+00  0.00000000000E+00  0.12386673010E+03  0.12386673010E+03  0.00000000000E+00 0.  1.
         21   -1    0    0  501  502  0.00000000000E+00 -0.00000000000E+00 -0.29792963182E+03  0.29792963182E+03  0.00000000000E+00 0.  1.
         23    2    1    2    0    0  0.51926514390E+02  0.65479144388E+02 -0.45718830480E+02  0.13271362661E+03  0.92405703186E+02 0.  0.
         23    2    1    2    0    0 -0.30267964134E+02 -0.13877310359E+03 -0.31941580306E+02  0.16606022715E+03  0.79884983294E+02 0.  0.
        -13    1    3    3    0    0  0.66547371180E+02  0.19570992777E+02 -0.48202859934E+02  0.84469474220E+02  0.00000000000E+00 0. -1.
         13    1    3    3    0    0 -0.14620856790E+02  0.45908151611E+02  0.24840294535E+01  0.48244152391E+02  0.00000000000E+00 0.  1.
        -13    1    4    4    0    0 -0.56586219087E+01 -0.20678639907E+02 -0.39764302158E+02  0.45175500843E+02  0.00000000000E+00 0. -1.
         13    1    4    4    0    0 -0.24609342225E+02 -0.11809446368E+03  0.78227218514E+01  0.12088472631E+03  0.00000000000E+00 0.  1.
         -3    1    1    2    0  502 -0.21658550256E+02  0.73293959201E+02 -0.96402490941E+02  0.12302250816E+03  0.00000000000E+00 0.  1.
<scales pt_clust_5="13000.00000" pt_clust_6="13000.00000" pt_clust_7="13000.00000" pt_clust_8="13000.00000" pt_clust_9="76.42707"></scales>
<clustering>
<clus scale="   76.427">  2  9  1 -1</clus>
<clus scale="   79.885">  7  8 -1 -1</clus>
<clus scale="   92.406">  5  6 -1 -1</clus>
<clus scale="  134.764">  2  7  1 -1</clus>
<clus scale="   76.427">  2  5  1 -1</clus>
</clustering>
</event>
<event>
 9    1  0.1445593E-005  0.3949141E+03  0.7546771E-02  0.1081303E+00
         -1   -1    0    0    0  501 -0.00000000000E+00  0.00000000000E+00  0.13082410720E+04  0.13082410720E+04  0.00000000000E+00 0.  1.
         21   -1    0    0  501  502  0.00000000000E+00 -0.00000000000E+00 -0.47525955537E+03  0.47525955537E+03  0.00000000000E+00 0.  1.
         23    2    1    2    0    0  0.75385411489E+02 -0.79902129635E+02  0.16941838980E+03  0.22373664962E+03  0.96375240575E+02 0.  0.
         23    2    1    2    0    0 -0.36836321058E+03 -0.16789152387E+03  0.97883695574E+03  0.10631401033E+04  0.90917955971E+02 0.  0.
        -11    1    4    4    0    0 -0.30205698924E+03 -0.95785613487E+02  0.73962006071E+03  0.80464348796E+03  0.00000000000E+00 0.  1.
         11    1    4    4    0    0 -0.66306221341E+02 -0.72105910386E+02  0.23921689502E+03  0.25849661539E+03  0.00000000000E+00 0. -1.
        -13    1    3    3    0    0  0.62637514415E+02 -0.36265567359E+01  0.44882168248E+02  0.77142849005E+02  0.00000000000E+00 0. -1.
         13    1    3    3    0    0  0.12747897073E+02 -0.76275572899E+02  0.12453622155E+03  0.14659380062E+03  0.00000000000E+00 0.  1.
         -1    1    1    2    0  502  0.29297779909E+03  0.24779365351E+03 -0.31527382888E+03  0.49662387443E+03  0.00000000000E+00 0.  1.
<scales pt_clust_5="13000.00000" pt_clust_6="13000.00000" pt_clust_7="13000.00000" pt_clust_8="13000.00000" pt_clust_9="384.30595"></scales>
<clustering>
<clus scale="   90.918">  5  6 -1 -1</clus>
<clus scale="   96.375">  7  8 -1 -1</clus>
<clus scale="  146.135">  1  7  2 -1</clus>
<clus scale="  384.306">  2  9  1 -1</clus>
<clus scale="  384.306">  2  5  1 -1</clus>
</clustering>
</event>
<event>
 9    1  0.1445593E-005  0.1929725E+03  0.7546771E-02  0.1156308E+00
         21   -1    0    0  501  502  0.00000000000E+00  0.00000000000E+00  0.12825314905E+03  0.12825314905E+03  0.00000000000E+00 0. -1.
         -1   -1    0    0    0  501 -0.00000000000E+00 -0.00000000000E+00 -0.42768880097E+03  0.42768880097E+03  0.00000000000E+00 0.  1.
         23    2    1    2    0    0  0.17279969735E+03 -0.31652112239E+02 -0.26691076798E+03  0.33402570956E+03  0.97315080910E+02 0.  0.
         23    2    1    2    0    0 -0.14564863384E+03  0.33943500608E+02 -0.57309466113E+02  0.18508274723E+03  0.92766171861E+02 0.  0.
        -11    1    3    3    0    0  0.15774799478E+03 -0.50165018604E+02 -0.26161443346E+03  0.30958532062E+03  0.00000000000E+00 0.  1.
         11    1    3    3    0    0  0.15051702572E+02  0.18512906364E+02 -0.52963345175E+01  0.24440388943E+02  0.00000000000E+00 0. -1.
        -13    1    4    4    0    0 -0.79338408399E+02 -0.38030076011E+01 -0.72202637518E+02  0.10734182213E+03  0.00000000000E+00 0. -1.
         13    1    4    4    0    0 -0.66310225444E+02  0.37746508209E+02  0.14893171405E+02  0.77740925097E+02  0.00000000000E+00 0.  1.
         -1    1    1    2    0  502 -0.27151063505E+02 -0.22913883689E+01  0.24784582172E+02  0.36833493231E+02  0.00000000000E+00 0.  1.
<scales pt_clust_5="13000.00000" pt_clust_6="13000.00000" pt_clust_7="13000.00000" pt_clust_8="13000.00000" pt_clust_9="27.24758"></scales>
<clustering>
<clus scale="   27.248">  1  9  2 -1</clus>
<clus scale="   92.766">  7  8 -1 -1</clus>
<clus scale="   97.315">  5  6 -1 -1</clus>
<clus scale="  190.719">  1  7  2 -1</clus>
<clus scale="   27.248">  1  5  2 -1</clus>
</clustering>
</event>
<event>
 9    1  0.1445593E-005  0.1000423E+03  0.7546771E-02  0.1280297E+00
          2   -1    0    0  502    0 -0.00000000000E+00  0.00000000000E+00  0.13922258154E+03  0.13922258154E+03  0.00000000000E+00 0. -1.
         21   -1    0    0  501  502  0.00000000000E+00 -0.00000000000E+00 -0.15499259788E+03  0.15499259788E+03  0.00000000000E+00 0.  1.
         23    2    1    2    0    0  0.34532177720E+02  0.14793280564E+02 -0.17561636537E+02  0.10036150165E+03  0.91393147930E+02 0.  0.
         23    2    1    2    0    0 -0.33704486119E+02  0.61295300753E+02 -0.14164073900E+02  0.11610574239E+03  0.91579561848E+02 0.  0.
        -11    1    4    4    0    0 -0.56165720096E+02  0.61872840890E+02  0.87420902554E+01  0.84019406661E+02  0.00000000000E+00 0. -1.
         11    1    4    4    0    0  0.22461233977E+02 -0.57754013634E+00 -0.22906164155E+02  0.32086335732E+02  0.00000000000E+00 0.  1.
        -13    1    3    3    0    0  0.56308762258E+02  0.30545545419E+02 -0.30011025733E+02  0.70741562871E+02  0.00000000000E+00 0.  1.
         13    1    3    3    0    0 -0.21776584537E+02 -0.15752264855E+02  0.12449389197E+02  0.29619938783E+02  0.00000000000E+00 0. -1.
          2    1    1    2  501    0 -0.82769160112E+00 -0.76088581318E+02  0.15955694101E+02  0.77747935372E+02  0.00000000000E+00 0. -1.
<scales pt_clust_5="13000.00000" pt_clust_6="13000.00000" pt_clust_7="13000.00000" pt_clust_8="13000.00000" pt_clust_9="76.09312"></scales>
<clustering>
<clus scale="   76.093">  2  9  1 -1</clus>
<clus scale="   91.393">  7  8 -1 -1</clus>
<clus scale="   91.580">  5  6 -1 -1</clus>
<clus scale="   99.872">  1  7  2 -1</clus>
<clus scale="   76.093">  2  5  1 -1</clus>
</clustering>
</event>
<event>
 9    1  0.1445593E-005  0.1781871E+03  0.7546771E-02  0.1169624E+00
         -1   -1    0    0    0  501 -0.00000000000E+00  0.00000000000E+00  0.11206583009E+03  0.11206583009E+03  0.00000000000E+00 0.  1.
         21   -1    0    0  501  502  0.00000000000E+00 -0.00000000000E+00 -0.73984491764E+03  0.73984491764E+03  0.00000000000E+00 0.  1.
         23    2    1    2    0    0  0.14148366794E+03 -0.57186191966E+02 -0.53871116275E+02  0.18627335274E+03  0.92237605808E+02 0.  0.
         23    2    1    2    0    0 -0.96034934512E+02  0.14144053126E+03 -0.19607587358E+03  0.27586634026E+03  0.91806083450E+02 0.  0.
        -13    1    4    4    0    0 -0.95390679944E+02  0.95576562769E+02 -0.18436356649E+03  0.22852611628E+03  0.00000000000E+00 0.  1.
         13    1    4    4    0    0 -0.64425456728E+00  0.45863968488E+02 -0.11712307091E+02  0.47340223983E+02  0.00000000000E+00 0. -1.
        -13    1    3    3    0    0  0.25118934927E+02 -0.26028500299E+02  0.23469505859E+02  0.43119153806E+02  0.00000000000E+00 0. -1.
         13    1    3    3    0    0  0.11636473302E+03 -0.31157691667E+02 -0.77340622134E+02  0.14315419893E+03  0.00000000000E+00 0.  1.
         -1    1    1    2    0  502 -0.45448733432E+02 -0.84254339291E+02 -0.37783209769E+03  0.38977105473E+03  0.00000000000E+00 0.  1.
<scales pt_clust_5="13000.00000" pt_clust_6="13000.00000" pt_clust_7="13000.00000" pt_clust_8="13000.00000" pt_clust_9="95.73077"></scales>
<clustering>
<clus scale="   91.806">  5  6 -1 -1</clus>
<clus scale="   92.238">  7  8 -1 -1</clus>
<clus scale="   95.731">  2  9  1 -1</clus>
<clus scale="  177.964">  2  5  1 -1</clus>
<clus scale="   95.731">  2  5  1 -1</clus>
</clustering>
</event>
<event>
 9    1  0.1445593E-005  0.9283787E+02  0.7546771E-02  0.1296409E+00
         21   -1    0    0  501  502  0.00000000000E+00  0.00000000000E+00  0.32531517032E+03  0.32531517032E+03  0.00000000000E+00 0. -1.
          1   -1    0    0  502    0 -0.00000000000E+00 -0.00000000000E+00 -0.64654473624E+02  0.64654473624E+02  0.00000000000E+00 0. -1.
         23    2    1    2    0    0 -0.15464983265E+02  0.12502550543E+02 -0.16482096112E+01  0.92945076114E+02  0.90777701565E+02 0.  0.
         23    2    1    2    0    0 -0.71516368830E+01 -0.17970222819E+02  0.11596474003E+03  0.14884217364E+03  0.91280320460E+02 0.  0.
        -11    1    4    4    0    0  0.33961784840E+02 -0.22569216966E+02  0.92950837417E+02  0.10150187467E+03  0.00000000000E+00 0.  1.
         11    1    4    4    0    0 -0.41113421723E+02  0.45989941472E+01  0.23013902616E+02  0.47340298970E+02  0.00000000000E+00 0. -1.
        -13    1    3    3    0    0 -0.22114968980E+02  0.44904583681E+02 -0.21379606834E+02  0.54429597435E+02  0.00000000000E+00 0.  1.
         13    1    3    3    0    0  0.66499857146E+01 -0.32402033138E+02  0.19731397223E+02  0.38515478679E+02  0.00000000000E+00 0. -1.
          1    1    1    2  501    0  0.22616620148E+02  0.54676722754E+01  0.14634416628E+03  0.14818239420E+03  0.00000000000E+00 0. -1.
<scales pt_clust_5="13000.00000" pt_clust_6="13000.00000" pt_clust_7="13000.00000" pt_clust_8="13000.00000" pt_clust_9="23.26815"></scales>
<clustering>
<clus scale="   23.268">  1  9  2 -1</clus>
<clus scale="   90.778">  7  8 -1 -1</clus>
<clus scale="   91.280">  5  6 -1 -1</clus>
<clus scale="   92.344">  2  7  1 -1</clus>
<clus scale="   23.268">  1  5  2 -1</clus>
</clustering>
</event>
<event>
 9    1  0.1445593E-005  0.1321372E+03  0.7546771E-02  0.1226077E+00
         -3   -1    0    0    0  501 -0.00000000000E+00  0.00000000000E+00  0.30364892543E+03  0.30364892543E+03  0.00000000000E+00 0.  1.
         21   -1    0    0  501  502  0.00000000000E+00 -0.00000000000E+00 -0.82649595539E+02  0.82649595539E+02  0.00000000000E+00 0. -1.
         23    2    1    2    0    0  0.20533350856E+02 -0.82124803122E+02  0.14006999472E+03  0.18697054267E+03  0.90400656088E+02 0.  0.
         23    2    1    2    0    0 -0.39025142307E+02  0.11308589032E+03  0.69502509779E+02  0.16149799535E+03  0.83304401527E+02 0.  0.
        -11    1    3    3    0    0 -0.28206111533E+02 -0.10540932156E+02  0.67761939958E+02  0.74151038330E+02  0.00000000000E+00 0.  1.
         11    1    3    3    0    0  0.48739462389E+02 -0.71583870966E+02  0.72308054758E+02  0.11281950434E+03  0.00000000000E+00 0. -1.
        -13    1    4    4    0    0 -0.91508713133E+01  0.10798697876E+03  0.73473943186E+02  0.13093260234E+03  0.00000000000E+00 0. -1.
         13    1    4    4    0    0 -0.29874270994E+02  0.50989115601E+01 -0.39714334074E+01  0.30565393009E+02  0.00000000000E+00 0.  1.
         -3    1    1    2    0  502  0.18491791451E+02 -0.30961087196E+02  0.11426825393E+02  0.37829982950E+02  0.00000000000E+00 0.  1.
<scales pt_clust_5="13000.00000" pt_clust_6="13000.00000" pt_clust_7="13000.00000" pt_clust_8="13000.00000" pt_clust_9="36.06293"></scales>
<clustering>
<clus scale="   36.063">  2  9  1 -1</clus>
<clus scale="   83.304">  7  8 -1 -1</clus>
<clus scale="   90.401">  5  6 -1 -1</clus>
<clus scale="  127.388">  2  7  1 -1</clus>
<clus scale="   36.063">  2  5  1 -1</clus>
</clustering>
</event>
<event>
 9    1  0.1445593E-005  0.1199771E+03  0.7546771E-02  0.1244430E+00
         -1   -1    0    0    0  501 -0.00000000000E+00  0.00000000000E+00  0.59417427580E+02  0.59417427580E+02  0.00000000000E+00 0.  1.
         21   -1    0    0  501  502  0.00000000000E+00 -0.00000000000E+00 -0.30822642024E+03  0.30822642024E+03  0.00000000000E+00 0. -1.
         23    2    1    2    0    0  0.35506426717E+02  0.63011358940E+02 -0.11471571741E+03  0.16290336166E+03  0.90258914930E+02 0.  0.
         23    2    1    2    0    0 -0.61878478601E+02 -0.49353689150E+02 -0.11993381700E+03  0.17183900713E+03  0.94232643833E+02 0.  0.
        -11    1    4    4    0    0 -0.44174396214E+02 -0.72040074783E+02 -0.55035305222E+02  0.10084658882E+03  0.00000000000E+00 0.  1.
         11    1    4    4    0    0 -0.17704082387E+02  0.22686385633E+02 -0.64898511778E+02  0.70992418309E+02  0.00000000000E+00 0. -1.
        -13    1    3    3    0    0  0.45432026918E+02 -0.23683894021E+01 -0.26485351771E+02  0.52641734363E+02  0.00000000000E+00 0.  1.
         13    1    3    3    0    0 -0.99256002008E+01  0.65379748342E+02 -0.88230365642E+02  0.11026162730E+03  0.00000000000E+00 0. -1.
         -1    1    1    2    0  502  0.26372051884E+02 -0.13657669790E+02 -0.14159458246E+02  0.32901479032E+02  0.00000000000E+00 0.  1.
<scales pt_clust_5="13000.00000" pt_clust_6="13000.00000" pt_clust_7="13000.00000" pt_clust_8="13000.00000" pt_clust_9="29.69879"></scales>
<clustering>
<clus scale="   29.699">  2  9  1 -1</clus>
<clus scale="   90.259">  7  8 -1 -1</clus>
<clus scale="   94.233">  5  6 -1 -1</clus>
<clus scale="  116.882">  1  7  2 -1</clus>
<clus scale="   29.699">  2  5  1 -1</clus>
</clustering>
</event>
<event>
 9    1  0.1445593E-005  0.9274024E+02  0.7546771E-02  0.1296359E+00
         21   -1    0    0  501  502  0.00000000000E+00  0.00000000000E+00  0.12480468068E+03  0.12480468068E+03  0.00000000000E+00 0. -1.
         -3   -1    0    0    0  501 -0.00000000000E+00 -0.00000000000E+00 -0.17369063853E+03  0.17369063853E+03  0.00000000000E+00 0.  1.
         23    2    1    2    0    0  0.15290844048E+02 -0.77202881130E+01 -0.11403953001E+03  0.14673642593E+03  0.90736715448E+02 0.  0.
         23    2    1    2    0    0 -0.30681324823E+02 -0.86773409325E+01  0.15699488793E+02  0.97431593539E+02  0.90718253580E+02 0.  0.
        -13    1    3    3    0    0  0.52409875388E+02 -0.97363548109E+01 -0.81204050285E+02  0.97137476938E+02  0.00000000000E+00 0.  1.
         13    1    3    3    0    0 -0.37119031340E+02  0.20160666978E+01 -0.32835479722E+02  0.49598948992E+02  0.00000000000E+00 0. -1.
        -13    1    4    4    0    0  0.30679213738E+02 -0.14239792329E+02  0.11308166376E+02  0.35663152805E+02  0.00000000000E+00 0.  1.
         13    1    4    4    0    0 -0.61360538562E+02  0.55624513970E+01  0.43913224167E+01  0.61768440734E+02  0.00000000000E+00 0. -1.
         -3    1    1    2    0  502  0.15390480775E+02  0.16397629046E+02  0.49454083364E+02  0.54327299751E+02  0.00000000000E+00 0.  1.
<scales pt_clust_5="13000.00000" pt_clust_6="13000.00000" pt_clust_7="13000.00000" pt_clust_8="13000.00000" pt_clust_9="22.48887"></scales>
<clustering>
<clus scale="   22.489">  1  9  2 -1</clus>
<clus scale="   90.718">  7  8 -1 -1</clus>
<clus scale="   90.737">  5  6 -1 -1</clus>
<clus scale="   92.722">  1  7  2 -1</clus>
<clus scale="   22.489">  1  5  2 -1</clus>
</clustering>
</event>
<event>
 9    1  0.1445593E-005  0.1409424E+03  0.7546771E-02  0.1231482E+00
         -1   -1    0    0    0  501 -0.00000000000E+00  0.00000000000E+00  0.57567619398E+03  0.57567619398E+03  0.00000000000E+00 0.  1.
         21   -1    0    0  501  502  0.00000000000E+00 -0.00000000000E+00 -0.62784793149E+02  0.62784793149E+02  0.00000000000E+00 0. -1.
         23    2    1    2    0    0  0.13711716243E+02 -0.92489560168E+01  0.28053049752E+03  0.29581785835E+03  0.92397461725E+02 0.  0.
         23    2    1    2    0    0 -0.28059289678E+02 -0.10079007054E+03  0.15365946965E+03  0.20659771029E+03  0.90141107312E+02 0.  0.
        -11    1    4    4    0    0  0.13981872527E+02 -0.78040750089E+02  0.13230840228E+03  0.15424449665E+03  0.00000000000E+00 0.  1.
         11    1    4    4    0    0 -0.42041162205E+02 -0.22749320455E+02  0.21351067373E+02  0.52353213643E+02  0.00000000000E+00 0. -1.
        -11    1    3    3    0    0  0.42247411975E+02  0.12664984094E+02  0.73761374955E+02  0.85941759791E+02  0.00000000000E+00 0.  1.
         11    1    3    3    0    0 -0.28535695732E+02 -0.21913940111E+02  0.20676912256E+03  0.20987609856E+03  0.00000000000E+00 0. -1.
         -1    1    1    2    0  502  0.14347573435E+02  0.11003902656E+03  0.78701433665E+02  0.13604541849E+03  0.00000000000E+00 0.  1.
<scales pt_clust_5="13000.00000" pt_clust_6="13000.00000" pt_clust_7="13000.00000" pt_clust_8="13000.00000" pt_clust_9="108.34826"></scales>
<clustering>
<clus scale="   90.141">  5  6 -1 -1</clus>
<clus scale="   92.397">  7  8 -1 -1</clus>
<clus scale="   93.866">  1  7  2 -1</clus>
<clus scale="  108.348">  2  9  1 -1</clus>
<clus scale="  108.348">  2  5  1 -1</clus>
</clustering>
</event>
<event>
 9    1  0.1445593E-005  0.1755755E+03  0.7546771E-02  0.1172616E+00
         -3   -1    0    0    0  501 -0.00000000000E+00  0.00000000000E+00  0.38035044859E+03  0.38035044859E+03  0.00000000000E+00 0.  1.
         21   -1    0    0  501  502  0.00000000000E+00 -0.00000000000E+00 -0.21083439217E+03  0.21083439217E+03  0.00000000000E+00 0.  1.
         23    2    1    2    0    0  0.11210519692E+03  0.86177678444E+02  0.25500162554E+03  0.30593515429E+03  0.92608434634E+02 0.  0.
         23    2    1    2    0    0 -0.16859766007E+03 -0.98042056690E+02 -0.67524258337E+02  0.22479498815E+03  0.89083361931E+02 0.  0.
        -11    1    3    3    0    0  0.59157568548E+02 -0.87994192550E+01  0.10173462513E+03  0.11801263341E+03  0.00000000000E+00 0. -1.
         11    1    3    3    0    0  0.52947628374E+02  0.94977097699E+02  0.15326700041E+03  0.18792252088E+03  0.00000000000E+00 0.  1.
        -13    1    4    4    0    0 -0.50065110581E+02 -0.89858789726E+01 -0.56653412475E+02  0.76137181872E+02  0.00000000000E+00 0.  1.
         13    1    4    4    0    0 -0.11853254949E+03 -0.89056177718E+02 -0.10870845862E+02  0.14865780628E+03  0.00000000000E+00 0. -1.
         -3    1    1    2    0  502  0.56492463144E+02  0.11864378247E+02 -0.17961310778E+02  0.60454698313E+02  0.00000000000E+00 0.  1.
<scales pt_clust_5="13000.00000" pt_clust_6="13000.00000" pt_clust_7="13000.00000" pt_clust_8="13000.00000" pt_clust_9="57.72488"></scales>
<clustering>
<clus scale="   57.725">  2  9  1 -1</clus>
<clus scale="   89.083">  7  8 -1 -1</clus>
<clus scale="   92.608">  5  6 -1 -1</clus>
<clus scale="  173.742">  2  7  1 -1</clus>
<clus scale="   57.725">  2  5  1 -1</clus>
</clustering>
</event>
<event>
 9    1  0.1445593E-005  0.9653790E+02  0.7546771E-02  0.1291911E+00
          1   -1    0    0  502    0 -0.00000000000E+00  0.00000000000E+00  0.27218193158E+02  0.27218193158E+02  0.00000000000E+00 0. -1.
         21   -1    0    0  501  502  0.00000000000E+00 -0.00000000000E+00 -0.52306613233E+03  0.52306613233E+03  0.00000000000E+00 0.  1.
         23    2    1    2    0    0  0.86149398223E+01 -0.37224568559E+02 -0.94386202638E+02  0.13159054085E+03  0.83351241744E+02 0.  0.
         23    2    1    2    0    0 -0.49459423322E+01  0.16274057035E+02 -0.26828287164E+03  0.28382720045E+03  0.91065214117E+02 0.  0.
        -11    1    4    4    0    0 -0.47446513972E+02  0.66956971215E+01 -0.11802878450E+03  0.12738444967E+03  0.00000000000E+00 0. -1.
         11    1    4    4    0    0  0.42500571640E+02  0.95783599130E+01 -0.15025408714E+03  0.15644275078E+03  0.00000000000E+00 0.  1.
        -13    1    3    3    0    0  0.43335750573E+02 -0.11023723201E+02 -0.65744872984E+02  0.79510364574E+02  0.00000000000E+00 0.  1.
         13    1    3    3    0    0 -0.34720810751E+02 -0.26200845359E+02 -0.28641329654E+02  0.52080176277E+02  0.00000000000E+00 0. -1.
          1    1    1    2  501    0 -0.36689974901E+01  0.20950511525E+02 -0.13317886489E+03  0.13486658418E+03  0.00000000000E+00 0. -1.
<scales pt_clust_5="13000.00000" pt_clust_6="13000.00000" pt_clust_7="13000.00000" pt_clust_8="13000.00000" pt_clust_9="21.26936"></scales>
<clustering>
<clus scale="   21.269">  2  9  1 -1</clus>
<clus scale="   83.351">  7  8 -1 -1</clus>
<clus scale="   89.298">  1  7  2 -1</clus>
<clus scale="   91.065">  5  6 -1 -1</clus>
<clus scale="   21.269">  2  5  1 -1</clus>
</clustering>
</event>
<event>
 9    1  0.1445593E-005  0.1147295E+03  0.7546771E-02  0.1256290E+00
          3   -1    0    0  502    0 -0.00000000000E+00  0.00000000000E+00  0.39981372424E+02  0.39981372424E+02  0.00000000000E+00 0. -1.
         21   -1    0    0  501  502  0.00000000000E+00 -0.00000000000E+00 -0.40403982883E+03  0.40403982883E+03  0.00000000000E+00 0. -1.
         23    2    1    2    0    0 -0.70615358793E+02 -0.36734526154E+02 -0.14008876131E+03  0.18668409958E+03  0.94287526640E+02 0.  0.
         23    2    1    2    0    0  0.45346616963E+02  0.20354162168E+02 -0.16746722641E+03  0.19331089918E+03  0.82784202812E+02 0.  0.
        -11    1    3    3    0    0 -0.63518734422E+01  0.29979182149E+02 -0.38424771415E+02  0.49148354163E+02  0.00000000000E+00 0.  1.
         11    1    3    3    0    0 -0.64263485351E+02 -0.66713708303E+02 -0.10166398990E+03  0.13753574541E+03  0.00000000000E+00 0. -1.
        -11    1    4    4    0    0  0.69534712999E+02  0.10218913635E+02 -0.11907539949E+03  0.13826949509E+03  0.00000000000E+00 0.  1.
         11    1    4    4    0    0 -0.24188096036E+02  0.10135248532E+02 -0.48391826916E+02  0.55041404096E+02  0.00000000000E+00 0. -1.
          3    1    1    2  501    0  0.25268741830E+02  0.16380363986E+02 -0.56502468681E+02  0.64026202488E+02  0.00000000000E+00 0. -1.
<scales pt_clust_5="13000.00000" pt_clust_6="13000.00000" pt_clust_7="13000.00000" pt_clust_8="13000.00000" pt_clust_9="30.11355"></scales>
<clustering>
<clus scale="   30.114">  2  9  1 -1</clus>
<clus scale="   82.784">  7  8 -1 -1</clus>
<clus scale="   94.288">  5  6 -1 -1</clus>
<clus scale="  105.480">  2  7  1 -1</clus>
<clus scale="   30.114">  2  5  1 -1</clus>
</clustering>
</event>
<event>
 9    1  0.1445593E-005  0.1020334E+03  0.7546771E-02  0.1279357E+00
         21   -1    0    0  501  502  0.00000000000E+00  0.00000000000E+00  0.40950317408E+03  0.40950317408E+03  0.00000000000E+00 0. -1.
          3   -1    0    0  502    0 -0.00000000000E+00 -0.00000000000E+00 -0.38152326808E+02  0.38152326808E+02  0.00000000000E+00 0. -1.
         23    2    1    2    0    0 -0.18145387357E+02  0.45638119487E+02  0.10536123194E+03  0.14608427413E+03  0.88473345811E+02 0.  0.
         23    2    1    2    0    0 -0.46730805818E+01 -0.24401698629E+02  0.13558715757E+03  0.16749487150E+03  0.95149220189E+02 0.  0.
        -13    1    4    4    0    0 -0.48787072976E+01 -0.48805804629E+02  0.26577719518E+02  0.55786947624E+02  0.00000000000E+00 0. -1.
         13    1    4    4    0    0  0.20562671583E+00  0.24404106000E+02  0.10900943805E+03  0.11170792388E+03  0.00000000000E+00 0.  1.
        -13    1    3    3    0    0  0.32220857417E+02  0.11011927313E+02  0.63338764208E+02  0.71911370778E+02  0.00000000000E+00 0.  1.
         13    1    3    3    0    0 -0.50366244774E+02  0.34626192174E+02  0.42022467735E+02  0.74172903352E+02  0.00000000000E+00 0. -1.
          3    1    1    2  501    0  0.22818467939E+02 -0.21236420858E+02  0.13040245775E+03  0.13407635525E+03  0.00000000000E+00 0. -1.
<scales pt_clust_5="13000.00000" pt_clust_6="13000.00000" pt_clust_7="13000.00000" pt_clust_8="13000.00000" pt_clust_9="31.17159"></scales>
<clustering>
<clus scale="   31.172">  1  9  2 -1</clus>
<clus scale="   88.473">  7  8 -1 -1</clus>
<clus scale="   95.149">  5  6 -1 -1</clus>
<clus scale="   95.838">  2  7  1 -1</clus>
<clus scale="   31.172">  1  5  2 -1</clus>
</clustering>
</event>
<event>
 9    1  0.1445593E-005  0.1089649E+03  0.7546771E-02  0.1265489E+00
          1   -1    0    0  502    0 -0.00000000000E+00  0.00000000000E+00  0.33204515603E+03  0.33204515603E+03  0.00000000000E+00 0. -1.
         21   -1    0    0  501  502  0.00000000000E+00 -0.00000000000E+00 -0.69816660821E+02  0.69816660821E+02  0.00000000000E+00 0.  1.
         23    2    1    2    0    0 -0.49013266002E+02 -0.31107128506E+02  0.22293607222E+03  0.24960757706E+03  0.96091084593E+02 0.  0.
         23    2    1    2    0    0  0.21056154985E+02  0.35388667724E+02  0.61953756012E+02  0.11601244556E+03  0.89021908398E+02 0.  0.
        -11    1    4    4    0    0  0.25304914208E+02  0.11234832148E+02  0.80588088742E+02  0.85211502648E+02  0.00000000000E+00 0. -1.
         11    1    4    4    0    0 -0.42487592236E+01  0.24153835576E+02 -0.18634332730E+02  0.30800942912E+02  0.00000000000E+00 0.  1.
        -13    1    3    3    0    0 -0.13141341157E+01 -0.42778759786E+02  0.34779634692E+02  0.55148637578E+02  0.00000000000E+00 0.  1.
         13    1    3    3    0    0 -0.47699131886E+02  0.11671631280E+02  0.18815643753E+03  0.19445893948E+03  0.00000000000E+00 0. -1.
          1    1    1    2  501    0  0.27957111017E+02 -0.42815392180E+01 -0.22661333028E+02  0.36241794231E+02  0.00000000000E+00 0. -1.
<scales pt_clust_5="13000.00000" pt_clust_6="13000.00000" pt_clust_7="13000.00000" pt_clust_8="13000.00000" pt_clust_9="28.28306"></scales>
<clustering>
<clus scale="   28.283">  2  9  1 -1</clus>
<clus scale="   89.022">  5  6 -1 -1</clus>
<clus scale="   96.091">  7  8 -1 -1</clus>
<clus scale="  102.785">  2  5  1 -1</clus>
<clus scale="   28.283">  2  5  1 -1</clus>
</clustering>
</event>
<event>
 9    1  0.1445593E-005  0.1298285E+03  0.7546771E-02  0.1229172E+00
         21   -1    0    0  501  502  0.00000000000E+00  0.00000000000E+00  0.12608459903E+03  0.12608459903E+03  0.00000000000E+00 0. -1.
          2   -1    0    0  502    0 -0.00000000000E+00 -0.00000000000E+00 -0.34827213194E+03  0.34827213194E+03  0.00000000000E+00 0. -1.
         23    2    1    2    0    0  0.31407397009E+02  0.80684121402E+02 -0.13423098060E+03  0.18096779863E+03  0.85059014538E+02 0.  0.
         23    2    1    2    0    0 -0.17786212408E+02 -0.98733212177E+02 -0.16485835910E+03  0.21323162303E+03  0.90690958515E+02 0.  0.
        -11    1    3    3    0    0 -0.25265135721E+02  0.45314850864E+02 -0.40257148194E+02  0.65668872174E+02  0.00000000000E+00 0.  1.
         11    1    3    3    0    0  0.56672532730E+02  0.35369270538E+02 -0.93973832409E+02  0.11529892646E+03  0.00000000000E+00 0. -1.
        -13    1    4    4    0    0 -0.55086852651E+02 -0.59045300492E+02 -0.96603934867E+02  0.12590960677E+03  0.00000000000E+00 0.  1.
         13    1    4    4    0    0  0.37300640243E+02 -0.39687911685E+02 -0.68254424233E+02  0.87322016261E+02  0.00000000000E+00 0. -1.
          2    1    1    2  501    0 -0.13621184601E+02  0.18049090775E+02  0.76901806792E+02  0.80157309309E+02  0.00000000000E+00 0. -1.
<scales pt_clust_5="13000.00000" pt_clust_6="13000.00000" pt_clust_7="13000.00000" pt_clust_8="13000.00000" pt_clust_9="22.61208"></scales>
<clustering>
<clus scale="   22.612">  1  9  2 -1</clus>
<clus scale="   85.059">  5  6 -1 -1</clus>
<clus scale="   90.691">  7  8 -1 -1</clus>
<clus scale="  125.959">  2  5  1 -1</clus>
<clus scale="   22.612">  1  5  2 -1</clus>
</clustering>
</event>
<event>
 9    1  0.1445593E-005  0.1109408E+03  0.7546771E-02  0.1259999E+00
          3   -1    0    0  502    0 -0.00000000000E+00  0.00000000000E+00  0.99325159909E+02  0.99325159909E+02  0.00000000000E+00 0. -1.
         21   -1    0    0  501  502  0.00000000000E+00 -0.00000000000E+00 -0.16276406030E+03  0.16276406030E+03  0.00000000000E+00 0.  1.
         23    2    1    2    0    0  0.51796744984E+02  0.19059160865E+02  0.95324531844E+01  0.10920839189E+03  0.93752070869E+02 0.  0.
         23    2    1    2    0    0 -0.56095195968E+02 -0.38753281307E+02 -0.56287708931E+02  0.12671445563E+03  0.90773119734E+02 0.  0.
        -11    1    3    3    0    0 -0.11826229188E+02 -0.20850882660E+02  0.22635434854E+02  0.32969408784E+02  0.00000000000E+00 0.  1.
         11    1    3    3    0    0  0.63622974173E+02  0.39910043525E+02 -0.13102981670E+02  0.76238983108E+02  0.00000000000E+00 0. -1.
        -13    1    4    4    0    0 -0.82591851979E+00  0.24416499311E+02 -0.30146241494E+02  0.38802621770E+02  0.00000000000E+00 0. -1.
         13    1    4    4    0    0 -0.55269277448E+02 -0.63169780618E+02 -0.26141467437E+02  0.87911833861E+02  0.00000000000E+00 0.  1.
          3    1    1    2  501    0  0.42984509836E+01  0.19694120443E+02 -0.16683644642E+02  0.26166372683E+02  0.00000000000E+00 0. -1.
<scales pt_clust_5="13000.00000" pt_clust_6="13000.00000" pt_clust_7="13000.00000" pt_clust_8="13000.00000" pt_clust_9="20.15775"></scales>
<clustering>
<clus scale="   20.158">  2  9  1 -1</clus>
<clus scale="   90.773">  7  8 -1 -1</clus>
<clus scale="   93.752">  5  6 -1 -1</clus>
<clus scale="  108.435">  2  7  1 -1</clus>
<clus scale="   20.158">  2  5  1 -1</clus>
</clustering>
</event>
<event>
 9    1  0.1445593E-005  0.1234269E+03  0.7546771E-02  0.1237653E+00
          2   -1    0    0  502    0 -0.00000000000E+00  0.00000000000E+00  0.44964377871E+03  0.44964377871E+03  0.00000000000E+00 0. -1.
         21   -1    0    0  501  502  0.00000000000E+00 -0.00000000000E+00 -0.73155479490E+02  0.73155479490E+02  0.00000000000E+00 0.  1.
         23    2    1    2    0    0 -0.11025806889E+02  0.81815254566E+02  0.33591469126E+03  0.35750105975E+03  0.90294095143E+02 0.  0.
         23    2    1    2    0    0 -0.15808947158E+02 -0.93722736226E+02  0.34396987572E+02  0.13529748540E+03  0.89935436320E+02 0.  0.
        -13    1    4    4    0    0 -0.36830808822E+02 -0.63623158902E+01  0.24970816564E+02  0.44950297239E+02  0.00000000000E+00 0. -1.
         13    1    4    4    0    0  0.21021861664E+02 -0.87360420336E+02  0.94261710078E+01  0.90347188163E+02  0.00000000000E+00 0.  1.
        -13    1    3    3    0    0  0.20619709607E+02 -0.11630861230E+02  0.63030386537E+02  0.67329629319E+02  0.00000000000E+00 0.  1.
         13    1    3    3    0    0 -0.31645516496E+02  0.93446115796E+02  0.27288430473E+03  0.29017143043E+03  0.00000000000E+00 0. -1.
          2    1    1    2  501    0  0.26834754047E+02  0.11907481660E+02  0.61766203879E+01  0.30000713052E+02  0.00000000000E+00 0. -1.
<scales pt_clust_5="13000.00000" pt_clust_6="13000.00000" pt_clust_7="13000.00000" pt_clust_8="13000.00000" pt_clust_9="29.35800"></scales>
<clustering>
<clus scale="   29.358">  2  9  1 -1</clus>
<clus scale="   89.935">  5  6 -1 -1</clus>
<clus scale="   90.294">  7  8 -1 -1</clus>
<clus scale="  123.165">  2  5  1 -1</clus>
<clus scale="   29.358">  2  5  1 -1</clus>
</clustering>
</event>
<event>
 9    1  0.1445593E-005  0.9570158E+02  0.7546771E-02  0.1289927E+00
          1   -1    0    0  502    0 -0.00000000000E+00  0.00000000000E+00  0.19569405633E+03  0.19569405633E+03  0.00000000000E+00 0. -1.
         21   -1    0    0  501  502  0.00000000000E+00 -0.00000000000E+00 -0.35029512774E+03  0.35029512774E+03  0.00000000000E+00 0. -1.
         23    2    1    2    0    0  0.46122235403E+01 -0.31037333538E+02  0.16857015525E+03  0.19397145351E+03  0.90688692015E+02 0.  0.
         23    2    1    2    0    0  0.75411915586E+01 -0.82060798106E+01 -0.16831095276E+03  0.19180082938E+03  0.91294972577E+02 0.  0.
        -11    1    4    4    0    0 -0.38300701736E+02 -0.20530090030E+02 -0.66108861386E+02  0.79112640607E+02  0.00000000000E+00 0. -1.
         11    1    4    4    0    0  0.45841893295E+02  0.12324010220E+02 -0.10220209137E+03  0.11268818877E+03  0.00000000000E+00 0.  1.
        -13    1    3    3    0    0 -0.23680211004E+01  0.29114897325E+02  0.26126510263E+02  0.39190296104E+02  0.00000000000E+00 0.  1.
         13    1    3    3    0    0  0.69802446407E+01 -0.60152230863E+02  0.14244364498E+03  0.15478115741E+03  0.00000000000E+00 0. -1.
          1    1    1    2  501    0 -0.12153415099E+02  0.39243413348E+02 -0.15486027390E+03  0.16021690117E+03  0.00000000000E+00 0. -1.
<scales pt_clust_5="13000.00000" pt_clust_6="13000.00000" pt_clust_7="13000.00000" pt_clust_8="13000.00000" pt_clust_9="41.08225"></scales>
<clustering>
<clus scale="   41.082">  2  9  1 -1</clus>
<clus scale="   90.689">  7  8 -1 -1</clus>
<clus scale="   91.295">  5  6 -1 -1</clus>
<clus scale="   95.123">  1  7  2 -1</clus>
<clus scale="   41.082">  2  5  1 -1</clus>
</clustering>
</event>
<event>
 9    1  0.1445593E-005  0.1433797E+03  0.7546771E-02  0.1227219E+00
         -3   -1    0    0    0  501 -0.00000000000E+00  0.00000000000E+00  0.97411283590E+02  0.97411283590E+02  0.00000000000E+00 0.  1.
         21   -1    0    0  501  502  0.00000000000E+00 -0.00000000000E+00 -0.38430330736E+03  0.38430330736E+03  0.00000000000E+00 0.  1.
         23    2    1    2    0    0 -0.61053841882E+01  0.34418706468E+02 -0.53640050103E+01  0.97522337956E+02  0.90884051294E+02 0.  0.
         23    2    1    2    0    0 -0.95539870852E+02 -0.65907648306E+02 -0.20662209574E+03  0.25406074784E+03  0.91555928903E+02 0.  0.
        -11    1    4    4    0    0 -0.57083937469E+02 -0.86844118789E+02 -0.14998831950E+03  0.18247458144E+03  0.00000000000E+00 0.  1.
         11    1    4    4    0    0 -0.38455933383E+02  0.20936470483E+02 -0.56633776238E+02  0.71586166398E+02  0.00000000000E+00 0. -1.
        -13    1    3    3    0    0  0.31286240659E+02 -0.11015486174E+02 -0.17409209485E+02  0.37459983518E+02  0.00000000000E+00 0.  1.
         13    1    3    3    0    0 -0.37391624847E+02  0.45434192643E+02  0.12045204475E+02  0.60062354438E+02  0.00000000000E+00 0. -1.
         -3    1    1    2    0  502  0.10164525504E+03  0.31488941837E+02 -0.74905923022E+02  0.13013150516E+03  0.00000000000E+00 0.  1.
<scales pt_clust_5="13000.00000" pt_clust_6="13000.00000" pt_clust_7="13000.00000" pt_clust_8="13000.00000" pt_clust_9="110.34157"></scales>
<clustering>
<clus scale="   90.884">  7  8 -1 -1</clus>
<clus scale="   91.556">  5  6 -1 -1</clus>
<clus scale="   97.375">  1  7  2 -1</clus>
<clus scale="  110.342">  2  9  1 -1</clus>
<clus scale="  110.342">  2  5  1 -1</clus>
</clustering>
</event>
<event>
 9    1  0.1625969E-005  0.1043544E+03  0.7546771E-02  0.1271922E+00
         21   -1    0    0  501  502  0.00000000000E+00  0.00000000000E+00  0.59708390183E+02  0.59708390183E+02  0.00000000000E+00 0.  1.
          2   -1    0    0  502    0 -0.00000000000E+00 -0.00000000000E+00 -0.37787082015E+03  0.37787082015E+03  0.00000000000E+00 0. -1.
         23    2    1    2    0    0 -0.39593748594E+02  0.17652795707E+02 -0.22101419785E+03  0.24295677562E+03  0.91112200316E+02 0.  0.
         23    2    1    2    0    0  0.77612014606E+02  0.82303422168E+01 -0.87177820796E+02  0.14756146913E+03  0.89905791744E+02 0.  0.
        -11    1    3    3    0    0 -0.24562738590E+02  0.51826079318E+02 -0.17222169331E+03  0.18152019797E+03  0.00000000000E+00 0. -1.
         11    1    3    3    0    0 -0.15031010004E+02 -0.34173283611E+02 -0.48792504537E+02  0.61436577651E+02  0.00000000000E+00 0.  1.
        -13    1    4    4    0    0  0.20892709571E+02  0.38648764880E+01  0.18090581233E+02  0.27905406516E+02  0.00000000000E+00 0.  1.
         13    1    4    4    0    0  0.56719305034E+02  0.43654657288E+01 -0.10526840203E+03  0.11965606261E+03  0.00000000000E+00 0. -1.
          2    1    1    2  501    0 -0.38018266012E+02 -0.25883137924E+02 -0.99704113219E+01  0.47060965579E+02  0.00000000000E+00 0. -1.
<scales pt_clust_5="13000.00000" pt_clust_6="13000.00000" pt_clust_7="13000.00000" pt_clust_8="13000.00000" pt_clust_9="45.99267"></scales>
<clustering>
<clus scale="   45.993">  1  9  2 -1</clus>
<clus scale="   89.906">  7  8 -1 -1</clus>
<clus scale="   91.112">  5  6 -1 -1</clus>
<clus scale="  103.303">  1  7  2 -1</clus>
<clus scale="   45.993">  1  5  2 -1</clus>
</clustering>
</event>
<event>
 9    1  0.1445593E-005  0.9158447E+02  0.7546771E-02  0.1299129E+00
         21   -1    0    0  501  502  0.00000000000E+00  0.00000000000E+00  0.92134389040E+02  0.92134389040E+02  0.00000000000E+00 0. -1.
          2   -1    0    0  502    0 -0.00000000000E+00 -0.00000000000E+00 -0.46544145506E+03  0.46544145506E+03  0.00000000000E+00 0. -1.
         23    2    1    2    0    0 -0.16781105335E+02  0.15833721794E+02 -0.29638414104E+03  0.31075845415E+03  0.90525938381E+02 0.  0.
         23    2    1    2    0    0 -0.20495816114E+02 -0.59112906516E+01 -0.14279837024E+03  0.17047868549E+03  0.90645385035E+02 0.  0.
        -13    1    4    4    0    0  0.25517710243E+02 -0.18892717287E+02 -0.17246779949E+02  0.36132253198E+02  0.00000000000E+00 0.  1.
         13    1    4    4    0    0 -0.46013526357E+02  0.12981426636E+02 -0.12555159029E+03  0.13434643229E+03  0.00000000000E+00 0. -1.
        -13    1    3    3    0    0 -0.86354019178E+00  0.50181624057E+02 -0.21811358986E+03  0.22381349194E+03  0.00000000000E+00 0. -1.
         13    1    3    3    0    0 -0.15917565143E+02 -0.34347902263E+02 -0.78270551185E+02  0.86944962204E+02  0.00000000000E+00 0.  1.
          2    1    1    2  501    0  0.37276921449E+02 -0.99224311421E+01  0.65875445256E+02  0.76338704470E+02  0.00000000000E+00 0. -1.
<scales pt_clust_5="13000.00000" pt_clust_6="13000.00000" pt_clust_7="13000.00000" pt_clust_8="13000.00000" pt_clust_9="38.57491"></scales>
<clustering>
<clus scale="   38.575">  1  9  2 -1</clus>
<clus scale="   90.526">  7  8 -1 -1</clus>
<clus scale="   90.645">  5  6 -1 -1</clus>
<clus scale="   91.466">  2  7  1 -1</clus>
<clus scale="   38.575">  1  5  2 -1</clus>
</clustering>
</event>
<event>
 9    1  0.1445593E-005  0.1055394E+03  0.7546771E-02  0.1269727E+00
          2   -1    0    0  502    0 -0.00000000000E+00  0.00000000000E+00  0.53220466271E+03  0.53220466271E+03  0.00000000000E+00 0. -1.
         21   -1    0    0  501  502  0.00000000000E+00 -0.00000000000E+00 -0.31009803065E+02  0.31009803065E+02  0.00000000000E+00 0.  1.
         23    2    1    2    0    0  0.23726390289E+02 -0.53253949837E+02  0.28929275515E+03  0.30873210406E+03  0.90698892638E+02 0.  0.
         23    2    1    2    0    0 -0.95293361965E+00  0.44684707923E+02  0.20498376117E+03  0.22918560876E+03  0.92250039093E+02 0.  0.
        -11    1    3    3    0    0  0.70808521527E+01 -0.77453014762E+02  0.19379033355E+03  0.20881523253E+03  0.00000000000E+00 0.  1.
         11    1    3    3    0    0  0.16645538136E+02  0.24199064925E+02  0.95502421607E+02  0.99916871528E+02  0.00000000000E+00 0. -1.
        -13    1    4    4    0    0  0.29592720651E+02  0.23694487122E+02  0.18125692357E+03  0.18517891396E+03  0.00000000000E+00 0. -1.
         13    1    4    4    0    0 -0.30545654271E+02  0.20990220801E+02  0.23726837607E+02  0.44006694797E+02  0.00000000000E+00 0.  1.
          2    1    1    2  501    0 -0.22773456669E+02  0.85692419139E+01  0.69183433180E+01  0.25296752952E+02  0.00000000000E+00 0. -1.
<scales pt_clust_5="13000.00000" pt_clust_6="13000.00000" pt_clust_7="13000.00000" pt_clust_8="13000.00000" pt_clust_9="24.33233"></scales>
<clustering>
<clus scale="   24.332">  2  9  1 -1</clus>
<clus scale="   90.699">  5  6 -1 -1</clus>
<clus scale="   92.250">  7  8 -1 -1</clus>
<clus scale="  104.186">  1  5  2 -1</clus>
<clus scale="   24.332">  2  5  1 -1</clus>
</clustering>
</event>
<event>
 9    1  0.1445593E-005  0.1036090E+03  0.7546771E-02  0.1275490E+00
         -3   -1    0    0    0  501 -0.00000000000E+00  0.00000000000E+00  0.53430157998E+02  0.53430157998E+02  0.00000000000E+00 0.  1.
         21   -1    0    0  501  502  0.00000000000E+00 -0.00000000000E+00 -0.50662177582E+03  0.50662177582E+03  0.00000000000E+00 0. -1.
         23    2    1    2    0    0  0.10335064839E+01  0.60479898314E+02 -0.32638580671E+02  0.11499945776E+03  0.92199306402E+02 0.  0.
         23    2    1    2    0    0 -0.12192427212E+02 -0.85006688611E+01 -0.20402730090E+03  0.22209562762E+03  0.86477810120E+02 0.  0.
        -11    1    3    3    0    0 -0.25741476190E+02  0.73201872403E+02 -0.35277138148E+02  0.85238572229E+02  0.00000000000E+00 0.  1.
         11    1    3    3    0    0  0.26774982674E+02 -0.12721974090E+02  0.26385574770E+01  0.29760885529E+02  0.00000000000E+00 0. -1.
        -13    1    4    4    0    0  0.79670141323E+01  0.35464786037E+02 -0.59865202785E+02  0.70036182558E+02  0.00000000000E+00 0. -1.
         13    1    4    4    0    0 -0.20159441345E+02 -0.43965454898E+02 -0.14416209812E+03  0.15205944507E+03  0.00000000000E+00 0.  1.
         -3    1    1    2    0  502  0.11158920728E+02 -0.51979229453E+02 -0.21652573625E+03  0.22295684844E+03  0.00000000000E+00 0.  1.
<scales pt_clust_5="13000.00000" pt_clust_6="13000.00000" pt_clust_7="13000.00000" pt_clust_8="13000.00000" pt_clust_9="53.16354"></scales>
<clustering>
<clus scale="   53.164">  2  9  1 -1</clus>
<clus scale="   86.478">  7  8 -1 -1</clus>
<clus scale="   92.199">  5  6 -1 -1</clus>
<clus scale="   98.552">  2  7  1 -1</clus>
<clus scale="   53.164">  2  5  1 -1</clus>
</clustering>
</event>
<event>
 9    1  0.1445593E-005  0.2373247E+03  0.7546771E-02  0.1121715E+00
          1   -1    0    0  502    0 -0.00000000000E+00  0.00000000000E+00  0.65148492770E+03  0.65148492770E+03  0.00000000000E+00 0. -1.
         21   -1    0    0  501  502  0.00000000000E+00 -0.00000000000E+00 -0.11443261367E+03  0.11443261367E+03  0.00000000000E+00 0. -1.
         23    2    1    2    0    0 -0.12008222196E+03 -0.17675054722E+03  0.37514617991E+03  0.44103500598E+03  0.90092864440E+02 0.  0.
         23    2    1    2    0    0  0.10731261560E+03  0.20348108373E+03  0.16051936266E+03  0.29522604261E+03  0.92040216996E+02 0.  0.
        -11    1    4    4    0    0  0.11177532001E+03  0.12939178728E+03  0.91775150354E+02  0.19405832886E+03  0.00000000000E+00 0. -1.
         11    1    4    4    0    0 -0.44627044109E+01  0.74089296451E+02  0.68744212310E+02  0.10116771375E+03  0.00000000000E+00 0.  1.
        -11    1    3    3    0    0 -0.85142239683E+02 -0.46781207862E+02  0.16558454336E+03  0.19197896600E+03  0.00000000000E+00 0. -1.
         11    1    3    3    0    0 -0.34939982277E+02 -0.12996933936E+03  0.20956163656E+03  0.24905603998E+03  0.00000000000E+00 0.  1.
          1    1    1    2  501    0  0.12769606358E+02 -0.26730536506E+02  0.13867714503E+01  0.29656492771E+02  0.00000000000E+00 0. -1.
<scales pt_clust_5="13000.00000" pt_clust_6="13000.00000" pt_clust_7="13000.00000" pt_clust_8="13000.00000" pt_clust_9="29.62405"></scales>
<clustering>
<clus scale="   29.624">  2  9  1 -1</clus>
<clus scale="   90.093">  7  8 -1 -1</clus>
<clus scale="   92.040">  5  6 -1 -1</clus>
<clus scale="  236.576">  1  7  2 -1</clus>
<clus scale="   29.624">  2  5  1 -1</clus>
</clustering>
</event>
<event>
 9    1  0.1445593E-005  0.2118194E+03  0.7546771E-02  0.1140185E+00
          3   -1    0    0  502    0 -0.00000000000E+00  0.00000000000E+00  0.65634634564E+02  0.65634634564E+02  0.00000000000E+00 0. -1.
         21   -1    0    0  501  502  0.00000000000E+00 -0.00000000000E+00 -0.20123588515E+04  0.20123588515E+04  0.00000000000E+00 0. -1.
         23    2    1    2    0    0  0.13189853966E+03  0.15267214997E+03 -0.75514837918E+03  0.78672784899E+03  0.89362316786E+02 0.  0.
         23    2    1    2    0    0  0.50935615903E+02 -0.22584111918E+03 -0.93792098083E+03  0.97013822787E+03  0.88734248234E+02 0.  0.
        -11    1    4    4    0    0 -0.15196526312E+02 -0.39570537205E+02 -0.89989470221E+02  0.99472943946E+02  0.00000000000E+00 0.  1.
         11    1    4    4    0    0  0.66132142215E+02 -0.18627058198E+03 -0.84793151061E+03  0.87066528392E+03  0.00000000000E+00 0. -1.
        -13    1    3    3    0    0  0.41553158715E+02  0.62092594681E+01 -0.23853629224E+03  0.24220813905E+03  0.00000000000E+00 0. -1.
         13    1    3    3    0    0  0.90345380944E+02  0.14646289050E+03 -0.51661208694E+03  0.54451970995E+03  0.00000000000E+00 0.  1.
          3    1    1    2  501    0 -0.18283415556E+03  0.73168969209E+02 -0.25365485690E+03  0.32112740918E+03  0.00000000000E+00 0. -1.
<scales pt_clust_5="13000.00000" pt_clust_6="13000.00000" pt_clust_7="13000.00000" pt_clust_8="13000.00000" pt_clust_9="196.93163"></scales>
<clustering>
<clus scale="   88.734">  5  6 -1 -1</clus>
<clus scale="   89.362">  7  8 -1 -1</clus>
<clus scale="  196.932">  2  9  1 -1</clus>
<clus scale="  211.555">  2  5  1 -1</clus>
<clus scale="  196.932">  2  5  1 -1</clus>
</clustering>
</event>
<event>
 9    1  0.1445593E-005  0.1192102E+03  0.7546771E-02  0.1244983E+00
         21   -1    0    0  501  502  0.00000000000E+00  0.00000000000E+00  0.15769870104E+03  0.15769870104E+03  0.00000000000E+00 0.  1.
          1   -1    0    0  502    0 -0.00000000000E+00 -0.00000000000E+00 -0.13142784904E+03  0.13142784904E+03  0.00000000000E+00 0. -1.
         23    2    1    2    0    0  0.69582394546E+02 -0.17322955102E+02 -0.37041817021E+02  0.12251295643E+03  0.92171220454E+02 0.  0.
         23    2    1    2    0    0 -0.79713587228E+02 -0.99832261515E+01  0.42059561127E+02  0.13055859129E+03  0.93928793689E+02 0.  0.
        -11    1    4    4    0    0  0.70974325649E+01 -0.31327803235E+02  0.88071499045E+00  0.32133790057E+02  0.00000000000E+00 0. -1.
         11    1    4    4    0    0 -0.86811019793E+02  0.21344577083E+02  0.41178846137E+02  0.98424801232E+02  0.00000000000E+00 0.  1.
        -13    1    3    3    0    0  0.27518626888E+02  0.37025856205E+02 -0.41393265043E+01  0.46317630309E+02  0.00000000000E+00 0.  1.
         13    1    3    3    0    0  0.42063767658E+02 -0.54348811306E+02 -0.32902490517E+02  0.76195326118E+02  0.00000000000E+00 0. -1.
          1    1    1    2  501    0  0.10131192683E+02  0.27306181253E+02  0.21253107897E+02  0.36055002358E+02  0.00000000000E+00 0. -1.
<scales pt_clust_5="13000.00000" pt_clust_6="13000.00000" pt_clust_7="13000.00000" pt_clust_8="13000.00000" pt_clust_9="29.12505"></scales>
<clustering>
<clus scale="   29.125">  1  9  2 -1</clus>
<clus scale="   92.171">  7  8 -1 -1</clus>
<clus scale="   93.929">  5  6 -1 -1</clus>
<clus scale="  117.830">  2  7  1 -1</clus>
<clus scale="   29.125">  1  5  2 -1</clus>
</clustering>
</event>
<event>
 9    1  0.1445593E-005  0.9586831E+02  0.7546771E-02  0.1289432E+00
          2   -1    0    0  502    0 -0.00000000000E+00  0.00000000000E+00  0.74315018192E+02  0.74315018192E+02  0.00000000000E+00 0. -1.
         21   -1    0    0  501  502  0.00000000000E+00 -0.00000000000E+00 -0.20214133739E+03  0.20214133739E+03  0.00000000000E+00 0.  1.
         23    2    1    2    0    0 -0.23467293024E+02  0.30925297055E+01 -0.69916402087E+01  0.95858517553E+02  0.92626641809E+02 0.  0.
         23    2    1    2    0    0  0.18909899271E+02  0.30949965765E+02 -0.92092578807E+02  0.13581201819E+03  0.92996648019E+02 0.  0.
        -11    1    4    4    0    0  0.20658757058E+02 -0.47290741727E+00 -0.10100960522E+03  0.10310164029E+03  0.00000000000E+00 0.  1.
         11    1    4    4    0    0 -0.17488577867E+01  0.31422873182E+02  0.89170264082E+01  0.32710377903E+02  0.00000000000E+00 0. -1.
        -11    1    3    3    0    0  0.30615363584E+02 -0.18706740305E+02 -0.10672070291E+02  0.37431747281E+02  0.00000000000E+00 0.  1.
         11    1    3    3    0    0 -0.54082656608E+02  0.21799270010E+02  0.36804300826E+01  0.58426770272E+02  0.00000000000E+00 0. -1.
          2    1    1    2  501    0  0.45573937531E+01 -0.34042495470E+02 -0.28742100184E+02  0.44785819839E+02  0.00000000000E+00 0. -1.
<scales pt_clust_5="13000.00000" pt_clust_6="13000.00000" pt_clust_7="13000.00000" pt_clust_8="13000.00000" pt_clust_9="34.34620"></scales>
<clustering>
<clus scale="   34.346">  2  9  1 -1</clus>
<clus scale="   92.627">  7  8 -1 -1</clus>
<clus scale="   92.997">  5  6 -1 -1</clus>
<clus scale="   95.509">  1  7  2 -1</clus>
<clus scale="   34.346">  2  5  1 -1</clus>
</clustering>
</event>
<event>
 9    1  0.1445593E-005  0.1039752E+03  0.7546771E-02  0.1272337E+00
          3   -1    0    0  502    0 -0.00000000000E+00  0.00000000000E+00  0.89494317078E+02  0.89494317078E+02  0.00000000000E+00 0. -1.
         21   -1    0    0  501  502  0.00000000000E+00 -0.00000000000E+00 -0.21004432195E+03  0.21004432195E+03  0.00000000000E+00 0.  1.
         23    2    1    2    0    0  0.41901493022E+02 -0.18620296525E+02  0.36536255687E+01  0.10169736683E+03  0.90700357668E+02 0.  0.
         23    2    1    2    0    0 -0.67474472078E+02 -0.10013622710E+02 -0.10523806420E+03  0.15502105160E+03  0.91122989754E+02 0.  0.
        -11    1    4    4    0    0 -0.89146261642E+02 -0.47184575336E+00 -0.74232553670E+02  0.11600754556E+03  0.00000000000E+00 0.  1.
         11    1    4    4    0    0  0.21671789564E+02 -0.95417769565E+01 -0.31005510527E+02  0.39013506039E+02  0.00000000000E+00 0. -1.
        -11    1    3    3    0    0 -0.11039108155E+01 -0.46409067859E+02  0.15866220722E+02  0.49058711343E+02  0.00000000000E+00 0. -1.
         11    1    3    3    0    0  0.43005403838E+02  0.27788771334E+02 -0.12212595154E+02  0.52638655491E+02  0.00000000000E+00 0.  1.
          3    1    1    2  501    0  0.25572979056E+02  0.28633919235E+02 -0.18965566244E+02  0.42820220592E+02  0.00000000000E+00 0. -1.
<scales pt_clust_5="13000.00000" pt_clust_6="13000.00000" pt_clust_7="13000.00000" pt_clust_8="13000.00000" pt_clust_9="38.39113"></scales>
<clustering>
<clus scale="   38.391">  2  9  1 -1</clus>
<clus scale="   90.700">  7  8 -1 -1</clus>
<clus scale="   91.123">  5  6 -1 -1</clus>
<clus scale="  103.605">  1  7  2 -1</clus>
<clus scale="   38.391">  2  5  1 -1</clus>
</clustering>
</event>
<event>
 9    1  0.2446544E-005  0.9691547E+02  0.7546771E-02  0.1288723E+00
         21   -1    0    0  501  502  0.00000000000E+00  0.00000000000E+00  0.21774472856E+03  0.21774472856E+03  0.00000000000E+00 0.  1.
          3   -1    0    0  502    0 -0.00000000000E+00 -0.00000000000E+00 -0.98594904213E+02  0.98594904213E+02  0.00000000000E+00 0. -1.
         23    2    1    2    0    0 -0.50167033496E+01 -0.27848901033E+01 -0.43029056015E+02  0.10256990270E+03  0.92930954766E+02 0.  0.
         23    2    1    2    0    0  0.25655222103E+02  0.28986074811E+02  0.10493556239E+03  0.14751833017E+03  0.96186290746E+02 0.  0.
        -13    1    3    3    0    0 -0.28878492095E+02  0.28755206057E+02  0.41991547649E+01  0.40969038088E+02  0.00000000000E+00 0.  1.
         13    1    3    3    0    0  0.23861788746E+02 -0.31540096160E+02 -0.47228210780E+02  0.61600864616E+02  0.00000000000E+00 0. -1.
        -13    1    4    4    0    0  0.37971630833E+02 -0.22509375173E+02  0.22505823616E+02  0.49548247349E+02  0.00000000000E+00 0. -1.
         13    1    4    4    0    0 -0.12316408729E+02  0.51495449984E+02  0.82429738779E+02  0.97970082822E+02  0.00000000000E+00 0.  1.
          3    1    1    2  501    0 -0.20638518754E+02 -0.26201184707E+02  0.57243317968E+02  0.66251399898E+02  0.00000000000E+00 0. -1.
<scales pt_clust_5="13000.00000" pt_clust_6="13000.00000" pt_clust_7="13000.00000" pt_clust_8="13000.00000" pt_clust_9="33.35342"></scales>
<clustering>
<clus scale="   33.353">  1  9  2 -1</clus>
<clus scale="   92.931">  5  6 -1 -1</clus>
<clus scale="   93.685">  2  5  1 -1</clus>
<clus scale="   96.186">  7  8 -1 -1</clus>
<clus scale="   33.353">  1  5  2 -1</clus>
</clustering>
</event>
<event>
 9    1  0.1445593E-005  0.1005249E+03  0.7546771E-02  0.1280609E+00
          1   -1    0    0  502    0 -0.00000000000E+00  0.00000000000E+00  0.58294286476E+03  0.58294286476E+03  0.00000000000E+00 0. -1.
         21   -1    0    0  501  502  0.00000000000E+00 -0.00000000000E+00 -0.18165134891E+03  0.18165134891E+03  0.00000000000E+00 0. -1.
         23    2    1    2    0    0  0.10537838853E+02 -0.45219594486E+02  0.44826729676E+03  0.45903025501E+03  0.87231576267E+02 0.  0.
         23    2    1    2    0    0 -0.29331899180E+02  0.29833028851E+02  0.10909360741E+03  0.14761581187E+03  0.90214426869E+02 0.  0.
        -11    1    3    3    0    0  0.47305441291E+02 -0.18072844045E+02  0.28603630675E+03  0.29048442513E+03  0.00000000000E+00 0.  1.
         11    1    3    3    0    0 -0.36767602438E+02 -0.27146750441E+02  0.16223099001E+03  0.16854582988E+03  0.00000000000E+00 0. -1.
        -13    1    4    4    0    0 -0.57415669849E+02  0.63059012719E+01  0.88229316176E+02  0.10545489921E+03  0.00000000000E+00 0. -1.
         13    1    4    4    0    0  0.28083770669E+02  0.23527127579E+02  0.20864291233E+02  0.42160912653E+02  0.00000000000E+00 0.  1.
          1    1    1    2  501    0  0.18794060327E+02  0.15386565635E+02 -0.15606938832E+03  0.15794814680E+03  0.00000000000E+00 0. -1.
<scales pt_clust_5="13000.00000" pt_clust_6="13000.00000" pt_clust_7="13000.00000" pt_clust_8="13000.00000" pt_clust_9="24.28916"></scales>
<clustering>
<clus scale="   24.289">  2  9  1 -1</clus>
<clus scale="   87.232">  5  6 -1 -1</clus>
<clus scale="   90.214">  7  8 -1 -1</clus>
<clus scale="   97.857">  1  5  2 -1</clus>
<clus scale="   24.289">  2  5  1 -1</clus>
</clustering>
</event>
<event>
 9    1  0.1445593E-005  0.1164319E+03  0.7546771E-02  0.1252291E+00
          1   -1    0    0  502    0 -0.00000000000E+00  0.00000000000E+00  0.31622370621E+03  0.31622370621E+03  0.00000000000E+00 0. -1.
         21   -1    0    0  501  502  0.00000000000E+00 -0.00000000000E+00 -0.69620972907E+02  0.69620972907E+02  0.00000000000E+00 0.  1.
         23    2    1    2    0    0 -0.38229647214E+02 -0.30569136611E+02  0.13361494168E+03  0.17396086344E+03  0.10006723404E+03 0.  0.
         23    2    1    2    0    0  0.47328034351E+02  0.53157043134E+02  0.13573715327E+03  0.17855923578E+03  0.91614473944E+02 0.  0.
        -11    1    3    3    0    0  0.82337627229E+01 -0.35860537367E+02  0.50293623314E+01  0.37135797747E+02  0.00000000000E+00 0.  1.
         11    1    3    3    0    0 -0.46463409937E+02  0.52914007562E+01  0.12858557935E+03  0.13682506569E+03  0.00000000000E+00 0. -1.
        -11    1    4    4    0    0  0.52926631431E+02 -0.56166362848E+01  0.87059874484E+02  0.10204017181E+03  0.00000000000E+00 0.  1.
         11    1    4    4    0    0 -0.55985970800E+01  0.58773679418E+02  0.48677278784E+02  0.76519063974E+02  0.00000000000E+00 0. -1.
          1    1    1    2  501    0 -0.90983871363E+01 -0.22587906523E+02 -0.22749361648E+02  0.33324579892E+02  0.00000000000E+00 0. -1.
<scales pt_clust_5="13000.00000" pt_clust_6="13000.00000" pt_clust_7="13000.00000" pt_clust_8="13000.00000" pt_clust_9="24.35147"></scales>
<clustering>
<clus scale="   24.351">  2  9  1 -1</clus>
<clus scale="   91.614">  7  8 -1 -1</clus>
<clus scale="  100.067">  5  6 -1 -1</clus>
<clus scale="  109.253">  2  7  1 -1</clus>
<clus scale="   24.351">  2  5  1 -1</clus>
</clustering>
</event>
<event>
 9    1  0.1445593E-005  0.1106473E+03  0.7546771E-02  0.1262051E+00
         21   -1    0    0  501  502  0.00000000000E+00  0.00000000000E+00  0.35811238692E+03  0.35811238692E+03  0.00000000000E+00 0. -1.
         -1   -1    0    0    0  501 -0.00000000000E+00 -0.00000000000E+00 -0.14220624574E+03  0.14220624574E+03  0.00000000000E+00 0.  1.
         23    2    1    2    0    0 -0.62004166942E+01 -0.59220203566E+02 -0.75487359343E+02  0.13146933956E+03  0.89668099930E+02 0.  0.
         23    2    1    2    0    0  0.77664322958E+02  0.93432671310E+02  0.18814034776E+03  0.23870016171E+03  0.82580661278E+02 0.  0.
        -11    1    4    4    0    0 -0.11946370813E+02  0.19313157646E+02  0.67138454005E+02  0.70875142610E+02  0.00000000000E+00 0.  1.
         11    1    4    4    0    0  0.89610693771E+02  0.74119513664E+02  0.12100189375E+03  0.16782501910E+03  0.00000000000E+00 0. -1.
        -13    1    3    3    0    0 -0.36628772070E+02 -0.11151552861E+02 -0.62212829003E+02  0.73051079164E+02  0.00000000000E+00 0.  1.
         13    1    3    3    0    0  0.30428355376E+02 -0.48068650705E+02 -0.13274530340E+02  0.58418260392E+02  0.00000000000E+00 0. -1.
         -1    1    1    2    0  502 -0.71463906263E+02 -0.34212467744E+02  0.10325315276E+03  0.13014913140E+03  0.00000000000E+00 0.  1.
<scales pt_clust_5="13000.00000" pt_clust_6="13000.00000" pt_clust_7="13000.00000" pt_clust_8="13000.00000" pt_clust_9="79.23120"></scales>
<clustering>
<clus scale="   79.231">  1  9  2 -1</clus>
<clus scale="   82.581">  5  6 -1 -1</clus>
<clus scale="   89.668">  7  8 -1 -1</clus>
<clus scale="  104.986">  1  5  2 -1</clus>
<clus scale="   79.231">  1  5  2 -1</clus>
</clustering>
</event>
<event>
 9    1  0.1445593E-005  0.9894896E+02  0.7546771E-02  0.1282813E+00
         21   -1    0    0  501  502  0.00000000000E+00  0.00000000000E+00  0.48245573547E+03  0.48245573547E+03  0.00000000000E+00 0. -1.
          3   -1    0    0  502    0 -0.00000000000E+00 -0.00000000000E+00 -0.46200296739E+02  0.46200296739E+02  0.00000000000E+00 0. -1.
         23    2    1    2    0    0  0.11588186319E+02  0.43233558663E+02  0.43493369657E+02  0.11089345243E+03  0.91663831090E+02 0.  0.
         23    2    1    2    0    0 -0.19746795939E+02 -0.12640257809E+02  0.18428782040E+03  0.20689763407E+03  0.91076441361E+02 0.  0.
        -11    1    4    4    0    0 -0.36211193846E+02  0.30596414351E+02  0.10247178161E+03  0.11290640884E+03  0.00000000000E+00 0. -1.
         11    1    4    4    0    0  0.16464397907E+02 -0.43236672160E+02  0.81816038783E+02  0.93991225229E+02  0.00000000000E+00 0.  1.
        -11    1    3    3    0    0 -0.16234829445E+02  0.54045252097E+02 -0.20172853403E+01  0.56467055895E+02  0.00000000000E+00 0. -1.
         11    1    3    3    0    0  0.27823015763E+02 -0.10811693434E+02  0.45510654997E+02  0.54426396531E+02  0.00000000000E+00 0.  1.
          3    1    1    2  501    0  0.81586096206E+01 -0.30593300854E+02  0.20847424868E+03  0.21086494571E+03  0.00000000000E+00 0. -1.
<scales pt_clust_5="13000.00000" pt_clust_6="13000.00000" pt_clust_7="13000.00000" pt_clust_8="13000.00000" pt_clust_9="31.66249"></scales>
<clustering>
<clus scale="   31.662">  1  9  2 -1</clus>
<clus scale="   91.076">  5  6 -1 -1</clus>
<clus scale="   91.664">  7  8 -1 -1</clus>
<clus scale="   98.405">  1  5  2 -1</clus>
<clus scale="   31.662">  1  5  2 -1</clus>
</clustering>
</event>
<event>
 9    1  0.1445593E-005  0.1225383E+03  0.7546771E-02  0.1239349E+00
         -1   -1    0    0    0  501 -0.00000000000E+00  0.00000000000E+00  0.32110750705E+03  0.32110750705E+03  0.00000000000E+00 0.  1.
         21   -1    0    0  501  502  0.00000000000E+00 -0.00000000000E+00 -0.84300623286E+02  0.84300623286E+02  0.00000000000E+00 0. -1.
         23    2    1    2    0    0  0.75004729213E+02 -0.39700376862E+02  0.23200981088E+03  0.26285168782E+03  0.89781000867E+02 0.  0.
         23    2    1    2    0    0 -0.71822147256E+02  0.18225800849E+02  0.15387248457E+02  0.11840197996E+03  0.91058556927E+02 0.  0.
        -11    1    3    3    0    0  0.57100994568E+02 -0.61921984521E+02  0.21165423352E+03  0.22779896908E+03  0.00000000000E+00 0.  1.
         11    1    3    3    0    0  0.17903734645E+02  0.22221607659E+02  0.20355577362E+02  0.35052718738E+02  0.00000000000E+00 0. -1.
        -13    1    4    4    0    0 -0.12577720292E+02 -0.31596644390E+02  0.22327250859E+02  0.40682344025E+02  0.00000000000E+00 0.  1.
         13    1    4    4    0    0 -0.59244426965E+02  0.49822445239E+02 -0.69400024027E+01  0.77719635932E+02  0.00000000000E+00 0. -1.
         -1    1    1    2    0  502 -0.31825819565E+01  0.21474576013E+02 -0.10590175574E+02  0.24154462560E+02  0.00000000000E+00 0.  1.
<scales pt_clust_5="13000.00000" pt_clust_6="13000.00000" pt_clust_7="13000.00000" pt_clust_8="13000.00000" pt_clust_9="21.70913"></scales>
<clustering>
<clus scale="   21.709">  2  9  1 -1</clus>
<clus scale="   89.781">  5  6 -1 -1</clus>
<clus scale="   91.059">  7  8 -1 -1</clus>
<clus scale="  121.592">  1  5  2 -1</clus>
<clus scale="   21.709">  2  5  1 -1</clus>
</clustering>
</event>
<event>
 9    1  0.1445593E-005  0.2583262E+03  0.7546771E-02  0.1108297E+00
          2   -1    0    0  502    0 -0.00000000000E+00  0.00000000000E+00  0.80245121841E+03  0.80245121841E+03  0.00000000000E+00 0. -1.
         21   -1    0    0  501  502  0.00000000000E+00 -0.00000000000E+00 -0.14549203408E+03  0.14549203408E+03  0.00000000000E+00 0.  1.
         23    2    1    2    0    0 -0.23200975773E+03 -0.43741596471E+02  0.40277426421E+03  0.47596262813E+03  0.92582182541E+02 0.  0.
         23    2    1    2    0    0  0.23936038943E+03  0.66183304321E+02  0.31244475855E+03  0.40911671731E+03  0.89895135773E+02 0.  0.
        -11    1    3    3    0    0 -0.15067842136E+03 -0.20579745891E+02  0.16893837948E+03  0.22730527637E+03  0.00000000000E+00 0.  1.
         11    1    3    3    0    0 -0.81331336375E+02 -0.23161850581E+02  0.23383588473E+03  0.24865735176E+03  0.00000000000E+00 0. -1.
        -11    1    4    4    0    0  0.13283721188E+03  0.76185412127E+02  0.14824411953E+03  0.21313437277E+03  0.00000000000E+00 0.  1.
         11    1    4    4    0    0  0.10652317756E+03 -0.10002107805E+02  0.16420063901E+03  0.19598234454E+03  0.00000000000E+00 0. -1.
          2    1    1    2  501    0 -0.73506317020E+01 -0.22441707850E+02 -0.58259838420E+02  0.62863907056E+02  0.00000000000E+00 0. -1.
<scales pt_clust_5="13000.00000" pt_clust_6="13000.00000" pt_clust_7="13000.00000" pt_clust_8="13000.00000" pt_clust_9="23.61487"></scales>
<clustering>
<clus scale="   23.615">  2  9  1 -1</clus>
<clus scale="   89.895">  7  8 -1 -1</clus>
<clus scale="   92.582">  5  6 -1 -1</clus>
<clus scale="  257.375">  2  7  1 -1</clus>
<clus scale="   23.615">  2  5  1 -1</clus>
</clustering>
</event>
<event>
 9    1  0.1445593E-005  0.1774338E+03  0.7546771E-02  0.1195692E+00
         21   -1    0    0  501  502  0.00000000000E+00  0.00000000000E+00  0.35811450423E+03  0.35811450423E+03  0.00000000000E+00 0. -1.
          2   -1    0    0  502    0 -0.00000000000E+00 -0.00000000000E+00 -0.15195422510E+03  0.15195422510E+03  0.00000000000E+00 0. -1.
         23    2    1    2    0    0  0.34398090133E+02  0.26367963105E+02 -0.25640950751E+02  0.10379434083E+03  0.90759620697E+02 0.  0.
         23    2    1    2    0    0  0.11802534903E+03  0.47095483446E+02  0.68577870881E+02  0.17117515901E+03  0.91924116058E+02 0.  0.
        -11    1    4    4    0    0  0.11689777651E+03  0.21971242170E+02  0.26044343192E+02  0.12176261104E+03  0.00000000000E+00 0. -1.
         11    1    4    4    0    0  0.11275725258E+01  0.25124241275E+02  0.42533527690E+02  0.49412547973E+02  0.00000000000E+00 0.  1.
        -13    1    3    3    0    0 -0.23252430274E+02 -0.15795663045E+02 -0.62716370975E+00  0.28117109009E+02  0.00000000000E+00 0.  1.
         13    1    3    3    0    0  0.57650520407E+02  0.42163626150E+02 -0.25013787042E+02  0.75677231817E+02  0.00000000000E+00 0. -1.
          2    1    1    2  501    0 -0.15242343917E+03 -0.73463446550E+02  0.16322335900E+03  0.23509922949E+03  0.00000000000E+00 0. -1.
<scales pt_clust_5="13000.00000" pt_clust_6="13000.00000" pt_clust_7="13000.00000" pt_clust_8="13000.00000" pt_clust_9="151.76533"></scales>
<clustering>
<clus scale="   90.760">  7  8 -1 -1</clus>
<clus scale="   91.924">  5  6 -1 -1</clus>
<clus scale="  100.577">  2  7  1 -1</clus>
<clus scale="  151.765">  1  9  2 -1</clus>
<clus scale="  151.765">  1  5  2 -1</clus>
</clustering>
</event>
<event>
 9    1  0.1445593E-005  0.1284995E+03  0.7546771E-02  0.1231433E+00
         -3   -1    0    0    0  501 -0.00000000000E+00  0.00000000000E+00  0.75600771425E+02  0.75600771425E+02  0.00000000000E+00 0.  1.
         21   -1    0    0  501  502  0.00000000000E+00 -0.00000000000E+00 -0.41876191706E+03  0.41876191706E+03  0.00000000000E+00 0.  1.
         23    2    1    2    0    0 -0.26199560822E+02 -0.85692973714E+02 -0.33983509813E+02  0.13516379565E+03  0.95313535153E+02 0.  0.
         23    2    1    2    0    0  0.44041718210E+02  0.32858225196E+02 -0.26197572879E+03  0.28613814238E+03  0.10111586492E+03 0.  0.
        -13    1    3    3    0    0 -0.16432773826E+02 -0.40438703657E+02 -0.65819305253E+02  0.78977881417E+02  0.00000000000E+00 0. -1.
         13    1    3    3    0    0 -0.97667869961E+01 -0.45254270056E+02  0.31835795440E+02  0.56185914230E+02  0.00000000000E+00 0.  1.
        -13    1    4    4    0    0  0.21216776161E+02 -0.27481959278E+02 -0.31760832285E+02  0.47054863126E+02  0.00000000000E+00 0.  1.
         13    1    4    4    0    0  0.22824942049E+02  0.60340184474E+02 -0.23021489651E+03  0.23908327925E+03  0.00000000000E+00 0. -1.
         -3    1    1    2    0  502 -0.17842157388E+02  0.52834748517E+02 -0.47201907027E+02  0.73060750462E+02  0.00000000000E+00 0.  1.
<scales pt_clust_5="13000.00000" pt_clust_6="13000.00000" pt_clust_7="13000.00000" pt_clust_8="13000.00000" pt_clust_9="55.76609"></scales>
<clustering>
<clus scale="   55.766">  2  9  1 -1</clus>
<clus scale="   95.314">  5  6 -1 -1</clus>
<clus scale="  101.116">  7  8 -1 -1</clus>
<clus scale="  123.985">  1  5  2 -1</clus>
<clus scale="   55.766">  2  5  1 -1</clus>
</clustering>
</event>
<event>
 9    1  0.1445593E-005  0.9660085E+02  0.7546771E-02  0.1292325E+00
         21   -1    0    0  501  502  0.00000000000E+00  0.00000000000E+00  0.10341504540E+03  0.10341504540E+03  0.00000000000E+00 0. -1.
          1   -1    0    0  502    0 -0.00000000000E+00 -0.00000000000E+00 -0.34402466111E+03  0.34402466111E+03  0.00000000000E+00 0. -1.
         23    2    1    2    0    0  0.38527112998E+01 -0.31708251515E+02 -0.17731660641E+03  0.19957247808E+03  0.85835531683E+02 0.  0.
         23    2    1    2    0    0 -0.15491121974E+02  0.28001972542E+01 -0.13747328805E+03  0.16740703977E+03  0.94225241153E+02 0.  0.
        -13    1    3    3    0    0  0.26457223581E+02 -0.27381857910E+02 -0.17171506020E+03  0.17588579454E+03  0.00000000000E+00 0. -1.
         13    1    3    3    0    0 -0.22604512281E+02 -0.43263936046E+01 -0.56015462118E+01  0.23686683538E+02  0.00000000000E+00 0.  1.
        -13    1    4    4    0    0 -0.35473624478E+02 -0.35708298444E+02 -0.89830094175E+02  0.10297041532E+03  0.00000000000E+00 0. -1.
         13    1    4    4    0    0  0.19982502504E+02  0.38508495698E+02 -0.47643193877E+02  0.64436624447E+02  0.00000000000E+00 0.  1.
          1    1    1    2  501    0  0.11638410675E+02  0.28908054261E+02  0.74180278754E+02  0.80460188666E+02  0.00000000000E+00 0. -1.
<scales pt_clust_5="13000.00000" pt_clust_6="13000.00000" pt_clust_7="13000.00000" pt_clust_8="13000.00000" pt_clust_9="31.16293"></scales>
<clustering>
<clus scale="   31.163">  1  9  2 -1</clus>
<clus scale="   85.836">  5  6 -1 -1</clus>
<clus scale="   88.437">  2  5  1 -1</clus>
<clus scale="   94.225">  7  8 -1 -1</clus>
<clus scale="   31.163">  1  5  2 -1</clus>
</clustering>
</event>
<event>
 9    1  0.1445593E-005  0.1225673E+03  0.7546771E-02  0.1239063E+00
          1   -1    0    0  502    0 -0.00000000000E+00  0.00000000000E+00  0.94777018611E+03  0.94777018611E+03  0.00000000000E+00 0. -1.
         21   -1    0    0  501  502  0.00000000000E+00 -0.00000000000E+00 -0.45783304379E+02  0.45783304379E+02  0.00000000000E+00 0.  1.
         23    2    1    2    0    0  0.32828687057E+02 -0.59966914175E+02  0.54096621824E+03  0.55246587166E+03  0.88883837576E+02 0.  0.
         23    2    1    2    0    0 -0.53730625488E+02  0.12508659757E+03  0.32562857814E+03  0.36408071069E+03  0.89370890061E+02 0.  0.
        -11    1    3    3    0    0  0.63252822120E+02 -0.32601609987E+02  0.35160431025E+03  0.35873301419E+03  0.00000000000E+00 0. -1.
         11    1    3    3    0    0 -0.30424135064E+02 -0.27365304188E+02  0.18936190799E+03  0.19373285747E+03  0.00000000000E+00 0.  1.
        -11    1    4    4    0    0 -0.17591998725E+02  0.45541826293E+02  0.22756043990E+03  0.23273867355E+03  0.00000000000E+00 0. -1.
         11    1    4    4    0    0 -0.36138626764E+02  0.79544771273E+02  0.98068138243E+02  0.13134203714E+03  0.00000000000E+00 0.  1.
          1    1    1    2  501    0  0.20901938432E+02 -0.65119683391E+02  0.35392085350E+02  0.77006908136E+02  0.00000000000E+00 0. -1.
<scales pt_clust_5="13000.00000" pt_clust_6="13000.00000" pt_clust_7="13000.00000" pt_clust_8="13000.00000" pt_clust_9="68.39199"></scales>
<clustering>
<clus scale="   68.392">  2  9  1 -1</clus>
<clus scale="   88.884">  5  6 -1 -1</clus>
<clus scale="   89.371">  7  8 -1 -1</clus>
<clus scale="  122.213">  1  5  2 -1</clus>
<clus scale="   68.392">  2  5  1 -1</clus>
</clustering>
</event>
<event>
 9    1  0.1445593E-005  0.9867476E+02  0.7546771E-02  0.1283395E+00
         -1   -1    0    0    0  501 -0.00000000000E+00  0.00000000000E+00  0.40353827015E+03  0.40353827015E+03  0.00000000000E+00 0.  1.
         21   -1    0    0  501  502  0.00000000000E+00 -0.00000000000E+00 -0.15166457867E+03  0.15166457867E+03  0.00000000000E+00 0.  1.
         23    2    1    2    0    0  0.30139898699E+02 -0.27089840933E+02  0.28080257362E+03  0.29774712246E+03  0.90338201270E+02 0.  0.
         23    2    1    2    0    0  0.12258255073E+02  0.50710697211E+02  0.84136169884E+02  0.13441404935E+03  0.90919755555E+02 0.  0.
        -11    1    4    4    0    0 -0.18970736627E+02  0.34242305896E+02 -0.41159578540E+01  0.39361980010E+02  0.00000000000E+00 0. -1.
         11    1    4    4    0    0  0.31228991700E+02  0.16468391315E+02  0.88252127738E+02  0.95052069338E+02  0.00000000000E+00 0.  1.
        -13    1    3    3    0    0  0.52771126489E+02 -0.45024716220E+02  0.21424899050E+03  0.22519912698E+03  0.00000000000E+00 0.  1.
         13    1    3    3    0    0 -0.22631227790E+02  0.17934875287E+02  0.66553583120E+02  0.72547995486E+02  0.00000000000E+00 0. -1.
         -1    1    1    2    0  502 -0.42398153772E+02 -0.23620856278E+02 -0.11306505202E+03  0.12304167701E+03  0.00000000000E+00 0.  1.
<scales pt_clust_5="13000.00000" pt_clust_6="13000.00000" pt_clust_7="13000.00000" pt_clust_8="13000.00000" pt_clust_9="48.53399"></scales>
<clustering>
<clus scale="   48.534">  2  9  1 -1</clus>
<clus scale="   90.338">  7  8 -1 -1</clus>
<clus scale="   90.920">  5  6 -1 -1</clus>
<clus scale="   98.139">  1  7  2 -1</clus>
<clus scale="   48.534">  2  5  1 -1</clus>
</clustering>
</event>
<event>
 9    1  0.1445593E-005  0.1172279E+03  0.7546771E-02  0.1254884E+00
         -2   -1    0    0    0  501 -0.00000000000E+00  0.00000000000E+00  0.71708928738E+03  0.71708928738E+03  0.00000000000E+00 0.  1.
         21   -1    0    0  501  502  0.00000000000E+00 -0.00000000000E+00 -0.57712102255E+02  0.57712102255E+02  0.00000000000E+00 0.  1.
         23    2    1    2    0    0  0.44770828690E+02 -0.20478252747E+02  0.37278055803E+03  0.38679983999E+03  0.90691707660E+02 0.  0.
         23    2    1    2    0    0 -0.47763455968E+02 -0.77343480239E+02  0.24277058398E+03  0.28076923493E+03  0.10784454172E+03 0.  0.
        -11    1    4    4    0    0 -0.44594598199E+02 -0.21222460488E+02  0.20994580109E+03  0.21567640208E+03  0.00000000000E+00 0.  1.
         11    1    4    4    0    0 -0.31688577692E+01 -0.56121019751E+02  0.32824782883E+02  0.65092832853E+02  0.00000000000E+00 0. -1.
        -13    1    3    3    0    0  0.27086112867E+02  0.27315168948E+02  0.71042398269E+02  0.80788602641E+02  0.00000000000E+00 0.  1.
         13    1    3    3    0    0  0.17684715823E+02 -0.47793421695E+02  0.30173815976E+03  0.30601123735E+03  0.00000000000E+00 0. -1.
         -2    1    1    2    0  502  0.29926272775E+01  0.97821732986E+02  0.43826043123E+02  0.10723231471E+03  0.00000000000E+00 0.  1.
<scales pt_clust_5="13000.00000" pt_clust_6="13000.00000" pt_clust_7="13000.00000" pt_clust_8="13000.00000" pt_clust_9="97.86750"></scales>
<clustering>
<clus scale="   90.692">  7  8 -1 -1</clus>
<clus scale="   97.867">  2  9  1 -1</clus>
<clus scale="  101.671">  1  7  2 -1</clus>
<clus scale="  107.845">  5  6 -1 -1</clus>
<clus scale="   97.867">  2  5  1 -1</clus>
</clustering>
</event>
<event>
 9    1  0.1445593E-005  0.1108958E+03  0.7546771E-02  0.1258990E+00
          2   -1    0    0  502    0 -0.00000000000E+00  0.00000000000E+00  0.25380366628E+03  0.25380366628E+03  0.00000000000E+00 0. -1.
         21   -1    0    0  501  502  0.00000000000E+00 -0.00000000000E+00 -0.10291392898E+03  0.10291392898E+03  0.00000000000E+00 0.  1.
         23    2    1    2    0    0 -0.70176709308E+02 -0.23603334010E+02  0.13800024976E+03  0.18121018964E+03  0.91165651365E+02 0.  0.
         23    2    1    2    0    0  0.45856150425E+02  0.13410593639E+02  0.61616882362E+02  0.12010216627E+03  0.91352392405E+02 0.  0.
        -11    1    4    4    0    0  0.54393814761E+02  0.31564072958E+02  0.73541818787E+02  0.96764543591E+02  0.00000000000E+00 0.  1.
         11    1    4    4    0    0 -0.85376643356E+01 -0.18153479320E+02 -0.11924936425E+02  0.23337622682E+02  0.00000000000E+00 0. -1.
        -13    1    3    3    0    0 -0.63662046847E+01 -0.41957904364E+02  0.89287318376E+02  0.98859594999E+02  0.00000000000E+00 0.  1.
         13    1    3    3    0    0 -0.63810504623E+02  0.18354570354E+02  0.48712931383E+02  0.82350594637E+02  0.00000000000E+00 0. -1.
          2    1    1    2  501    0  0.24320558883E+02  0.10192740372E+02 -0.48727394823E+02  0.55405239345E+02  0.00000000000E+00 0. -1.
<scales pt_clust_5="13000.00000" pt_clust_6="13000.00000" pt_clust_7="13000.00000" pt_clust_8="13000.00000" pt_clust_9="26.37009"></scales>
<clustering>
<clus scale="   26.370">  2  9  1 -1</clus>
<clus scale="   91.166">  7  8 -1 -1</clus>
<clus scale="   91.352">  5  6 -1 -1</clus>
<clus scale="  110.742">  1  7  2 -1</clus>
<clus scale="   26.370">  2  5  1 -1</clus>
</clustering>
</event>
<event>
 9    1  0.1445593E-005  0.1066092E+03  0.7546771E-02  0.1267021E+00
         21   -1    0    0  501  502  0.00000000000E+00  0.00000000000E+00  0.16435163108E+03  0.16435163108E+03  0.00000000000E+00 0.  1.
          1   -1    0    0  502    0 -0.00000000000E+00 -0.00000000000E+00 -0.21731411220E+03  0.21731411220E+03  0.00000000000E+00 0. -1.
         23    2    1    2    0    0  0.30816394050E+02  0.42647675732E+02 -0.12168154982E+03  0.16005711300E+03  0.89685034808E+02 0.  0.
         23    2    1    2    0    0 -0.21247050106E+02 -0.67636468171E+02 -0.30866868689E+02  0.11849039223E+03  0.89783520223E+02 0.  0.
        -11    1    4    4    0    0 -0.31774269067E+02  0.12008321044E+02 -0.11379733683E+02  0.35823208786E+02  0.00000000000E+00 0. -1.
         11    1    4    4    0    0  0.10527218961E+02 -0.79644789215E+02 -0.19487135006E+02  0.82667183446E+02  0.00000000000E+00 0.  1.
        -13    1    3    3    0    0  0.30337550567E+02  0.17775070815E+02  0.70437748746E+00  0.35168398663E+02  0.00000000000E+00 0.  1.
         13    1    3    3    0    0  0.47884348269E+00  0.24872604916E+02 -0.12238592731E+03  0.12488871434E+03  0.00000000000E+00 0. -1.
          1    1    1    2  501    0 -0.95693439437E+01  0.24988792440E+02  0.99585937392E+02  0.10311823804E+03  0.00000000000E+00 0. -1.
<scales pt_clust_5="13000.00000" pt_clust_6="13000.00000" pt_clust_7="13000.00000" pt_clust_8="13000.00000" pt_clust_9="26.75840"></scales>
<clustering>
<clus scale="   26.758">  1  9  2 -1</clus>
<clus scale="   89.685">  7  8 -1 -1</clus>
<clus scale="   89.784">  5  6 -1 -1</clus>
<clus scale="  106.526">  2  7  1 -1</clus>
<clus scale="   26.758">  1  5  2 -1</clus>
</clustering>
</event>
<event>
 9    1  0.1445593E-005  0.1071501E+03  0.7546771E-02  0.1267721E+00
         21   -1    0    0  501  502  0.00000000000E+00  0.00000000000E+00  0.72646989819E+02  0.72646989819E+02  0.00000000000E+00 0.  1.
         -1   -1    0    0    0  501 -0.00000000000E+00 -0.00000000000E+00 -0.33576410728E+03  0.33576410728E+03  0.00000000000E+00 0.  1.
         23    2    1    2    0    0 -0.36513200282E+02 -0.30322850836E+02 -0.14503118230E+03  0.17805685163E+03  0.91746986312E+02 0.  0.
         23    2    1    2    0    0  0.33013994059E+02  0.56558794896E+02 -0.15208609631E+03  0.18726619418E+03  0.87462138711E+02 0.  0.
        -11    1    4    4    0    0 -0.94622896092E+01  0.26245704780E+02 -0.12576110355E+03  0.12881858217E+03  0.00000000000E+00 0. -1.
         11    1    4    4    0    0  0.42476283668E+02  0.30313090115E+02 -0.26324992758E+02  0.58447612015E+02  0.00000000000E+00 0.  1.
        -11    1    3    3    0    0 -0.28914936436E+01  0.27252664464E+02 -0.81410758187E+02  0.85899825405E+02  0.00000000000E+00 0.  1.
         11    1    3    3    0    0 -0.33621706639E+02 -0.57575515300E+02 -0.63620424108E+02  0.92157026227E+02  0.00000000000E+00 0. -1.
         -1    1    1    2    0  502  0.34992062231E+01 -0.26235944060E+02  0.34000161152E+02  0.43088051282E+02  0.00000000000E+00 0.  1.
<scales pt_clust_5="13000.00000" pt_clust_6="13000.00000" pt_clust_7="13000.00000" pt_clust_8="13000.00000" pt_clust_9="26.46827"></scales>
<clustering>
<clus scale="   26.468">  1  9  2 -1</clus>
<clus scale="   87.462">  5  6 -1 -1</clus>
<clus scale="   91.747">  7  8 -1 -1</clus>
<clus scale="  103.505">  1  5  2 -1</clus>
<clus scale="   26.468">  1  5  2 -1</clus>
</clustering>
</event>
<event>
 9    1  0.1445593E-005  0.1035381E+03  0.7546771E-02  0.1275443E+00
          2   -1    0    0  502    0 -0.00000000000E+00  0.00000000000E+00  0.69591217104E+03  0.69591217104E+03  0.00000000000E+00 0. -1.
         21   -1    0    0  501  502  0.00000000000E+00 -0.00000000000E+00 -0.27397975648E+02  0.27397975648E+02  0.00000000000E+00 0.  1.
         23    2    1    2    0    0  0.12943825556E+02  0.37125895964E+02  0.41468346350E+03  0.42570511880E+03  0.87844171686E+02 0.  0.
         23    2    1    2    0    0  0.12580788081E+02 -0.65296828744E+02  0.21324750536E+03  0.24199832298E+03  0.93095315194E+02 0.  0.
        -13    1    4    4    0    0  0.42045535880E+02 -0.41124164925E+02  0.18619135150E+03  0.19525942590E+03  0.00000000000E+00 0. -1.
         13    1    4    4    0    0 -0.29464747799E+02 -0.24172663818E+02  0.27056153858E+02  0.46738897083E+02  0.00000000000E+00 0.  1.
        -13    1    3    3    0    0  0.43197940904E+02  0.47406795348E+02  0.28784435289E+03  0.29490309905E+03  0.00000000000E+00 0. -1.
         13    1    3    3    0    0 -0.30254115348E+02 -0.10280899384E+02  0.12683911062E+03  0.13080201975E+03  0.00000000000E+00 0.  1.
          2    1    1    2  501    0 -0.25524613637E+02  0.28170932780E+02  0.40583226531E+02  0.55606704908E+02  0.00000000000E+00 0. -1.
<scales pt_clust_5="13000.00000" pt_clust_6="13000.00000" pt_clust_7="13000.00000" pt_clust_8="13000.00000" pt_clust_9="38.01457"></scales>
<clustering>
<clus scale="   38.015">  2  9  1 -1</clus>
<clus scale="   87.844">  7  8 -1 -1</clus>
<clus scale="   93.095">  5  6 -1 -1</clus>
<clus scale="   98.843">  1  7  2 -1</clus>
<clus scale="   38.015">  2  5  1 -1</clus>
</clustering>
</event>
<event>
 9    1  0.1445593E-005  0.2488093E+03  0.7546771E-02  0.1114103E+00
          1   -1    0    0  502    0 -0.00000000000E+00  0.00000000000E+00  0.23434095676E+03  0.23434095676E+03  0.00000000000E+00 0. -1.
         21   -1    0    0  501  502  0.00000000000E+00 -0.00000000000E+00 -0.46179652307E+03  0.46179652307E+03  0.00000000000E+00 0. -1.
         23    2    1    2    0    0  0.10278896477E+03 -0.20608260289E+03  0.86230122129E+02  0.26279370152E+03  0.92678396097E+02 0.  0.
         23    2    1    2    0    0 -0.65237433564E+02  0.22533886806E+03 -0.23964845515E+03  0.34812386775E+03  0.93409405570E+02 0.  0.
        -11    1    3    3    0    0  0.52292874145E+02 -0.15172526217E+03  0.97454787293E+02  0.18775658559E+03  0.00000000000E+00 0. -1.
         11    1    3    3    0    0  0.50496090625E+02 -0.54357340718E+02 -0.11224665164E+02  0.75037115925E+02  0.00000000000E+00 0.  1.
        -13    1    4    4    0    0 -0.47875742966E+02  0.21384667172E+03 -0.17572337610E+03  0.28089355756E+03  0.00000000000E+00 0. -1.
         13    1    4    4    0    0 -0.17361690598E+02  0.11492196334E+02 -0.63925079052E+02  0.67230310194E+02  0.00000000000E+00 0.  1.
          1    1    1    2  501    0 -0.37551531207E+02 -0.19256265168E+02 -0.74037233286E+02  0.85219910566E+02  0.00000000000E+00 0. -1.
<scales pt_clust_5="13000.00000" pt_clust_6="13000.00000" pt_clust_7="13000.00000" pt_clust_8="13000.00000" pt_clust_9="42.20096"></scales>
<clustering>
<clus scale="   42.201">  2  9  1 -1</clus>
<clus scale="   92.678">  5  6 -1 -1</clus>
<clus scale="   93.409">  7  8 -1 -1</clus>
<clus scale="  248.536">  1  5  2 -1</clus>
<clus scale="   42.201">  2  5  1 -1</clus>
</clustering>
</event>
<event>
 9    1  0.1445593E-005  0.2530635E+03  0.7546771E-02  0.1111489E+00
          1   -1    0    0  502    0 -0.00000000000E+00  0.00000000000E+00  0.12491994799E+04  0.12491994799E+04  0.00000000000E+00 0. -1.
         21   -1    0    0  501  502  0.00000000000E+00 -0.00000000000E+00 -0.74313681049E+02  0.74313681049E+02  0.00000000000E+00 0.  1.
         23    2    1    2    0    0  0.15068991011E+03 -0.19531812335E+03  0.72745828750E+03  0.77340653205E+03  0.90030469500E+02 0.  0.
         23    2    1    2    0    0 -0.12888519569E+03  0.18066870325E+03  0.46152625273E+03  0.52029345077E+03  0.91903313055E+02 0.  0.
        -13    1    3    3    0    0  0.26389224652E+02 -0.49918376384E+02  0.77529309631E+02  0.95911570368E+02  0.00000000000E+00 0.  1.
         13    1    3    3    0    0  0.12430068546E+03 -0.14539974696E+03  0.64992897787E+03  0.67749496168E+03  0.00000000000E+00 0. -1.
        -13    1    4    4    0    0 -0.20522114692E+02  0.10747695517E+03  0.21373446739E+03  0.24011429703E+03  0.00000000000E+00 0.  1.
         13    1    4    4    0    0 -0.10836308100E+03  0.73191748072E+02  0.24779178534E+03  0.28017915374E+03  0.00000000000E+00 0. -1.
          1    1    1    2  501    0 -0.21804714420E+02  0.14649420103E+02 -0.14098741400E+02  0.29813178115E+02  0.00000000000E+00 0. -1.
<scales pt_clust_5="13000.00000" pt_clust_6="13000.00000" pt_clust_7="13000.00000" pt_clust_8="13000.00000" pt_clust_9="26.26882"></scales>
<clustering>
<clus scale="   26.269">  2  9  1 -1</clus>
<clus scale="   90.030">  5  6 -1 -1</clus>
<clus scale="   91.903">  7  8 -1 -1</clus>
<clus scale="  252.389">  1  5  2 -1</clus>
<clus scale="   26.269">  2  5  1 -1</clus>
</clustering>
</event>
<event>
 9    1  0.1445593E-005  0.1473220E+03  0.7546771E-02  0.1204944E+00
         21   -1    0    0  501  502  0.00000000000E+00  0.00000000000E+00  0.94600721848E+02  0.94600721848E+02  0.00000000000E+00 0. -1.
          2   -1    0    0  502    0 -0.00000000000E+00 -0.00000000000E+00 -0.58322690970E+03  0.58322690970E+03  0.00000000000E+00 0. -1.
         23    2    1    2    0    0 -0.51451587509E+02 -0.92467363330E+02 -0.31639781177E+03  0.34716844134E+03  0.96025372842E+02 0.  0.
         23    2    1    2    0    0  0.45860157174E+02  0.11195828501E+03 -0.22676847438E+03  0.27247171352E+03  0.90438277835E+02 0.  0.
        -11    1    3    3    0    0 -0.66081062319E+02 -0.73910106891E+02 -0.30542743309E+03  0.32111575418E+03  0.00000000000E+00 0. -1.
         11    1    3    3    0    0  0.14629474810E+02 -0.18557256439E+02 -0.10970378678E+02  0.26052687157E+02  0.00000000000E+00 0.  1.
        -11    1    4    4    0    0  0.33498707115E+01  0.10334056597E+03 -0.18671853247E+03  0.21343454401E+03  0.00000000000E+00 0. -1.
         11    1    4    4    0    0  0.42510286463E+02  0.86177190326E+01 -0.40049941911E+02  0.59037169508E+02  0.00000000000E+00 0.  1.
          2    1    1    2  501    0  0.55914303347E+01 -0.19490921676E+02  0.54540098300E+02  0.58187476690E+02  0.00000000000E+00 0. -1.
<scales pt_clust_5="13000.00000" pt_clust_6="13000.00000" pt_clust_7="13000.00000" pt_clust_8="13000.00000" pt_clust_9="20.27708"></scales>
<clustering>
<clus scale="   20.277">  1  9  2 -1</clus>
<clus scale="   90.438">  7  8 -1 -1</clus>
<clus scale="   96.025">  5  6 -1 -1</clus>
<clus scale="  143.743">  1  7  2 -1</clus>
<clus scale="   20.277">  1  5  2 -1</clus>
</clustering>
</event>
<event>
 9    1  0.1445593E-005  0.9718890E+02  0.7546771E-02  0.1287792E+00
         21   -1    0    0  501  502  0.00000000000E+00  0.00000000000E+00  0.71103585217E+03  0.71103585217E+03  0.00000000000E+00 0.  1.
         -1   -1    0    0    0  501 -0.00000000000E+00 -0.00000000000E+00 -0.98529434722E+02  0.98529434722E+02  0.00000000000E+00 0.  1.
         23    2    1    2    0    0  0.26060040463E+01  0.16633229186E+02 -0.40939892754E+02  0.10433359760E+03  0.94477347547E+02 0.  0.
         23    2    1    2    0    0  0.22278702452E+02  0.66403077390E+02  0.13872477486E+03  0.18326182831E+03  0.97131999287E+02 0.  0.
        -11    1    4    4    0    0  0.19524820440E+02  0.91609398728E+02  0.10040366963E+03  0.13731131571E+03  0.00000000000E+00 0.  1.
         11    1    4    4    0    0  0.27538820120E+01 -0.25206321337E+02  0.38321105235E+02  0.45950512597E+02  0.00000000000E+00 0. -1.
        -13    1    3    3    0    0  0.43723205022E+02 -0.38575891930E+01 -0.17160498102E+01  0.43926580549E+02  0.00000000000E+00 0. -1.
         13    1    3    3    0    0 -0.41117200976E+02  0.20490818379E+02 -0.39223842944E+02  0.60407017053E+02  0.00000000000E+00 0.  1.
         -1    1    1    2    0  502 -0.24884706498E+02 -0.83036306576E+02  0.51472153534E+03  0.52196986098E+03  0.00000000000E+00 0.  1.
<scales pt_clust_5="13000.00000" pt_clust_6="13000.00000" pt_clust_7="13000.00000" pt_clust_8="13000.00000" pt_clust_9="86.68493"></scales>
<clustering>
<clus scale="   86.685">  1  9  2 -1</clus>
<clus scale="   94.477">  7  8 -1 -1</clus>
<clus scale="   94.536">  2  7  1 -1</clus>
<clus scale="   97.132">  5  6 -1 -1</clus>
<clus scale="   86.685">  1  5  2 -1</clus>
</clustering>
</event>
<event>
 9    1  0.1445593E-005  0.1979864E+03  0.7546771E-02  0.1167394E+00
         21   -1    0    0  501  502  0.00000000000E+00  0.00000000000E+00  0.12344764442E+04  0.12344764442E+04  0.00000000000E+00 0.  1.
          3   -1    0    0  502    0 -0.00000000000E+00 -0.00000000000E+00 -0.11265819760E+03  0.11265819760E+03  0.00000000000E+00 0. -1.
         23    2    1    2    0    0 -0.88329985791E+01 -0.98802081916E+02 -0.38556235029E+01  0.13659621923E+03  0.93828503246E+02 0.  0.
         23    2    1    2    0    0 -0.16702086060E+03  0.10527574408E+03  0.32552027000E+03  0.39126296716E+03  0.90245848215E+02 0.  0.
        -11    1    3    3    0    0  0.26455834212E+02 -0.68480078322E+02 -0.34262707645E+02  0.81014600079E+02  0.00000000000E+00 0. -1.
         11    1    3    3    0    0 -0.35288832792E+02 -0.30322003594E+02  0.30407084142E+02  0.55581619154E+02  0.00000000000E+00 0.  1.
        -13    1    4    4    0    0 -0.16128641984E+03  0.65176653111E+02  0.23773953683E+03  0.29458681692E+03  0.00000000000E+00 0.  1.
         13    1    4    4    0    0 -0.57344407620E+01  0.40099090967E+02  0.87780733172E+02  0.96676150231E+02  0.00000000000E+00 0. -1.
          3    1    1    2  501    0  0.17585385918E+03 -0.64736621618E+01  0.80015360011E+03  0.81927545543E+03  0.00000000000E+00 0. -1.
<scales pt_clust_5="13000.00000" pt_clust_6="13000.00000" pt_clust_7="13000.00000" pt_clust_8="13000.00000" pt_clust_9="176.22231"></scales>
<clustering>
<clus scale="   90.246">  7  8 -1 -1</clus>
<clus scale="   93.829">  5  6 -1 -1</clus>
<clus scale="  136.542">  2  5  1 -1</clus>
<clus scale="  176.222">  1  9  2 -1</clus>
<clus scale="  176.222">  1  5  2 -1</clus>
</clustering>
</event>
<event>
 9    1  0.1445593E-005  0.1845548E+03  0.7546771E-02  0.1182793E+00
         21   -1    0    0  501  502  0.00000000000E+00  0.00000000000E+00  0.50005171422E+03  0.50005171422E+03  0.00000000000E+00 0. -1.
          1   -1    0    0  502    0 -0.00000000000E+00 -0.00000000000E+00 -0.31971977344E+03  0.31971977344E+03  0.00000000000E+00 0. -1.
         23    2    1    2    0    0 -0.70655240390E+01 -0.75706498866E+02  0.37651843948E+02  0.12471533120E+03  0.91404906228E+02 0.  0.
         23    2    1    2    0    0  0.59020523016E+02 -0.82353980890E+02 -0.24150302033E+03  0.27639268220E+03  0.88338019223E+02 0.  0.
        -11    1    3    3    0    0 -0.28887124431E+02 -0.59071438037E+02  0.60237345283E+02  0.89176445974E+02  0.00000000000E+00 0. -1.
         11    1    3    3    0    0  0.21821600392E+02 -0.16635060829E+02 -0.22585501335E+02  0.35538885225E+02  0.00000000000E+00 0.  1.
        -13    1    4    4    0    0  0.42822431182E+02 -0.10024991733E+03 -0.18157280184E+03  0.21178406197E+03  0.00000000000E+00 0. -1.
         13    1    4    4    0    0  0.16198091834E+02  0.17895936437E+02 -0.59930218480E+02  0.64608620223E+02  0.00000000000E+00 0.  1.
          1    1    1    2  501    0 -0.51954998977E+02  0.15806047976E+03  0.38418311716E+03  0.41866347427E+03  0.00000000000E+00 0. -1.
<scales pt_clust_5="13000.00000" pt_clust_6="13000.00000" pt_clust_7="13000.00000" pt_clust_8="13000.00000" pt_clust_9="162.03977"></scales>
<clustering>
<clus scale="   88.338">  7  8 -1 -1</clus>
<clus scale="   91.405">  5  6 -1 -1</clus>
<clus scale="  118.896">  2  5  1 -1</clus>
<clus scale="  162.040">  1  9  2 -1</clus>
<clus scale="  162.040">  1  5  2 -1</clus>
</clustering>
</event>
<event>
 9    1  0.1445593E-005  0.1767560E+03  0.7546771E-02  0.1173122E+00
         -1   -1    0    0    0  501 -0.00000000000E+00  0.00000000000E+00  0.11146291857E+04  0.11146291857E+04  0.00000000000E+00 0.  1.
         21   -1    0    0  501  502  0.00000000000E+00 -0.00000000000E+00 -0.11588022205E+03  0.11588022205E+03  0.00000000000E+00 0.  1.
         23    2    1    2    0    0 -0.10200427537E+03 -0.82023215993E+02  0.61552454931E+03  0.63347556160E+03  0.72719572185E+02 0.  0.
         23    2    1    2    0    0  0.18725644666E+03  0.13406638355E+03  0.42256112098E+03  0.48968488025E+03  0.90524079494E+02 0.  0.
        -11    1    4    4    0    0  0.17013320160E+03  0.10630609660E+03  0.28640888033E+03  0.34968033858E+03  0.00000000000E+00 0.  1.
         11    1    4    4    0    0  0.17123245059E+02  0.27760286949E+02  0.13615224065E+03  0.14000454167E+03  0.00000000000E+00 0. -1.
        -13    1    3    3    0    0 -0.14701582835E+02 -0.40207803879E+02  0.97509361376E+02  0.10649356594E+03  0.00000000000E+00 0.  1.
         13    1    3    3    0    0 -0.87302692530E+02 -0.41815412114E+02  0.51801518794E+03  0.52698199566E+03  0.00000000000E+00 0. -1.
         -1    1    1    2    0  502 -0.85252171291E+02 -0.52043167555E+02 -0.39336706621E+02  0.10734896593E+03  0.00000000000E+00 0.  1.
<scales pt_clust_5="13000.00000" pt_clust_6="13000.00000" pt_clust_7="13000.00000" pt_clust_8="13000.00000" pt_clust_9="99.88205"></scales>
<clustering>
<clus scale="   72.720">  7  8 -1 -1</clus>
<clus scale="   90.524">  5  6 -1 -1</clus>
<clus scale="   99.882">  2  9  1 -1</clus>
<clus scale="  168.334">  1  7  2 -1</clus>
<clus scale="   99.882">  2  5  1 -1</clus>
</clustering>
</event>
<event>
 9    1  0.1445593E-005  0.9683130E+02  0.7546771E-02  0.1294278E+00
         21   -1    0    0  501  502  0.00000000000E+00  0.00000000000E+00  0.30168141206E+02  0.30168141206E+02  0.00000000000E+00 0. -1.
          1   -1    0    0  502    0 -0.00000000000E+00 -0.00000000000E+00 -0.51465068164E+03  0.51465068164E+03  0.00000000000E+00 0. -1.
         23    2    1    2    0    0 -0.20365018994E+02  0.41690525969E+02 -0.24136885418E+03  0.25796876692E+03  0.78333434648E+02 0.  0.
         23    2    1    2    0    0  0.27228143605E+02  0.22621977277E+01 -0.21232736165E+03  0.23275068271E+03  0.91342665024E+02 0.  0.
        -11    1    3    3    0    0  0.91106232073E+01  0.56656156852E+02 -0.16699298302E+03  0.17657740496E+03  0.00000000000E+00 0. -1.
         11    1    3    3    0    0 -0.29475642201E+02 -0.14965630883E+02 -0.74375871164E+02  0.81391361964E+02  0.00000000000E+00 0.  1.
        -11    1    4    4    0    0 -0.28651540617E+02  0.16147822211E+02 -0.44597509389E+02  0.55413001955E+02  0.00000000000E+00 0.  1.
         11    1    4    4    0    0  0.55879684222E+02 -0.13885624484E+02 -0.16772985226E+03  0.17733768076E+03  0.00000000000E+00 0. -1.
          1    1    1    2  501    0 -0.68631246107E+01 -0.43952723697E+02 -0.30786324601E+02  0.54099373215E+02  0.00000000000E+00 0. -1.
<scales pt_clust_5="13000.00000" pt_clust_6="13000.00000" pt_clust_7="13000.00000" pt_clust_8="13000.00000" pt_clust_9="44.48533"></scales>
<clustering>
<clus scale="   44.485">  1  9  2 -1</clus>
<clus scale="   78.333">  5  6 -1 -1</clus>
<clus scale="   84.670">  2  5  1 -1</clus>
<clus scale="   91.343">  7  8 -1 -1</clus>
<clus scale="   44.485">  1  5  2 -1</clus>
</clustering>
</event>
<event>
 9    1  0.1445593E-005  0.2599042E+03  0.7546771E-02  0.1142381E+00
         -1   -1    0    0    0  501 -0.00000000000E+00  0.00000000000E+00  0.12885453339E+03  0.12885453339E+03  0.00000000000E+00 0.  1.
         21   -1    0    0  501  502  0.00000000000E+00 -0.00000000000E+00 -0.10890324973E+04  0.10890324973E+04  0.00000000000E+00 0.  1.
         23    2    1    2    0    0 -0.43655810689E+02  0.34213947669E+02  0.20467737710E+02  0.11053733629E+03  0.93397807279E+02 0.  0.
         23    2    1    2    0    0 -0.21366940733E+03 -0.60466527829E+02 -0.33796684508E+03  0.41457153479E+03  0.91308008818E+02 0.  0.
        -11    1    4    4    0    0 -0.68113511473E+02  0.23186952393E+02 -0.11048049144E+03  0.13184469726E+03  0.00000000000E+00 0. -1.
         11    1    4    4    0    0 -0.14555589585E+03 -0.83653480222E+02 -0.22748635364E+03  0.28272683753E+03  0.00000000000E+00 0.  1.
        -13    1    3    3    0    0 -0.23671075383E+01  0.58773318416E+02  0.21104088133E+02  0.62492309060E+02  0.00000000000E+00 0.  1.
         13    1    3    3    0    0 -0.41288703151E+02 -0.24559370747E+02 -0.63635042291E+00  0.48045027227E+02  0.00000000000E+00 0. -1.
         -1    1    1    2    0  502  0.25732521802E+03  0.26252580160E+02 -0.64267885652E+03  0.69277815959E+03  0.00000000000E+00 0.  1.
<scales pt_clust_5="13000.00000" pt_clust_6="13000.00000" pt_clust_7="13000.00000" pt_clust_8="13000.00000" pt_clust_9="243.33725"></scales>
<clustering>
<clus scale="   91.308">  5  6 -1 -1</clus>
<clus scale="   93.398">  7  8 -1 -1</clus>
<clus scale="  108.626">  1  7  2 -1</clus>
<clus scale="  243.337">  2  9  1 -1</clus>
<clus scale="  243.337">  2  5  1 -1</clus>
</clustering>
</event>
<event>
 9    1  0.1445593E-005  0.1239711E+03  0.7546771E-02  0.1238927E+00
         21   -1    0    0  501  502  0.00000000000E+00  0.00000000000E+00  0.44165902253E+03  0.44165902253E+03  0.00000000000E+00 0. -1.
          1   -1    0    0  502    0 -0.00000000000E+00 -0.00000000000E+00 -0.21848745277E+03  0.21848745277E+03  0.00000000000E+00 0. -1.
         23    2    1    2    0    0  0.84578060108E+02 -0.13751414934E+02 -0.17177370166E+03  0.21258968564E+03  0.91354366037E+02 0.  0.
         23    2    1    2    0    0 -0.47370831219E+02  0.84268769836E+02  0.20569907281E+03  0.24220051652E+03  0.83688472490E+02 0.  0.
        -11    1    4    4    0    0  0.20904400342E+02  0.36459172435E+02  0.47768226733E+02  0.63624434721E+02  0.00000000000E+00 0. -1.
         11    1    4    4    0    0 -0.68275231561E+02  0.47809597402E+02  0.15793084608E+03  0.17857608180E+03  0.00000000000E+00 0.  1.
        -13    1    3    3    0    0  0.23910873218E+02 -0.46164499425E+02 -0.46863133300E+02  0.69993172010E+02  0.00000000000E+00 0.  1.
         13    1    3    3    0    0  0.60667186890E+02  0.32413084491E+02 -0.12491056836E+03  0.14259651363E+03  0.00000000000E+00 0. -1.
          1    1    1    2  501    0 -0.37207228889E+02 -0.70517354902E+02  0.18924619862E+03  0.20535627313E+03  0.00000000000E+00 0. -1.
<scales pt_clust_5="13000.00000" pt_clust_6="13000.00000" pt_clust_7="13000.00000" pt_clust_8="13000.00000" pt_clust_9="79.73127"></scales>
<clustering>
<clus scale="   79.731">  1  9  2 -1</clus>
<clus scale="   83.688">  5  6 -1 -1</clus>
<clus scale="   91.354">  7  8 -1 -1</clus>
<clus scale="  118.436">  1  5  2 -1</clus>
<clus scale="   79.731">  1  5  2 -1</clus>
</clustering>
</event>
<event>
 9    1  0.1445593E-005  0.1476957E+03  0.7546771E-02  0.1203601E+00
         21   -1    0    0  501  502  0.00000000000E+00  0.00000000000E+00  0.52028743520E+03  0.52028743520E+03  0.00000000000E+00 0.  1.
          3   -1    0    0  502    0 -0.00000000000E+00 -0.00000000000E+00 -0.13398265269E+03  0.13398265269E+03  0.00000000000E+00 0. -1.
         23    2    1    2    0    0  0.14273045764E+02  0.10893963057E+03 -0.68365956288E+02  0.16039034999E+03  0.94760737893E+02 0.  0.
         23    2    1    2    0    0 -0.32896594605E+02 -0.12735658897E+03  0.35103356766E+03  0.38698406834E+03  0.96074017505E+02 0.  0.
        -11    1    3    3    0    0 -0.44183441158E+01  0.81457143030E+02 -0.89425069460E+02  0.12104392163E+03  0.00000000000E+00 0. -1.
         11    1    3    3    0    0  0.18691389880E+02  0.27482487540E+02  0.21059113172E+02  0.39346428359E+02  0.00000000000E+00 0.  1.
        -11    1    4    4    0    0 -0.17007324653E+02  0.10638054776E+02  0.79391826736E+02  0.81886991969E+02  0.00000000000E+00 0. -1.
         11    1    4    4    0    0 -0.15889269952E+02 -0.13799464374E+03  0.27164174092E+03  0.30509707638E+03  0.00000000000E+00 0.  1.
          3    1    1    2  501    0  0.18623548841E+02  0.18416958398E+02  0.10363717114E+03  0.10689566955E+03  0.00000000000E+00 0. -1.
<scales pt_clust_5="13000.00000" pt_clust_6="13000.00000" pt_clust_7="13000.00000" pt_clust_8="13000.00000" pt_clust_9="26.19200"></scales>
<clustering>
<clus scale="   26.192">  1  9  2 -1</clus>
<clus scale="   94.761">  5  6 -1 -1</clus>
<clus scale="   96.074">  7  8 -1 -1</clus>
<clus scale="  146.845">  2  5  1 -1</clus>
<clus scale="   26.192">  1  5  2 -1</clus>
</clustering>
</event>
<event>
 9    1  0.1445593E-005  0.1159588E+03  0.7546771E-02  0.1250480E+00
         21   -1    0    0  501  502  0.00000000000E+00  0.00000000000E+00  0.54521078598E+03  0.54521078598E+03  0.00000000000E+00 0. -1.
          3   -1    0    0  502    0 -0.00000000000E+00 -0.00000000000E+00 -0.85546031851E+02  0.85546031851E+02  0.00000000000E+00 0. -1.
         23    2    1    2    0    0  0.69586209253E+02 -0.32365515725E+02 -0.17225382140E+02  0.12061237373E+03  0.91437759057E+02 0.  0.
         23    2    1    2    0    0 -0.49188041760E+02 -0.11276818468E+02  0.17571110887E+03  0.20513699318E+03  0.93059991957E+02 0.  0.
        -11    1    4    4    0    0  0.25153256061E+02 -0.14521241300E+02  0.31414360913E+02  0.42783347355E+02  0.00000000000E+00 0. -1.
         11    1    4    4    0    0 -0.74341297821E+02  0.32444228317E+01  0.14429674795E+03  0.16235364582E+03  0.00000000000E+00 0.  1.
        -11    1    3    3    0    0 -0.21882969491E+00 -0.27808843085E+02  0.26256403790E+02  0.38246285834E+02  0.00000000000E+00 0.  1.
         11    1    3    3    0    0  0.69805038948E+02 -0.45566726401E+01 -0.43481785930E+02  0.82366087899E+02  0.00000000000E+00 0. -1.
          3    1    1    2  501    0 -0.20398167493E+02  0.43642334193E+02  0.30117902740E+03  0.30500745092E+03  0.00000000000E+00 0. -1.
<scales pt_clust_5="13000.00000" pt_clust_6="13000.00000" pt_clust_7="13000.00000" pt_clust_8="13000.00000" pt_clust_9="48.17404"></scales>
<clustering>
<clus scale="   48.174">  1  9  2 -1</clus>
<clus scale="   91.438">  7  8 -1 -1</clus>
<clus scale="   93.060">  5  6 -1 -1</clus>
<clus scale="  114.661">  2  7  1 -1</clus>
<clus scale="   48.174">  1  5  2 -1</clus>
</clustering>
</event>
<event>
 9    1  0.1445593E-005  0.1995006E+03  0.7546771E-02  0.1154029E+00
         21   -1    0    0  501  502  0.00000000000E+00  0.00000000000E+00  0.47865380457E+02  0.47865380457E+02  0.00000000000E+00 0. -1.
          2   -1    0    0  502    0 -0.00000000000E+00 -0.00000000000E+00 -0.14466007339E+04  0.14466007339E+04  0.00000000000E+00 0. -1.
         23    2    1    2    0    0 -0.14306437309E+03  0.13505322911E+03 -0.87843563815E+03  0.90837342834E+03  0.12159903529E+03 0.  0.
         23    2    1    2    0    0  0.12450736583E+03 -0.25119835300E+02 -0.34179684843E+03  0.37563369460E+03  0.90235783632E+02 0.  0.
        -11    1    3    3    0    0 -0.10842534014E+03  0.53069095807E+02 -0.68353898024E+03  0.69411664785E+03  0.00000000000E+00 0.  1.
         11    1    3    3    0    0 -0.34639032943E+02  0.81984133307E+02 -0.19489665791E+03  0.21425678048E+03  0.00000000000E+00 0. -1.
        -11    1    4    4    0    0 -0.36732882878E+01 -0.26381010981E+02 -0.76196127735E+02  0.80717412428E+02  0.00000000000E+00 0.  1.
         11    1    4    4    0    0  0.12818065412E+03  0.12611756806E+01 -0.26560072070E+03  0.29491628217E+03  0.00000000000E+00 0. -1.
          2    1    1    2  501    0  0.18557007256E+02 -0.10993339381E+03 -0.17850286684E+03  0.21045899140E+03  0.00000000000E+00 0. -1.
<scales pt_clust_5="13000.00000" pt_clust_6="13000.00000" pt_clust_7="13000.00000" pt_clust_8="13000.00000" pt_clust_9="111.48863"></scales>
<clustering>
<clus scale="   90.236">  7  8 -1 -1</clus>
<clus scale="  111.489">  1  9  2 -1</clus>
<clus scale="  121.599">  5  6 -1 -1</clus>
<clus scale="  182.090">  1  7  2 -1</clus>
<clus scale="  111.489">  1  5  2 -1</clus>
</clustering>
</event>
<event>
 9    1  0.1445593E-005  0.3718279E+03  0.7546771E-02  0.1054127E+00
          1   -1    0    0  502    0 -0.00000000000E+00  0.00000000000E+00  0.10349692727E+04  0.10349692727E+04  0.00000000000E+00 0. -1.
         21   -1    0    0  501  502  0.00000000000E+00 -0.00000000000E+00 -0.53664525998E+03  0.53664525998E+03  0.00000000000E+00 0. -1.
         23    2    1    2    0    0  0.13431864962E+02  0.32924665380E+03  0.55381312483E+03  0.65135252996E+03  0.94696182699E+02 0.  0.
         23    2    1    2    0    0 -0.92049151325E+02 -0.59515898232E+03 -0.15053912783E+03  0.62713310673E+03  0.89143951266E+02 0.  0.
        -11    1    4    4    0    0 -0.36374566149E+02 -0.56634788321E+02 -0.20099702115E+02  0.70246753204E+02  0.00000000000E+00 0.  1.
         11    1    4    4    0    0 -0.55674585176E+02 -0.53852419400E+03 -0.13043942571E+03  0.55688635352E+03  0.00000000000E+00 0. -1.
        -11    1    3    3    0    0 -0.35509447097E+02  0.22387001111E+03  0.36698846346E+03  0.43134584155E+03  0.00000000000E+00 0.  1.
         11    1    3    3    0    0  0.48941312059E+02  0.10537664269E+03  0.18682466137E+03  0.22000668841E+03  0.00000000000E+00 0. -1.
          1    1    1    2  501    0  0.78617286363E+02  0.26591232852E+03  0.95050015713E+02  0.29312889599E+03  0.00000000000E+00 0. -1.
<scales pt_clust_5="13000.00000" pt_clust_6="13000.00000" pt_clust_7="13000.00000" pt_clust_8="13000.00000" pt_clust_9="277.29068"></scales>
<clustering>
<clus scale="   89.144">  5  6 -1 -1</clus>
<clus scale="   94.696">  7  8 -1 -1</clus>
<clus scale="  277.291">  2  9  1 -1</clus>
<clus scale="  370.453">  2  5  1 -1</clus>
<clus scale="  277.291">  2  5  1 -1</clus>
</clustering>
</event>
<event>
 9    1  0.1445593E-005  0.9198528E+02  0.7546771E-02  0.1298523E+00
          2   -1    0    0  502    0 -0.00000000000E+00  0.00000000000E+00  0.38978409531E+03  0.38978409531E+03  0.00000000000E+00 0. -1.
         21   -1    0    0  501  502  0.00000000000E+00 -0.00000000000E+00 -0.51929671623E+02  0.51929671623E+02  0.00000000000E+00 0.  1.
         23    2    1    2    0    0 -0.10510408778E+01  0.43853611464E+01  0.26410695625E+03  0.27959406422E+03  0.91651624791E+02 0.  0.
         23    2    1    2    0    0 -0.34017613428E+02  0.72416285902E+01  0.78219999620E+02  0.12490410183E+03  0.90956182341E+02 0.  0.
        -11    1    4    4    0    0  0.27094193678E+02  0.17499692926E+02  0.12540372784E+02  0.34606293259E+02  0.00000000000E+00 0.  1.
         11    1    4    4    0    0 -0.61111807106E+02 -0.10258064336E+02  0.65679626837E+02  0.90297808573E+02  0.00000000000E+00 0. -1.
        -13    1    3    3    0    0  0.26723835305E+02  0.31629915229E+02  0.67611389727E+02  0.79283762093E+02  0.00000000000E+00 0.  1.
         13    1    3    3    0    0 -0.27774876182E+02 -0.27244554083E+02  0.19649556652E+03  0.20031030212E+03  0.00000000000E+00 0. -1.
          2    1    1    2  501    0  0.35068654306E+02 -0.11626989737E+02 -0.44725321803E+01  0.37215600885E+02  0.00000000000E+00 0. -1.
<scales pt_clust_5="13000.00000" pt_clust_6="13000.00000" pt_clust_7="13000.00000" pt_clust_8="13000.00000" pt_clust_9="36.94587"></scales>
<clustering>
<clus scale="   36.946">  2  9  1 -1</clus>
<clus scale="   90.956">  5  6 -1 -1</clus>
<clus scale="   91.292">  2  5  1 -1</clus>
<clus scale="   91.652">  7  8 -1 -1</clus>
<clus scale="   36.946">  2  5  1 -1</clus>
</clustering>
</event>
<event>
 9    1  0.1445593E-005  0.9722590E+02  0.7546771E-02  0.1286349E+00
         21   -1    0    0  501  502  0.00000000000E+00  0.00000000000E+00  0.51265268115E+02  0.51265268115E+02  0.00000000000E+00 0. -1.
          2   -1    0    0  502    0 -0.00000000000E+00 -0.00000000000E+00 -0.27618063992E+03  0.27618063992E+03  0.00000000000E+00 0. -1.
         23    2    1    2    0    0 -0.18187265514E+02 -0.26435996660E+02 -0.14930127147E+03  0.17824955480E+03  0.91936910861E+02 0.  0.
         23    2    1    2    0    0 -0.45470490728E+01  0.36271418976E+02 -0.75709116367E+02  0.12442553129E+03  0.91725411122E+02 0.  0.
        -11    1    4    4    0    0  0.24784928961E+02 -0.22135711220E+02 -0.22295202119E+02  0.40016977051E+02  0.00000000000E+00 0.  1.
         11    1    4    4    0    0 -0.29331978034E+02  0.58407130195E+02 -0.53413914247E+02  0.84408554236E+02  0.00000000000E+00 0. -1.
        -13    1    3    3    0    0 -0.73257130310E+01 -0.54359733267E+02 -0.48936577941E+02  0.73508063046E+02  0.00000000000E+00 0.  1.
         13    1    3    3    0    0 -0.10861552483E+02  0.27923736606E+02 -0.10036469353E+03  0.10474149175E+03  0.00000000000E+00 0. -1.
          2    1    1    2  501    0  0.22734314587E+02 -0.98354223157E+01  0.95016028291E-01  0.24770821946E+02  0.00000000000E+00 0. -1.
<scales pt_clust_5="13000.00000" pt_clust_6="13000.00000" pt_clust_7="13000.00000" pt_clust_8="13000.00000" pt_clust_9="24.77064"></scales>
<clustering>
<clus scale="   24.771">  1  9  2 -1</clus>
<clus scale="   91.725">  5  6 -1 -1</clus>
<clus scale="   91.937">  7  8 -1 -1</clus>
<clus scale="   97.026">  1  5  2 -1</clus>
<clus scale="   24.771">  1  5  2 -1</clus>
</clustering>
</event>
<event>
 9    1  0.1445593E-005  0.1030380E+03  0.7546771E-02  0.1274995E+00
         21   -1    0    0  501  502  0.00000000000E+00  0.00000000000E+00  0.69127505316E+02  0.69127505316E+02  0.00000000000E+00 0.  1.
          4   -1    0    0  502    0 -0.00000000000E+00 -0.00000000000E+00 -0.43672489024E+03  0.43672489024E+03  0.00000000000E+00 0. -1.
         23    2    1    2    0    0 -0.22306120269E+02 -0.34861424013E+02 -0.29843484114E+03  0.31543299745E+03  0.93390254254E+02 0.  0.
         23    2    1    2    0    0  0.73243667659E+02  0.66974458289E+01 -0.59282945180E+02  0.13138169939E+03  0.91308229160E+02 0.  0.
        -11    1    3    3    0    0  0.30506070481E+02  0.10066897723E+02 -0.78200950822E+02  0.84542010122E+02  0.00000000000E+00 0.  1.
         11    1    3    3    0    0 -0.52812190750E+02 -0.44928321736E+02 -0.22023389032E+03  0.23089098733E+03  0.00000000000E+00 0. -1.
        -13    1    4    4    0    0  0.50610620979E+02  0.48133898791E+02 -0.38988633659E+02  0.79990128912E+02  0.00000000000E+00 0.  1.
         13    1    4    4    0    0  0.22633046680E+02 -0.41436452962E+02 -0.20294311521E+02  0.51391570478E+02  0.00000000000E+00 0. -1.
          4    1    1    2  501    0 -0.50937547389E+02  0.28163978184E+02 -0.98795986048E+01  0.59037698717E+02  0.00000000000E+00 0. -1.
<scales pt_clust_5="13000.00000" pt_clust_6="13000.00000" pt_clust_7="13000.00000" pt_clust_8="13000.00000" pt_clust_9="58.20518"></scales>
<clustering>
<clus scale="   58.205">  1  9  2 -1</clus>
<clus scale="   91.308">  7  8 -1 -1</clus>
<clus scale="   93.390">  5  6 -1 -1</clus>
<clus scale="  101.155">  1  7  2 -1</clus>
<clus scale="   58.205">  1  5  2 -1</clus>
</clustering>
</event>
<event>
 9    1  0.1445593E-005  0.1089311E+03  0.7546771E-02  0.1262856E+00
         21   -1    0    0  501  502  0.00000000000E+00  0.00000000000E+00  0.10109881646E+03  0.10109881646E+03  0.00000000000E+00 0.  1.
          1   -1    0    0  502    0 -0.00000000000E+00 -0.00000000000E+00 -0.24695340823E+03  0.24695340823E+03  0.00000000000E+00 0. -1.
         23    2    1    2    0    0 -0.73869064906E+02  0.35106229436E+02 -0.11876715034E+03  0.17074971037E+03  0.91437090379E+02 0.  0.
         23    2    1    2    0    0  0.34836215459E+02 -0.11540606832E+02 -0.65454750782E+02  0.11771264662E+03  0.90692862242E+02 0.  0.
        -11    1    3    3    0    0 -0.48587907484E+02 -0.11712184115E+02 -0.10422687613E+03  0.11559066450E+03  0.00000000000E+00 0. -1.
         11    1    3    3    0    0 -0.25281157422E+02  0.46818413551E+02 -0.14540274209E+02  0.55159045877E+02  0.00000000000E+00 0.  1.
        -13    1    4    4    0    0 -0.33635554314E+01  0.34967736547E+02 -0.37396670071E+02  0.51308547405E+02  0.00000000000E+00 0.  1.
         13    1    4    4    0    0  0.38199770890E+02 -0.46508343379E+02 -0.28058080711E+02  0.66404099219E+02  0.00000000000E+00 0. -1.
          1    1    1    2  501    0  0.39032849447E+02 -0.23565622604E+02  0.38367309358E+02  0.59589867697E+02  0.00000000000E+00 0. -1.
<scales pt_clust_5="13000.00000" pt_clust_6="13000.00000" pt_clust_7="13000.00000" pt_clust_8="13000.00000" pt_clust_9="45.59498"></scales>
<clustering>
<clus scale="   45.595">  1  9  2 -1</clus>
<clus scale="   90.693">  7  8 -1 -1</clus>
<clus scale="   91.437">  5  6 -1 -1</clus>
<clus scale="  108.307">  1  7  2 -1</clus>
<clus scale="   45.595">  1  5  2 -1</clus>
</clustering>
</event>
<event>
 9    1  0.2277334E-005  0.8921704E+02  0.7546771E-02  0.1306033E+00
         21   -1    0    0  501  502  0.00000000000E+00  0.00000000000E+00  0.14622262569E+03  0.14622262569E+03  0.00000000000E+00 0. -1.
          1   -1    0    0  502    0 -0.00000000000E+00 -0.00000000000E+00 -0.51442508717E+03  0.51442508717E+03  0.00000000000E+00 0. -1.
         23    2    1    2    0    0  0.17653370737E+02 -0.27225246504E+02 -0.29194660590E+03  0.30457126992E+03  0.80485913172E+02 0.  0.
         23    2    1    2    0    0  0.16846513889E+02  0.42949223530E+02 -0.20288163829E+03  0.22389635995E+03  0.82705380796E+02 0.  0.
        -11    1    3    3    0    0 -0.32247746245E+02 -0.13993440270E+02 -0.11730174894E+03  0.12245584434E+03  0.00000000000E+00 0.  1.
         11    1    3    3    0    0  0.49901116982E+02 -0.13231806234E+02 -0.17464485696E+03  0.18211542558E+03  0.00000000000E+00 0. -1.
        -11    1    4    4    0    0  0.32993040298E+02  0.61603285970E+02 -0.15531108457E+03  0.17030865668E+03  0.00000000000E+00 0. -1.
         11    1    4    4    0    0 -0.16146526409E+02 -0.18654062440E+02 -0.47570553720E+02  0.53587703270E+02  0.00000000000E+00 0.  1.
          1    1    1    2  501    0 -0.34499884626E+02 -0.15723977026E+02  0.12662578270E+03  0.13218008299E+03  0.00000000000E+00 0. -1.
<scales pt_clust_5="13000.00000" pt_clust_6="13000.00000" pt_clust_7="13000.00000" pt_clust_8="13000.00000" pt_clust_9="37.91419"></scales>
<clustering>
<clus scale="   37.914">  1  9  2 -1</clus>
<clus scale="   80.486">  5  6 -1 -1</clus>
<clus scale="   82.705">  7  8 -1 -1</clus>
<clus scale="   87.164">  2  5  1 -1</clus>
<clus scale="   37.914">  1  5  2 -1</clus>
</clustering>
</event>
<event>
 9    1  0.1682736E-005  0.9574073E+02  0.7546771E-02  0.1289781E+00
         21   -1    0    0  501  502  0.00000000000E+00  0.00000000000E+00  0.14646790767E+03  0.14646790767E+03  0.00000000000E+00 0.  1.
          1   -1    0    0  502    0 -0.00000000000E+00 -0.00000000000E+00 -0.17278439869E+03  0.17278439869E+03  0.00000000000E+00 0. -1.
         23    2    1    2    0    0 -0.30062929045E+02  0.20560589673E+02 -0.11287171555E+03  0.14833267986E+03  0.89084466614E+02 0.  0.
         23    2    1    2    0    0  0.31716623332E+02  0.45639222178E+01  0.16618708786E+02  0.96588663657E+02  0.89590261098E+02 0.  0.
        -11    1    4    4    0    0 -0.28462904252E+02  0.79805930368E-01  0.22040858545E+02  0.35999204614E+02  0.00000000000E+00 0.  1.
         11    1    4    4    0    0  0.60179527584E+02  0.44841162874E+01 -0.54221497597E+01  0.60589459043E+02  0.00000000000E+00 0. -1.
        -11    1    3    3    0    0  0.91451880007E+01  0.24667097311E+02 -0.10485283941E+03  0.10810281257E+03  0.00000000000E+00 0. -1.
         11    1    3    3    0    0 -0.39208117046E+02 -0.41065076382E+01 -0.80188761383E+01  0.40229867285E+02  0.00000000000E+00 0.  1.
          1    1    1    2  501    0 -0.16536942866E+01 -0.25124511890E+02  0.69936515744E+02  0.74330962841E+02  0.00000000000E+00 0. -1.
<scales pt_clust_5="13000.00000" pt_clust_6="13000.00000" pt_clust_7="13000.00000" pt_clust_8="13000.00000" pt_clust_9="25.17888"></scales>
<clustering>
<clus scale="   25.179">  1  9  2 -1</clus>
<clus scale="   89.084">  7  8 -1 -1</clus>
<clus scale="   89.590">  5  6 -1 -1</clus>
<clus scale="   95.268">  2  7  1 -1</clus>
<clus scale="   25.179">  1  5  2 -1</clus>
</clustering>
</event>
<event>
 9    1  0.1445593E-005  0.1727505E+03  0.7546771E-02  0.1175234E+00
         21   -1    0    0  501  502  0.00000000000E+00  0.00000000000E+00  0.62424906944E+02  0.62424906944E+02  0.00000000000E+00 0.  1.
          4   -1    0    0  502    0 -0.00000000000E+00 -0.00000000000E+00 -0.10455509979E+04  0.10455509979E+04  0.00000000000E+00 0. -1.
         23    2    1    2    0    0  0.11190465395E+03  0.98912379187E+02 -0.82540256614E+03  0.84381130037E+03  0.91770388044E+02 0.  0.
         23    2    1    2    0    0 -0.12015466089E+03 -0.58612244212E+02 -0.15143185373E+03  0.22255032063E+03  0.93405038308E+02 0.  0.
        -11    1    3    3    0    0  0.11755598563E+03  0.77207719563E+02 -0.78590284118E+03  0.79838819974E+03  0.00000000000E+00 0. -1.
         11    1    3    3    0    0 -0.56513316793E+01  0.21704659623E+02 -0.39499724959E+02  0.45423100632E+02  0.00000000000E+00 0.  1.
        -11    1    4    4    0    0 -0.10894528362E+03 -0.41962921169E+02 -0.64598778291E+02  0.13342774724E+03  0.00000000000E+00 0.  1.
         11    1    4    4    0    0 -0.11209377266E+02 -0.16649323043E+02 -0.86833075441E+02  0.89122573387E+02  0.00000000000E+00 0. -1.
          4    1    1    2  501    0  0.82500069402E+01 -0.40300134975E+02 -0.62916710709E+01  0.41614283826E+02  0.00000000000E+00 0. -1.
<scales pt_clust_5="13000.00000" pt_clust_6="13000.00000" pt_clust_7="13000.00000" pt_clust_8="13000.00000" pt_clust_9="41.13591"></scales>
<clustering>
<clus scale="   41.136">  1  9  2 -1</clus>
<clus scale="   91.770">  5  6 -1 -1</clus>
<clus scale="   93.405">  7  8 -1 -1</clus>
<clus scale="  171.872">  2  5  1 -1</clus>
<clus scale="   41.136">  1  5  2 -1</clus>
</clustering>
</event>
<event>
 9    1  0.1445593E-005  0.1592126E+03  0.7546771E-02  0.1209965E+00
         -1   -1    0    0    0  501 -0.00000000000E+00  0.00000000000E+00  0.21990331222E+03  0.21990331222E+03  0.00000000000E+00 0.  1.
         21   -1    0    0  501  502  0.00000000000E+00 -0.00000000000E+00 -0.25250816775E+03  0.25250816775E+03  0.00000000000E+00 0.  1.
         23    2    1    2    0    0 -0.30659456563E+02 -0.24632916935E+02 -0.10011290736E+02  0.10274481477E+03  0.94390084998E+02 0.  0.
         23    2    1    2    0    0 -0.74420387567E+02  0.10565270905E+03  0.10200479259E+03  0.18764817433E+03  0.90033163900E+02 0.  0.
        -11    1    3    3    0    0 -0.58712427957E+02 -0.14263810586E+02 -0.29306651691E+02  0.67152701527E+02  0.00000000000E+00 0.  1.
         11    1    3    3    0    0  0.28052971394E+02 -0.10369106349E+02  0.19295360955E+02  0.35592113240E+02  0.00000000000E+00 0. -1.
        -13    1    4    4    0    0 -0.72119110132E+02  0.65551893378E+02  0.24714146530E+02  0.10054355181E+03  0.00000000000E+00 0.  1.
         13    1    4    4    0    0 -0.23012774344E+01  0.40100815668E+02  0.77290646063E+02  0.87104622517E+02  0.00000000000E+00 0. -1.
         -1    1    1    2    0  502  0.10507984413E+03 -0.81019792111E+02 -0.12459835739E+03  0.18201849087E+03  0.00000000000E+00 0.  1.
<scales pt_clust_5="13000.00000" pt_clust_6="13000.00000" pt_clust_7="13000.00000" pt_clust_8="13000.00000" pt_clust_9="131.31137"></scales>
<clustering>
<clus scale="   90.033">  7  8 -1 -1</clus>
<clus scale="   94.390">  5  6 -1 -1</clus>
<clus scale="  102.256">  1  5  2 -1</clus>
<clus scale="  131.311">  2  9  1 -1</clus>
<clus scale="  131.311">  2  5  1 -1</clus>
</clustering>
</event>
<event>
 9    1  0.1445593E-005  0.2264094E+03  0.7546771E-02  0.1150306E+00
         21   -1    0    0  501  502  0.00000000000E+00  0.00000000000E+00  0.10813675327E+03  0.10813675327E+03  0.00000000000E+00 0. -1.
          2   -1    0    0  502    0 -0.00000000000E+00 -0.00000000000E+00 -0.92368151747E+03  0.92368151747E+03  0.00000000000E+00 0. -1.
         23    2    1    2    0    0 -0.97450320883E+02  0.24246165248E+02 -0.33500082426E+03  0.36156162117E+03  0.91743185461E+02 0.  0.
         23    2    1    2    0    0  0.11646614427E+03  0.18445759703E+03 -0.35301347283E+03  0.42493465305E+03  0.91443859831E+02 0.  0.
        -11    1    3    3    0    0  0.58355108431E+01  0.30202359906E+02 -0.10394566778E+03  0.10840174159E+03  0.00000000000E+00 0.  1.
         11    1    3    3    0    0 -0.10328583173E+03 -0.59561946582E+01 -0.23105515648E+03  0.25315987958E+03  0.00000000000E+00 0. -1.
        -13    1    4    4    0    0 -0.14064086962E+02  0.35920728115E+02 -0.51025167396E+02  0.63966123520E+02  0.00000000000E+00 0.  1.
         13    1    4    4    0    0  0.13053023124E+03  0.14853686892E+03 -0.30198830543E+03  0.36096852953E+03  0.00000000000E+00 0. -1.
          2    1    1    2  501    0 -0.19015823392E+02 -0.20870376228E+03 -0.12753046712E+03  0.24532199651E+03  0.00000000000E+00 0. -1.
<scales pt_clust_5="13000.00000" pt_clust_6="13000.00000" pt_clust_7="13000.00000" pt_clust_8="13000.00000" pt_clust_9="207.12132"></scales>
<clustering>
<clus scale="   91.444">  7  8 -1 -1</clus>
<clus scale="   91.743">  5  6 -1 -1</clus>
<clus scale="  136.019">  2  5  1 -1</clus>
<clus scale="  207.121">  1  9  2 -1</clus>
<clus scale="  207.121">  1  5  2 -1</clus>
</clustering>
</event>
<event>
 9    1  0.1445593E-005  0.1257182E+03  0.7546771E-02  0.1233978E+00
         21   -1    0    0  501  502  0.00000000000E+00  0.00000000000E+00  0.29416260968E+03  0.29416260968E+03  0.00000000000E+00 0.  1.
         -3   -1    0    0    0  501 -0.00000000000E+00 -0.00000000000E+00 -0.13227051871E+03  0.13227051871E+03  0.00000000000E+00 0.  1.
         23    2    1    2    0    0  0.83859477169E+02 -0.18375879853E+02 -0.57056847767E+02  0.13759342942E+03  0.91139360712E+02 0.  0.
         23    2    1    2    0    0 -0.78879682100E+02  0.49366130579E+02  0.95480629829E+02  0.16144418373E+03  0.91042049029E+02 0.  0.
        -11    1    4    4    0    0  0.15741423004E+02  0.23435346422E+02  0.64468696269E+01  0.28958072935E+02  0.00000000000E+00 0.  1.
         11    1    4    4    0    0 -0.94621105104E+02  0.25930784157E+02  0.89033760203E+02  0.13248611080E+03  0.00000000000E+00 0. -1.
        -11    1    3    3    0    0  0.68568930867E+01 -0.41603353849E+02 -0.66824419463E+01  0.42690878003E+02  0.00000000000E+00 0.  1.
         11    1    3    3    0    0  0.77002584083E+02  0.23227473996E+02 -0.50374405821E+02  0.94902551417E+02  0.00000000000E+00 0. -1.
         -3    1    1    2    0  502 -0.49797950695E+01 -0.30990250726E+02  0.12346830890E+03  0.12739551524E+03  0.00000000000E+00 0.  1.
<scales pt_clust_5="13000.00000" pt_clust_6="13000.00000" pt_clust_7="13000.00000" pt_clust_8="13000.00000" pt_clust_9="31.38780"></scales>
<clustering>
<clus scale="   31.388">  1  9  2 -1</clus>
<clus scale="   91.042">  5  6 -1 -1</clus>
<clus scale="   91.139">  7  8 -1 -1</clus>
<clus scale="  125.648">  1  5  2 -1</clus>
<clus scale="   31.388">  1  5  2 -1</clus>
</clustering>
</event>
<event>
 9    1  0.1445593E-005  0.1024779E+03  0.7546771E-02  0.1276064E+00
         -1   -1    0    0    0  501 -0.00000000000E+00  0.00000000000E+00  0.50881261791E+03  0.50881261791E+03  0.00000000000E+00 0.  1.
         21   -1    0    0  501  502  0.00000000000E+00 -0.00000000000E+00 -0.95704882852E+02  0.95704882852E+02  0.00000000000E+00 0.  1.
         23    2    1    2    0    0 -0.44592759348E+02  0.50409241547E+02  0.26363196507E+03  0.28616804880E+03  0.88660776698E+02 0.  0.
         23    2    1    2    0    0  0.53132897556E+02  0.20861934049E+02  0.20355782119E+03  0.22847519150E+03  0.86641799793E+02 0.  0.
        -11    1    4    4    0    0  0.77299973687E+01  0.49469038437E+02  0.95896574589E+02  0.10818082844E+03  0.00000000000E+00 0. -1.
         11    1    4    4    0    0  0.45402900187E+02 -0.28607104388E+02  0.10766124660E+03  0.12029436307E+03  0.00000000000E+00 0.  1.
        -11    1    3    3    0    0 -0.29983887567E+02  0.75311076157E+02  0.17300840901E+03  0.19105680122E+03  0.00000000000E+00 0.  1.
         11    1    3    3    0    0 -0.14608871781E+02 -0.24901834609E+02  0.90623556066E+02  0.95111247577E+02  0.00000000000E+00 0. -1.
         -1    1    1    2    0  502 -0.85401382076E+01 -0.71271175597E+02 -0.54082051201E+02  0.89874260462E+02  0.00000000000E+00 0.  1.
<scales pt_clust_5="13000.00000" pt_clust_6="13000.00000" pt_clust_7="13000.00000" pt_clust_8="13000.00000" pt_clust_9="71.78102"></scales>
<clustering>
<clus scale="   71.781">  2  9  1 -1</clus>
<clus scale="   86.642">  5  6 -1 -1</clus>
<clus scale="   88.661">  7  8 -1 -1</clus>
<clus scale="  100.736">  2  5  1 -1</clus>
<clus scale="   71.781">  2  5  1 -1</clus>
</clustering>
</event>
<event>
 9    1  0.1445593E-005  0.1269577E+03  0.7546771E-02  0.1234983E+00
         21   -1    0    0  501  502  0.00000000000E+00  0.00000000000E+00  0.14294245665E+03  0.14294245665E+03  0.00000000000E+00 0.  1.
          3   -1    0    0  502    0 -0.00000000000E+00 -0.00000000000E+00 -0.23501625607E+03  0.23501625607E+03  0.00000000000E+00 0. -1.
         23    2    1    2    0    0 -0.81084021609E+02 -0.18125858366E+02 -0.16340615235E+03  0.20224124857E+03  0.85421230942E+02 0.  0.
         23    2    1    2    0    0  0.78647311182E+02  0.39350262742E+02  0.36567067202E+02  0.13491258709E+03  0.95553194707E+02 0.  0.
        -11    1    3    3    0    0 -0.58336232382E+02  0.17239138632E+02 -0.42431341142E+02  0.74166856616E+02  0.00000000000E+00 0.  1.
         11    1    3    3    0    0 -0.22747789227E+02 -0.35364996998E+02 -0.12097481121E+03  0.12807439196E+03  0.00000000000E+00 0. -1.
        -11    1    4    4    0    0  0.79191803345E+02 -0.85648407063E+01  0.10441323223E+02  0.80335044930E+02  0.00000000000E+00 0.  1.
         11    1    4    4    0    0 -0.54449216265E+00  0.47915103449E+02  0.26125743979E+02  0.54577542164E+02  0.00000000000E+00 0. -1.
          3    1    1    2  501    0  0.24367104266E+01 -0.21224404377E+02  0.34765285735E+02  0.40804877050E+02  0.00000000000E+00 0. -1.
<scales pt_clust_5="13000.00000" pt_clust_6="13000.00000" pt_clust_7="13000.00000" pt_clust_8="13000.00000" pt_clust_9="21.36382"></scales>
<clustering>
<clus scale="   21.364">  1  9  2 -1</clus>
<clus scale="   85.421">  5  6 -1 -1</clus>
<clus scale="   95.553">  7  8 -1 -1</clus>
<clus scale="  119.518">  2  5  1 -1</clus>
<clus scale="   21.364">  1  5  2 -1</clus>
</clustering>
</event>
<event>
 9    1  0.1445593E-005  0.9808326E+02  0.7546771E-02  0.1285154E+00
          1   -1    0    0  502    0 -0.00000000000E+00  0.00000000000E+00  0.12028634854E+03  0.12028634854E+03  0.00000000000E+00 0. -1.
         21   -1    0    0  501  502  0.00000000000E+00 -0.00000000000E+00 -0.19736160004E+03  0.19736160004E+03  0.00000000000E+00 0.  1.
         23    2    1    2    0    0  0.28005298239E+02  0.18294859997E+02  0.73445235527E+02  0.12335992327E+03  0.93297746044E+02 0.  0.
         23    2    1    2    0    0 -0.77628775431E+01 -0.17515824278E+02 -0.88123019824E+02  0.12868462291E+03  0.91798688345E+02 0.  0.
        -13    1    4    4    0    0 -0.22337983710E+02 -0.49877299650E+02 -0.70077301152E+02  0.88868209577E+02  0.00000000000E+00 0.  1.
         13    1    4    4    0    0  0.14575106167E+02  0.32361475372E+02 -0.18045718672E+02  0.39816413330E+02  0.00000000000E+00 0. -1.
        -13    1    3    3    0    0  0.58398498843E+02  0.12526772669E+01  0.65227267477E+02  0.87558839017E+02  0.00000000000E+00 0. -1.
         13    1    3    3    0    0 -0.30393200604E+02  0.17042182730E+02  0.82179680492E+01  0.35801084257E+02  0.00000000000E+00 0.  1.
          1    1    1    2  501    0 -0.20242420696E+02 -0.77903571873E+00 -0.62397467207E+02  0.65603402398E+02  0.00000000000E+00 0. -1.
<scales pt_clust_5="13000.00000" pt_clust_6="13000.00000" pt_clust_7="13000.00000" pt_clust_8="13000.00000" pt_clust_9="20.25741"></scales>
<clustering>
<clus scale="   20.257">  2  9  1 -1</clus>
<clus scale="   91.799">  5  6 -1 -1</clus>
<clus scale="   93.298">  7  8 -1 -1</clus>
<clus scale="   96.658">  2  5  1 -1</clus>
<clus scale="   20.257">  2  5  1 -1</clus>
</clustering>
</event>
<event>
 9    1  0.1445593E-005  0.1022616E+03  0.7546771E-02  0.1280278E+00
         -2   -1    0    0    0  501 -0.00000000000E+00  0.00000000000E+00  0.56940989074E+02  0.56940989074E+02  0.00000000000E+00 0.  1.
         21   -1    0    0  501  502  0.00000000000E+00 -0.00000000000E+00 -0.76406359799E+03  0.76406359799E+03  0.00000000000E+00 0.  1.
         23    2    1    2    0    0 -0.40516432362E+01  0.31284344599E+02 -0.15979180229E+02  0.10614792940E+03  0.10008457766E+03 0.  0.
         23    2    1    2    0    0 -0.27991044678E+02  0.20370341624E+02 -0.23131443230E+03  0.25102732874E+03  0.91158673652E+02 0.  0.
        -13    1    4    4    0    0  0.80968933290E+01 -0.25904824519E+02 -0.13910625130E+03  0.14172920929E+03  0.00000000000E+00 0. -1.
         13    1    4    4    0    0 -0.36087938007E+02  0.46275166143E+02 -0.92208180997E+02  0.10929811944E+03  0.00000000000E+00 0.  1.
        -13    1    3    3    0    0 -0.33654944695E+02  0.32726072676E+02  0.26838107349E+02  0.54073423613E+02  0.00000000000E+00 0.  1.
         13    1    3    3    0    0  0.29603301459E+02 -0.14417280774E+01 -0.42817287578E+02  0.52074505784E+02  0.00000000000E+00 0. -1.
         -2    1    1    2    0  502  0.32042687914E+02 -0.51654686223E+02 -0.45982899639E+03  0.46382932893E+03  0.00000000000E+00 0.  1.
<scales pt_clust_5="13000.00000" pt_clust_6="13000.00000" pt_clust_7="13000.00000" pt_clust_8="13000.00000" pt_clust_9="60.78602"></scales>
<clustering>
<clus scale="   60.786">  2  9  1 -1</clus>
<clus scale="   91.159">  5  6 -1 -1</clus>
<clus scale="   93.544">  2  5  1 -1</clus>
<clus scale="  100.085">  7  8 -1 -1</clus>
<clus scale="   60.786">  2  5  1 -1</clus>
</clustering>
</event>
<event>
 9    1  0.1445593E-005  0.1786147E+03  0.7546771E-02  0.1170104E+00
         21   -1    0    0  501  502  0.00000000000E+00  0.00000000000E+00  0.97962354425E+02  0.97962354425E+02  0.00000000000E+00 0. -1.
          2   -1    0    0  502    0 -0.00000000000E+00 -0.00000000000E+00 -0.49272492783E+03  0.49272492783E+03  0.00000000000E+00 0. -1.
         23    2    1    2    0    0  0.12675012775E+03 -0.61077952652E+02 -0.27417505891E+03  0.32114674199E+03  0.90372317566E+02 0.  0.
         23    2    1    2    0    0 -0.16637453175E+03  0.49467289575E+02 -0.10702738613E+03  0.22608046697E+03  0.97621814212E+02 0.  0.
        -11    1    3    3    0    0  0.28815409390E+02  0.64239075529E+01 -0.13443843518E+03  0.13764188047E+03  0.00000000000E+00 0.  1.
         11    1    3    3    0    0  0.97934718362E+02 -0.67501860205E+02 -0.13973662373E+03  0.18350486152E+03  0.00000000000E+00 0. -1.
        -13    1    4    4    0    0 -0.16681576379E+03  0.23342257771E+02 -0.74031309080E+02  0.18399183343E+03  0.00000000000E+00 0. -1.
         13    1    4    4    0    0  0.44123203552E+00  0.26125031804E+02 -0.32996077046E+02  0.42088633536E+02  0.00000000000E+00 0.  1.
          2    1    1    2  501    0  0.39624403998E+02  0.11610663077E+02 -0.13560128375E+02  0.43460073295E+02  0.00000000000E+00 0. -1.
<scales pt_clust_5="13000.00000" pt_clust_6="13000.00000" pt_clust_7="13000.00000" pt_clust_8="13000.00000" pt_clust_9="41.29045"></scales>
<clustering>
<clus scale="   41.290">  1  9  2 -1</clus>
<clus scale="   90.372">  5  6 -1 -1</clus>
<clus scale="   97.622">  7  8 -1 -1</clus>
<clus scale="  174.758">  2  5  1 -1</clus>
<clus scale="   41.290">  1  5  2 -1</clus>
</clustering>
</event>
<event>
 9    1  0.1445593E-005  0.9751085E+02  0.7546771E-02  0.1286893E+00
          2   -1    0    0  502    0 -0.00000000000E+00  0.00000000000E+00  0.33288955878E+03  0.33288955878E+03  0.00000000000E+00 0. -1.
         21   -1    0    0  501  502  0.00000000000E+00 -0.00000000000E+00 -0.45537401737E+02  0.45537401737E+02  0.00000000000E+00 0. -1.
         23    2    1    2    0    0  0.22392308901E+02  0.29915991176E+02  0.17758563360E+03  0.20336437660E+03  0.91782516775E+02 0.  0.
         23    2    1    2    0    0 -0.10352667502E+00 -0.10512185096E+02  0.11041328720E+03  0.14550389980E+03  0.94179478191E+02 0.  0.
        -11    1    4    4    0    0  0.27071739450E+02 -0.26495126893E+02  0.10733975194E+03  0.11382747108E+03  0.00000000000E+00 0. -1.
         11    1    4    4    0    0 -0.27175266125E+02  0.15982941797E+02  0.30735352651E+01  0.31676428721E+02  0.00000000000E+00 0.  1.
        -11    1    3    3    0    0 -0.23514118423E+02 -0.20283643876E+02  0.53818090149E+02  0.62134747134E+02  0.00000000000E+00 0.  1.
         11    1    3    3    0    0  0.45906427324E+02  0.50199635052E+02  0.12376754345E+03  0.14122962947E+03  0.00000000000E+00 0. -1.
          2    1    1    2  501    0 -0.22288782226E+02 -0.19403806079E+02 -0.64676375168E+00  0.29558684119E+02  0.00000000000E+00 0. -1.
<scales pt_clust_5="13000.00000" pt_clust_6="13000.00000" pt_clust_7="13000.00000" pt_clust_8="13000.00000" pt_clust_9="29.55161"></scales>
<clustering>
<clus scale="   29.552">  2  9  1 -1</clus>
<clus scale="   91.783">  7  8 -1 -1</clus>
<clus scale="   94.179">  5  6 -1 -1</clus>
<clus scale="   95.198">  1  7  2 -1</clus>
<clus scale="   29.552">  2  5  1 -1</clus>
</clustering>
</event>
<event>
 9    1  0.1445593E-005  0.1040314E+03  0.7546771E-02  0.1272518E+00
         -4   -1    0    0    0  501 -0.00000000000E+00  0.00000000000E+00  0.28049160400E+03  0.28049160400E+03  0.00000000000E+00 0.  1.
         21   -1    0    0  501  502  0.00000000000E+00 -0.00000000000E+00 -0.16600176591E+03  0.16600176591E+03  0.00000000000E+00 0.  1.
         23    2    1    2    0    0 -0.43812057235E+02 -0.30021751197E+02  0.22026560608E+03  0.24504977360E+03  0.93336233119E+02 0.  0.
         23    2    1    2    0    0  0.73586515439E+01 -0.22772400832E+02 -0.29440587675E+02  0.10172833655E+03  0.94388422286E+02 0.  0.
        -13    1    4    4    0    0 -0.11754721330E+02  0.34685038500E+02 -0.14262462779E+02  0.39301949237E+02  0.00000000000E+00 0. -1.
         13    1    4    4    0    0  0.19113372874E+02 -0.57457439332E+02 -0.15178124896E+02  0.62426387310E+02  0.00000000000E+00 0.  1.
        -13    1    3    3    0    0  0.19940406452E+02 -0.34075228065E+02  0.11841723712E+03  0.12482541017E+03  0.00000000000E+00 0. -1.
         13    1    3    3    0    0 -0.63752463687E+02  0.40534768677E+01  0.10184836896E+03  0.12022436343E+03  0.00000000000E+00 0.  1.
         -4    1    1    2    0  502  0.36453405692E+02  0.52794152029E+02 -0.76335180317E+02  0.99715259760E+02  0.00000000000E+00 0.  1.
<scales pt_clust_5="13000.00000" pt_clust_6="13000.00000" pt_clust_7="13000.00000" pt_clust_8="13000.00000" pt_clust_9="64.15663"></scales>
<clustering>
<clus scale="   64.157">  2  9  1 -1</clus>
<clus scale="   93.336">  7  8 -1 -1</clus>
<clus scale="   94.388">  5  6 -1 -1</clus>
<clus scale="  103.078">  1  7  2 -1</clus>
<clus scale="   64.157">  2  5  1 -1</clus>
</clustering>
</event>
<event>
 9    1  0.1445593E-005  0.9991316E+02  0.7546771E-02  0.1280614E+00
         21   -1    0    0  501  502  0.00000000000E+00  0.00000000000E+00  0.57810943319E+02  0.57810943319E+02  0.00000000000E+00 0.  1.
          1   -1    0    0  502    0 -0.00000000000E+00 -0.00000000000E+00 -0.27424373990E+03  0.27424373990E+03  0.00000000000E+00 0. -1.
         23    2    1    2    0    0 -0.49401279279E+02  0.15077476352E+02 -0.12668735582E+03  0.16479207871E+03  0.91863629340E+02 0.  0.
         23    2    1    2    0    0  0.21223375613E+02 -0.15647264189E+02 -0.98812185034E+02  0.13765644358E+03  0.92142172756E+02 0.  0.
        -13    1    3    3    0    0 -0.43425321633E+02 -0.34440445182E+02 -0.63340901148E+02  0.84166338768E+02  0.00000000000E+00 0.  1.
         13    1    3    3    0    0 -0.59759576465E+01  0.49517921534E+02 -0.63346454668E+02  0.80625739946E+02  0.00000000000E+00 0. -1.
        -13    1    4    4    0    0  0.37112909471E+02  0.29749549316E+02 -0.53333585445E+02  0.71462403195E+02  0.00000000000E+00 0. -1.
         13    1    4    4    0    0 -0.15889533857E+02 -0.45396813505E+02 -0.45478599589E+02  0.66194040390E+02  0.00000000000E+00 0.  1.
          1    1    1    2  501    0  0.28177903666E+02  0.56978783688E+00  0.90667442644E+01  0.29606160925E+02  0.00000000000E+00 0. -1.
<scales pt_clust_5="13000.00000" pt_clust_6="13000.00000" pt_clust_7="13000.00000" pt_clust_8="13000.00000" pt_clust_9="28.18366"></scales>
<clustering>
<clus scale="   28.184">  1  9  2 -1</clus>
<clus scale="   91.864">  5  6 -1 -1</clus>
<clus scale="   92.142">  7  8 -1 -1</clus>
<clus scale="   99.656">  2  5  1 -1</clus>
<clus scale="   28.184">  1  5  2 -1</clus>
</clustering>
</event>
<event>
 9    1  0.1445593E-005  0.1247910E+03  0.7546771E-02  0.1235795E+00
          1   -1    0    0  502    0 -0.00000000000E+00  0.00000000000E+00  0.67313209655E+02  0.67313209655E+02  0.00000000000E+00 0. -1.
         21   -1    0    0  501  502  0.00000000000E+00 -0.00000000000E+00 -0.31192109905E+03  0.31192109905E+03  0.00000000000E+00 0.  1.
         23    2    1    2    0    0  0.22855915109E+02 -0.84228202959E+02 -0.61998664117E+02  0.14070707322E+03  0.91311899951E+02 0.  0.
         23    2    1    2    0    0 -0.40506846884E+02  0.68976487590E+02 -0.11881755432E+03  0.17060413560E+03  0.92680091630E+02 0.  0.
        -13    1    3    3    0    0  0.43066681402E+02 -0.47203999958E+01 -0.13369162134E+02  0.45340442425E+02  0.00000000000E+00 0.  1.
         13    1    3    3    0    0 -0.20210766293E+02 -0.79507802963E+02 -0.48629501983E+02  0.95366630795E+02  0.00000000000E+00 0. -1.
        -13    1    4    4    0    0 -0.30871636014E+02  0.18940923873E+02  0.51403042029E+01  0.36581952308E+02  0.00000000000E+00 0. -1.
         13    1    4    4    0    0 -0.96352108701E+01  0.50035563717E+02 -0.12395785852E+03  0.13402218329E+03  0.00000000000E+00 0.  1.
          1    1    1    2  501    0  0.17650931775E+02  0.15251715369E+02 -0.63791670958E+02  0.67923099884E+02  0.00000000000E+00 0. -1.
<scales pt_clust_5="13000.00000" pt_clust_6="13000.00000" pt_clust_7="13000.00000" pt_clust_8="13000.00000" pt_clust_9="23.32746"></scales>
<clustering>
<clus scale="   23.327">  2  9  1 -1</clus>
<clus scale="   91.312">  5  6 -1 -1</clus>
<clus scale="   92.680">  7  8 -1 -1</clus>
<clus scale="  123.778">  1  5  2 -1</clus>
<clus scale="   23.327">  2  5  1 -1</clus>
</clustering>
</event>
<event>
 9    1  0.1445593E-005  0.9210101E+02  0.7546771E-02  0.1298808E+00
         -3   -1    0    0    0  501 -0.00000000000E+00  0.00000000000E+00  0.23873325150E+03  0.23873325150E+03  0.00000000000E+00 0.  1.
         21   -1    0    0  501  502  0.00000000000E+00 -0.00000000000E+00 -0.65664705289E+02  0.65664705289E+02  0.00000000000E+00 0. -1.
         23    2    1    2    0    0 -0.17900147212E+02  0.25408438821E+01  0.12628112115E+03  0.15629717432E+03  0.90305116052E+02 0.  0.
         23    2    1    2    0    0 -0.25559551347E+02  0.41406917663E+01  0.23577981062E+02  0.98380901051E+02  0.91937176959E+02 0.  0.
        -11    1    3    3    0    0 -0.51591376788E+02 -0.18248943504E+01  0.10269240398E+03  0.11493794079E+03  0.00000000000E+00 0.  1.
         11    1    3    3    0    0  0.33691229577E+02  0.43657382325E+01  0.23588717169E+02  0.41359233533E+02  0.00000000000E+00 0. -1.
        -13    1    4    4    0    0 -0.49285208152E+02  0.10682585482E+01  0.44641457694E+02  0.66505884431E+02  0.00000000000E+00 0.  1.
         13    1    4    4    0    0  0.23725656805E+02  0.30724332181E+01 -0.21063476631E+02  0.31875016620E+02  0.00000000000E+00 0. -1.
         -3    1    1    2    0  502  0.43459698558E+02 -0.66815356484E+01  0.23209444008E+02  0.49719881421E+02  0.00000000000E+00 0.  1.
<scales pt_clust_5="13000.00000" pt_clust_6="13000.00000" pt_clust_7="13000.00000" pt_clust_8="13000.00000" pt_clust_9="43.97031"></scales>
<clustering>
<clus scale="   43.970">  2  9  1 -1</clus>
<clus scale="   90.305">  5  6 -1 -1</clus>
<clus scale="   90.472">  1  5  2 -1</clus>
<clus scale="   91.937">  7  8 -1 -1</clus>
<clus scale="   43.970">  2  5  1 -1</clus>
</clustering>
</event>
<event>
 9    1  0.1445593E-005  0.1445001E+03  0.7546771E-02  0.1207522E+00
         21   -1    0    0  501  502  0.00000000000E+00  0.00000000000E+00  0.19096172204E+03  0.19096172204E+03  0.00000000000E+00 0. -1.
          2   -1    0    0  502    0 -0.00000000000E+00 -0.00000000000E+00 -0.21432448372E+03  0.21432448372E+03  0.00000000000E+00 0. -1.
         23    2    1    2    0    0  0.26460193461E+01  0.96648653726E+02 -0.40154274515E+02  0.13797264501E+03  0.89867242775E+02 0.  0.
         23    2    1    2    0    0  0.61123595323E+02 -0.12734908287E+03 -0.44650308784E+02  0.17358961744E+03  0.90475534790E+02 0.  0.
        -11    1    4    4    0    0 -0.16160925201E+02 -0.20607951449E+02  0.13597409122E+02  0.29508519127E+02  0.00000000000E+00 0.  1.
         11    1    4    4    0    0  0.77284520524E+02 -0.10674113142E+03 -0.58247717906E+02  0.14408109831E+03  0.00000000000E+00 0. -1.
        -13    1    3    3    0    0  0.39858510365E+02  0.31636088122E+02  0.39557618897E+01  0.51041071426E+02  0.00000000000E+00 0.  1.
         13    1    3    3    0    0 -0.37212491019E+02  0.65012565604E+02 -0.44110036405E+02  0.86931573585E+02  0.00000000000E+00 0. -1.
          2    1    1    2  501    0 -0.63769614669E+02  0.30700429146E+02  0.61441821626E+02  0.93723943309E+02  0.00000000000E+00 0. -1.
<scales pt_clust_5="13000.00000" pt_clust_6="13000.00000" pt_clust_7="13000.00000" pt_clust_8="13000.00000" pt_clust_9="70.77486"></scales>
<clustering>
<clus scale="   70.775">  1  9  2 -1</clus>
<clus scale="   89.867">  7  8 -1 -1</clus>
<clus scale="   90.476">  5  6 -1 -1</clus>
<clus scale="  144.120">  2  7  1 -1</clus>
<clus scale="   70.775">  1  5  2 -1</clus>
</clustering>
</event>
<event>
 9    1  0.1445593E-005  0.1019747E+03  0.7546771E-02  0.1277725E+00
         21   -1    0    0  501  502  0.00000000000E+00  0.00000000000E+00  0.13367386445E+03  0.13367386445E+03  0.00000000000E+00 0.  1.
          1   -1    0    0  502    0 -0.00000000000E+00 -0.00000000000E+00 -0.98738807990E+02  0.98738807990E+02  0.00000000000E+00 0. -1.
         23    2    1    2    0    0  0.40234186866E+02 -0.26518723993E+02 -0.90951315513E+01  0.10340063680E+03  0.91032619199E+02 0.  0.
         23    2    1    2    0    0 -0.24536224796E+02  0.94106595099E+01  0.32379619888E+02  0.10303420622E+03  0.94217944300E+02 0.  0.
        -11    1    4    4    0    0 -0.18770511024E+02 -0.18346503797E+02 -0.26739595776E+02  0.37469084161E+02  0.00000000000E+00 0. -1.
         11    1    4    4    0    0 -0.57657137723E+01  0.27757163306E+02  0.59119215664E+02  0.65565122061E+02  0.00000000000E+00 0.  1.
        -13    1    3    3    0    0  0.38645733347E+02  0.25462343549E+02  0.11132558225E+02  0.47599973714E+02  0.00000000000E+00 0.  1.
         13    1    3    3    0    0  0.15884535188E+01 -0.51981067542E+02 -0.20227689776E+02  0.55800663088E+02  0.00000000000E+00 0. -1.
          1    1    1    2  501    0 -0.15697962069E+02  0.17108064483E+02  0.11650568120E+02  0.25977829413E+02  0.00000000000E+00 0. -1.
<scales pt_clust_5="13000.00000" pt_clust_6="13000.00000" pt_clust_7="13000.00000" pt_clust_8="13000.00000" pt_clust_9="23.21878"></scales>
<clustering>
<clus scale="   23.219">  1  9  2 -1</clus>
<clus scale="   91.033">  7  8 -1 -1</clus>
<clus scale="   94.218">  5  6 -1 -1</clus>
<clus scale="   99.039">  2  7  1 -1</clus>
<clus scale="   23.219">  1  5  2 -1</clus>
</clustering>
</event>
<event>
 9    1  0.1445593E-005  0.1246845E+03  0.7546771E-02  0.1236248E+00
         21   -1    0    0  501  502  0.00000000000E+00  0.00000000000E+00  0.19539842354E+03  0.19539842354E+03  0.00000000000E+00 0. -1.
          1   -1    0    0  502    0 -0.00000000000E+00 -0.00000000000E+00 -0.63987571422E+03  0.63987571422E+03  0.00000000000E+00 0. -1.
         23    2    1    2    0    0  0.52795294531E+02  0.63854665893E+02 -0.39487105801E+03  0.41377633784E+03  0.91776597393E+02 0.  0.
         23    2    1    2    0    0 -0.74897520530E+02 -0.49313954262E+02 -0.21742205462E+03  0.25160933421E+03  0.89405830689E+02 0.  0.
        -11    1    4    4    0    0 -0.47000171412E+02 -0.28451603210E+02 -0.33351639277E+02  0.64271624224E+02  0.00000000000E+00 0.  1.
         11    1    4    4    0    0 -0.27897349118E+02 -0.20862351052E+02 -0.18407041534E+03  0.18733770999E+03  0.00000000000E+00 0. -1.
        -13    1    3    3    0    0 -0.10277673793E+02  0.51337228275E+02 -0.24766549705E+03  0.25313897372E+03  0.00000000000E+00 0.  1.
         13    1    3    3    0    0  0.63072968324E+02  0.12517437618E+02 -0.14720556096E+03  0.16063736413E+03  0.00000000000E+00 0. -1.
          1    1    1    2  501    0  0.22102225999E+02 -0.14540711631E+02  0.16781582193E+03  0.16988846571E+03  0.00000000000E+00 0. -1.
<scales pt_clust_5="13000.00000" pt_clust_6="13000.00000" pt_clust_7="13000.00000" pt_clust_8="13000.00000" pt_clust_9="26.45639"></scales>
<clustering>
<clus scale="   26.456">  1  9  2 -1</clus>
<clus scale="   89.406">  5  6 -1 -1</clus>
<clus scale="   91.777">  7  8 -1 -1</clus>
<clus scale="  122.950">  1  5  2 -1</clus>
<clus scale="   26.456">  1  5  2 -1</clus>
</clustering>
</event>
<event>
 9    1  0.1445593E-005  0.1481835E+03  0.7546771E-02  0.1206314E+00
         21   -1    0    0  501  502  0.00000000000E+00  0.00000000000E+00  0.98293622092E+02  0.98293622092E+02  0.00000000000E+00 0.  1.
          1   -1    0    0  502    0 -0.00000000000E+00 -0.00000000000E+00 -0.47089654516E+03  0.47089654516E+03  0.00000000000E+00 0. -1.
         23    2    1    2    0    0 -0.15201873484E+02  0.10399487410E+03 -0.35346374783E+03  0.38020721405E+03  0.92600614420E+02 0.  0.
         23    2    1    2    0    0  0.49889245810E+02 -0.76126191046E+02 -0.26421855963E+02  0.14389509749E+03  0.10827534714E+03 0.  0.
        -13    1    4    4    0    0  0.62392724846E+02 -0.88616058876E+00 -0.26060445012E+02  0.67622364559E+02  0.00000000000E+00 0.  1.
         13    1    4    4    0    0 -0.12503479036E+02 -0.75240030458E+02 -0.36141095130E+00  0.76272732933E+02  0.00000000000E+00 0. -1.
        -13    1    3    3    0    0 -0.39011461628E+02  0.10811868895E+03 -0.30747407318E+03  0.32825577027E+03  0.00000000000E+00 0. -1.
         13    1    3    3    0    0  0.23809588144E+02 -0.41238148505E+01 -0.45989674650E+02  0.51951443781E+02  0.00000000000E+00 0.  1.
          1    1    1    2  501    0 -0.34687372326E+02 -0.27868683056E+02  0.72826807213E+01  0.45087855711E+02  0.00000000000E+00 0. -1.
<scales pt_clust_5="13000.00000" pt_clust_6="13000.00000" pt_clust_7="13000.00000" pt_clust_8="13000.00000" pt_clust_9="44.49581"></scales>
<clustering>
<clus scale="   44.496">  1  9  2 -1</clus>
<clus scale="   92.601">  7  8 -1 -1</clus>
<clus scale="  108.275">  5  6 -1 -1</clus>
<clus scale="  137.148">  2  7  1 -1</clus>
<clus scale="   44.496">  1  5  2 -1</clus>
</clustering>
</event>
<event>
 9    1  0.1445593E-005  0.1210623E+03  0.7546771E-02  0.1242704E+00
         -3   -1    0    0    0  501 -0.00000000000E+00  0.00000000000E+00  0.12227195366E+03  0.12227195366E+03  0.00000000000E+00 0.  1.
         21   -1    0    0  501  502  0.00000000000E+00 -0.00000000000E+00 -0.41624429601E+03  0.41624429601E+03  0.00000000000E+00 0.  1.
         23    2    1    2    0    0 -0.44434845029E+02  0.20042149485E+02 -0.25713779044E+02  0.11004396233E+03  0.95248790037E+02 0.  0.
         23    2    1    2    0    0  0.30928282321E+02 -0.11590886939E+03 -0.80406071541E+01  0.15082819876E+03  0.91066291936E+02 0.  0.
        -11    1    3    3    0    0 -0.62170682826E+02 -0.15993021227E+02 -0.27508730084E+02  0.69840538098E+02  0.00000000000E+00 0. -1.
         11    1    3    3    0    0  0.17735837797E+02  0.36035170712E+02  0.17949510399E+01  0.40203424230E+02  0.00000000000E+00 0.  1.
        -13    1    4    4    0    0 -0.31507791734E+01 -0.45371363878E+02 -0.45201838282E+02  0.64122494131E+02  0.00000000000E+00 0. -1.
         13    1    4    4    0    0  0.34079061495E+02 -0.70537505511E+02  0.37161231128E+02  0.86705704628E+02  0.00000000000E+00 0.  1.
         -3    1    1    2    0  502  0.13506562708E+02  0.95866719905E+02 -0.26021795615E+03  0.27764408858E+03  0.00000000000E+00 0.  1.
<scales pt_clust_5="13000.00000" pt_clust_6="13000.00000" pt_clust_7="13000.00000" pt_clust_8="13000.00000" pt_clust_9="96.81351"></scales>
<clustering>
<clus scale="   91.066">  7  8 -1 -1</clus>
<clus scale="   95.249">  5  6 -1 -1</clus>
<clus scale="   96.814">  2  9  1 -1</clus>
<clus scale="  117.800">  2  7  1 -1</clus>
<clus scale="   96.814">  2  5  1 -1</clus>
</clustering>
</event>
<event>
 9    1  0.1445593E-005  0.9272494E+02  0.7546771E-02  0.1297123E+00
         21   -1    0    0  501  502  0.00000000000E+00  0.00000000000E+00  0.53555989760E+03  0.53555989760E+03  0.00000000000E+00 0. -1.
          1   -1    0    0  502    0 -0.00000000000E+00 -0.00000000000E+00 -0.22525534891E+02  0.22525534891E+02  0.00000000000E+00 0. -1.
         23    2    1    2    0    0 -0.12367652691E+02  0.13672547087E+02  0.16019982960E+03  0.18490689366E+03  0.90480254993E+02 0.  0.
         23    2    1    2    0    0  0.12293147131E+02  0.10620912350E+02  0.31246002720E+03  0.32605870807E+03  0.91755584406E+02 0.  0.
        -11    1    4    4    0    0  0.66353416938E+01  0.44276967765E+02  0.25750922789E+03  0.26137230168E+03  0.00000000000E+00 0. -1.
         11    1    4    4    0    0  0.56578054372E+01 -0.33656055415E+02  0.54950799305E+02  0.64686406399E+02  0.00000000000E+00 0.  1.
        -13    1    3    3    0    0 -0.13849190259E+02 -0.31083860351E+02  0.24288743726E+02  0.41808486183E+02  0.00000000000E+00 0.  1.
         13    1    3    3    0    0  0.14815375680E+01  0.44756407437E+02  0.13591108587E+03  0.14309840748E+03  0.00000000000E+00 0. -1.
          1    1    1    2  501    0  0.74505560381E-01 -0.24293459437E+02  0.40374505921E+02  0.47119830760E+02  0.00000000000E+00 0. -1.
<scales pt_clust_5="13000.00000" pt_clust_6="13000.00000" pt_clust_7="13000.00000" pt_clust_8="13000.00000" pt_clust_9="24.29359"></scales>
<clustering>
<clus scale="   24.294">  1  9  2 -1</clus>
<clus scale="   90.480">  7  8 -1 -1</clus>
<clus scale="   91.463">  2  7  1 -1</clus>
<clus scale="   91.756">  5  6 -1 -1</clus>
<clus scale="   24.294">  1  5  2 -1</clus>
</clustering>
</event>
<event>
 9    1  0.1445593E-005  0.1284684E+03  0.7546771E-02  0.1232967E+00
         21   -1    0    0  501  502  0.00000000000E+00  0.00000000000E+00  0.28795928390E+02  0.28795928390E+02  0.00000000000E+00 0. -1.
         -1   -1    0    0    0  501 -0.00000000000E+00 -0.00000000000E+00 -0.65200241393E+03  0.65200241393E+03  0.00000000000E+00 0.  1.
         23    2    1    2    0    0 -0.71127876720E+02  0.40529702203E+02 -0.33822821737E+03  0.35965641388E+03  0.90843697694E+02 0.  0.
         23    2    1    2    0    0  0.73306911914E+02 -0.19453242117E+02 -0.24902314363E+03  0.27940781356E+03  0.10150797138E+03 0.  0.
        -11    1    3    3    0    0 -0.55653209858E+02 -0.13755984943E+02 -0.23616228171E+03  0.24302084312E+03  0.00000000000E+00 0.  1.
         11    1    3    3    0    0 -0.15474666862E+02  0.54285687146E+02 -0.10206593566E+03  0.11663557076E+03  0.00000000000E+00 0. -1.
        -13    1    4    4    0    0  0.54759862185E+02 -0.59803545111E+02 -0.14171556844E+03  0.16327402994E+03  0.00000000000E+00 0.  1.
         13    1    4    4    0    0  0.18547049729E+02  0.40350302994E+02 -0.10730757519E+03  0.11613378362E+03  0.00000000000E+00 0. -1.
         -1    1    1    2    0  502 -0.21790351945E+01 -0.21076460086E+02 -0.35955124548E+02  0.41734114887E+02  0.00000000000E+00 0.  1.
<scales pt_clust_5="13000.00000" pt_clust_6="13000.00000" pt_clust_7="13000.00000" pt_clust_8="13000.00000" pt_clust_9="21.18880"></scales>
<clustering>
<clus scale="   21.189">  1  9  2 -1</clus>
<clus scale="   90.844">  5  6 -1 -1</clus>
<clus scale="  101.508">  7  8 -1 -1</clus>
<clus scale="  120.220">  2  5  1 -1</clus>
<clus scale="   21.189">  1  5  2 -1</clus>
</clustering>
</event>
<event>
 9    1  0.1445593E-005  0.1966929E+03  0.7546771E-02  0.1152802E+00
          2   -1    0    0  502    0 -0.00000000000E+00  0.00000000000E+00  0.13761568495E+04  0.13761568495E+04  0.00000000000E+00 0. -1.
         21   -1    0    0  501  502  0.00000000000E+00 -0.00000000000E+00 -0.92626235617E+02  0.92626235617E+02  0.00000000000E+00 0. -1.
         23    2    1    2    0    0 -0.62651240019E+02  0.16682652644E+03  0.75722711601E+03  0.78303932335E+03  0.89450594751E+02 0.  0.
         23    2    1    2    0    0  0.13471938543E+03 -0.11965982529E+03  0.55834219865E+03  0.59384711533E+03  0.91872732572E+02 0.  0.
        -13    1    3    3    0    0 -0.41172105542E+02  0.17235311854E+03  0.67025867010E+03  0.69328740403E+03  0.00000000000E+00 0. -1.
         13    1    3    3    0    0 -0.21479134476E+02 -0.55265921053E+01  0.86968445907E+02  0.89751919320E+02  0.00000000000E+00 0.  1.
        -13    1    4    4    0    0  0.74878449819E+02 -0.17893801058E+02  0.30146914256E+03  0.31114404104E+03  0.00000000000E+00 0. -1.
         13    1    4    4    0    0  0.59840935615E+02 -0.10176602423E+03  0.25687305610E+03  0.28270307429E+03  0.00000000000E+00 0.  1.
          2    1    1    2  501    0 -0.72068145416E+02 -0.47166701152E+02 -0.32038700765E+02  0.91896646445E+02  0.00000000000E+00 0. -1.
<scales pt_clust_5="13000.00000" pt_clust_6="13000.00000" pt_clust_7="13000.00000" pt_clust_8="13000.00000" pt_clust_9="86.13080"></scales>
<clustering>
<clus scale="   86.131">  2  9  1 -1</clus>
<clus scale="   89.451">  5  6 -1 -1</clus>
<clus scale="   91.873">  7  8 -1 -1</clus>
<clus scale="  195.573">  1  5  2 -1</clus>
<clus scale="   86.131">  2  5  1 -1</clus>
</clustering>
</event>
<event>
 9    1  0.1445593E-005  0.1039086E+03  0.7546771E-02  0.1287632E+00
         21   -1    0    0  501  502  0.00000000000E+00  0.00000000000E+00  0.10190043280E+03  0.10190043280E+03  0.00000000000E+00 0. -1.
         -3   -1    0    0    0  501 -0.00000000000E+00 -0.00000000000E+00 -0.16882470886E+03  0.16882470886E+03  0.00000000000E+00 0.  1.
         23    2    1    2    0    0 -0.62923927387E+02  0.20197480807E+02 -0.92256181869E+02  0.14593577726E+03  0.91753414772E+02 0.  0.
         23    2    1    2    0    0  0.32353404597E+02  0.54261256521E+01 -0.12499246172E+02  0.69813714055E+02  0.60345156282E+02 0.  0.
        -11    1    4    4    0    0  0.14587154784E+02 -0.18489362202E+02  0.16090327250E+02  0.28522626638E+02  0.00000000000E+00 0. -1.
         11    1    4    4    0    0  0.17766249812E+02  0.23915487854E+02 -0.28589573421E+02  0.41291087417E+02  0.00000000000E+00 0.  1.
        -13    1    3    3    0    0 -0.54394128461E+02  0.54724893816E+02 -0.57702489158E+02  0.96348910058E+02  0.00000000000E+00 0.  1.
         13    1    3    3    0    0 -0.85297989253E+01 -0.34527413010E+02 -0.34553692711E+02  0.49586867201E+02  0.00000000000E+00 0. -1.
         -3    1    1    2    0  502  0.30570522790E+02 -0.25623606459E+02  0.37831151979E+02  0.54975650353E+02  0.00000000000E+00 0.  1.
<scales pt_clust_5="13000.00000" pt_clust_6="13000.00000" pt_clust_7="13000.00000" pt_clust_8="13000.00000" pt_clust_9="39.88892"></scales>
<clustering>
<clus scale="   39.889">  1  9  2 -1</clus>
<clus scale="   60.345">  5  6 -1 -1</clus>
<clus scale="   77.588">  1  5  2 -1</clus>
<clus scale="   91.753">  7  8 -1 -1</clus>
<clus scale="   39.889">  1  5  2 -1</clus>
</clustering>
</event>
<event>
 9    1  0.1445593E-005  0.1119784E+03  0.7546771E-02  0.1257573E+00
         21   -1    0    0  501  502  0.00000000000E+00  0.00000000000E+00  0.38972148160E+02  0.38972148160E+02  0.00000000000E+00 0. -1.
          1   -1    0    0  502    0 -0.00000000000E+00 -0.00000000000E+00 -0.68300650241E+03  0.68300650241E+03  0.00000000000E+00 0. -1.
         23    2    1    2    0    0  0.17875480730E+02 -0.75433588106E+02 -0.37175408932E+03  0.39061314101E+03  0.91475482935E+02 0.  0.
         23    2    1    2    0    0 -0.57878207599E+02  0.26178743727E+02 -0.23048377550E+03  0.25538390402E+03  0.89793953722E+02 0.  0.
        -13    1    3    3    0    0 -0.34624469281E+02 -0.22165580389E+02 -0.18344227734E+03  0.18799264864E+03  0.00000000000E+00 0.  1.
         13    1    3    3    0    0  0.52499950011E+02 -0.53268007717E+02 -0.18831181198E+03  0.20262049237E+03  0.00000000000E+00 0. -1.
        -13    1    4    4    0    0  0.13011459601E+02  0.35759323280E+02 -0.90714473683E+02  0.98372470834E+02  0.00000000000E+00 0.  1.
         13    1    4    4    0    0 -0.70889667200E+02 -0.95805795530E+01 -0.13976930181E+03  0.15701143318E+03  0.00000000000E+00 0. -1.
          1    1    1    2  501    0  0.40002726869E+02  0.49254844379E+02 -0.41796489430E+02  0.75981605540E+02  0.00000000000E+00 0. -1.
<scales pt_clust_5="13000.00000" pt_clust_6="13000.00000" pt_clust_7="13000.00000" pt_clust_8="13000.00000" pt_clust_9="63.45280"></scales>
<clustering>
<clus scale="   63.453">  1  9  2 -1</clus>
<clus scale="   89.794">  7  8 -1 -1</clus>
<clus scale="   91.475">  5  6 -1 -1</clus>
<clus scale="  110.609">  1  7  2 -1</clus>
<clus scale="   63.453">  1  5  2 -1</clus>
</clustering>
</event>
<event>
 9    1  0.1445593E-005  0.1541527E+03  0.7546771E-02  0.1198198E+00
         21   -1    0    0  501  502  0.00000000000E+00  0.00000000000E+00  0.48653470773E+03  0.48653470773E+03  0.00000000000E+00 0. -1.
          1   -1    0    0  502    0 -0.00000000000E+00 -0.00000000000E+00 -0.35869955652E+03  0.35869955652E+03  0.00000000000E+00 0. -1.
         23    2    1    2    0    0  0.98849903105E+02 -0.45032505061E+02 -0.30131803898E+03  0.33345765315E+03  0.92748131887E+02 0.  0.
         23    2    1    2    0    0 -0.15269720150E+03  0.91403261409E+02  0.30559383715E+03  0.36923997612E+03  0.10620534413E+03 0.  0.
        -11    1    3    3    0    0  0.31324478880E+02  0.28816103158E+02 -0.98253003299E+02  0.10707587700E+03  0.00000000000E+00 0.  1.
         11    1    3    3    0    0  0.67525424225E+02 -0.73848608219E+02 -0.20306503569E+03  0.22638177615E+03  0.00000000000E+00 0. -1.
        -11    1    4    4    0    0 -0.12609548016E+03  0.15787103994E+02  0.18879649076E+03  0.22758167257E+03  0.00000000000E+00 0. -1.
         11    1    4    4    0    0 -0.26601721341E+02  0.75616157415E+02  0.11679734639E+03  0.14165830355E+03  0.00000000000E+00 0.  1.
          1    1    1    2  501    0  0.53847298394E+02 -0.46370756348E+02  0.12355935304E+03  0.14253663499E+03  0.00000000000E+00 0. -1.
<scales pt_clust_5="13000.00000" pt_clust_6="13000.00000" pt_clust_7="13000.00000" pt_clust_8="13000.00000" pt_clust_9="71.06179"></scales>
<clustering>
<clus scale="   71.062">  1  9  2 -1</clus>
<clus scale="   92.748">  5  6 -1 -1</clus>
<clus scale="  106.205">  7  8 -1 -1</clus>
<clus scale="  145.209">  2  5  1 -1</clus>
<clus scale="   71.062">  1  5  2 -1</clus>
</clustering>
</event>
<event>
 9    1  0.1445593E-005  0.9496759E+02  0.7546771E-02  0.1291277E+00
         21   -1    0    0  501  502  0.00000000000E+00  0.00000000000E+00  0.80454585474E+02  0.80454585474E+02  0.00000000000E+00 0.  1.
          2   -1    0    0  502    0 -0.00000000000E+00 -0.00000000000E+00 -0.35495294356E+03  0.35495294356E+03  0.00000000000E+00 0. -1.
         23    2    1    2    0    0  0.28375231777E+02 -0.16475018672E+02 -0.16960230521E+03  0.19546540966E+03  0.91461491481E+02 0.  0.
         23    2    1    2    0    0  0.40312653277E+02  0.38975388469E+02 -0.12516076040E+03  0.16487581159E+03  0.91512984778E+02 0.  0.
        -13    1    4    4    0    0 -0.53249963782E+01  0.31678659906E+02 -0.72163750579E+00  0.32131197310E+02  0.00000000000E+00 0.  1.
         13    1    4    4    0    0  0.45637649655E+02  0.72967285626E+01 -0.12443912289E+03  0.13274461428E+03  0.00000000000E+00 0. -1.
        -13    1    3    3    0    0  0.51845848783E+02 -0.30381873312E+02 -0.70297158611E+02  0.92481029249E+02  0.00000000000E+00 0. -1.
         13    1    3    3    0    0 -0.23470617006E+02  0.13906854640E+02 -0.99305146597E+02  0.10298438041E+03  0.00000000000E+00 0.  1.
          2    1    1    2  501    0 -0.68687885054E+02 -0.22500369797E+02  0.20264707515E+02  0.75066307787E+02  0.00000000000E+00 0. -1.
<scales pt_clust_5="13000.00000" pt_clust_6="13000.00000" pt_clust_7="13000.00000" pt_clust_8="13000.00000" pt_clust_9="72.27927"></scales>
<clustering>
<clus scale="   72.279">  1  9  2 -1</clus>
<clus scale="   91.461">  7  8 -1 -1</clus>
<clus scale="   91.513">  5  6 -1 -1</clus>
<clus scale="   94.918">  2  7  1 -1</clus>
<clus scale="   72.279">  1  5  2 -1</clus>
</clustering>
</event>
<event>
 9    1  0.1445593E-005  0.1407668E+03  0.7546771E-02  0.1231826E+00
         21   -1    0    0  501  502  0.00000000000E+00  0.00000000000E+00  0.69350634416E+02  0.69350634416E+02  0.00000000000E+00 0. -1.
          2   -1    0    0  502    0 -0.00000000000E+00 -0.00000000000E+00 -0.70568706053E+03  0.70568706053E+03  0.00000000000E+00 0. -1.
         23    2    1    2    0    0 -0.68093843483E+01 -0.18138773487E+02 -0.51876733878E+02  0.10697380018E+03  0.91524945174E+02 0.  0.
         23    2    1    2    0    0 -0.68726604503E+01 -0.94517949414E+02 -0.52382732653E+03  0.53939758474E+03  0.87027640317E+02 0.  0.
        -11    1    4    4    0    0  0.33155395398E+02 -0.50938110485E+02 -0.16740303561E+03  0.17809477161E+03  0.00000000000E+00 0.  1.
         11    1    4    4    0    0 -0.40028055848E+02 -0.43579838930E+02 -0.35642429092E+03  0.36130281312E+03  0.00000000000E+00 0. -1.
        -11    1    3    3    0    0 -0.45897594860E+02 -0.21208907843E+02 -0.14012345421E+02  0.52466682857E+02  0.00000000000E+00 0. -1.
         11    1    3    3    0    0  0.39088210512E+02  0.30701343563E+01 -0.37864388458E+02  0.54507117327E+02  0.00000000000E+00 0.  1.
          2    1    1    2  501    0  0.13682044799E+02  0.11265672290E+03 -0.60632365712E+02  0.12866631003E+03  0.00000000000E+00 0. -1.
<scales pt_clust_5="13000.00000" pt_clust_6="13000.00000" pt_clust_7="13000.00000" pt_clust_8="13000.00000" pt_clust_9="110.64121"></scales>
<clustering>
<clus scale="   87.028">  5  6 -1 -1</clus>
<clus scale="   91.525">  7  8 -1 -1</clus>
<clus scale="   93.553">  2  7  1 -1</clus>
<clus scale="  110.641">  1  9  2 -1</clus>
<clus scale="  110.641">  1  5  2 -1</clus>
</clustering>
</event>
<event>
 9    1  0.1445593E-005  0.1107253E+03  0.7546771E-02  0.1267787E+00
          4   -1    0    0  502    0 -0.00000000000E+00  0.00000000000E+00  0.25554126220E+03  0.25554126220E+03  0.00000000000E+00 0. -1.
         21   -1    0    0  501  502  0.00000000000E+00 -0.00000000000E+00 -0.20515992007E+03  0.20515992007E+03  0.00000000000E+00 0.  1.
         23    2    1    2    0    0  0.97604574969E+01  0.19299618461E+02  0.13342005617E+03  0.16235251342E+03  0.89942678540E+02 0.  0.
         23    2    1    2    0    0 -0.39029671811E+02 -0.72982060442E+02 -0.15360112792E+03  0.20498087068E+03  0.10758324413E+03 0.  0.
        -13    1    3    3    0    0 -0.10550415599E+02  0.44448872790E+02  0.11800349807E+03  0.12653789598E+03  0.00000000000E+00 0. -1.
         13    1    3    3    0    0  0.20310873096E+02 -0.25149254329E+02  0.15416558103E+02  0.35814617448E+02  0.00000000000E+00 0.  1.
        -13    1    4    4    0    0 -0.72584623046E+02 -0.55492994068E+02 -0.13448796217E+03  0.16258847395E+03  0.00000000000E+00 0.  1.
         13    1    4    4    0    0  0.33554951235E+02 -0.17489066374E+02 -0.19113165746E+02  0.42392396722E+02  0.00000000000E+00 0. -1.
          4    1    1    2  501    0  0.29269214314E+02  0.53682441981E+02  0.70562413877E+02  0.93367798173E+02  0.00000000000E+00 0. -1.
<scales pt_clust_5="13000.00000" pt_clust_6="13000.00000" pt_clust_7="13000.00000" pt_clust_8="13000.00000" pt_clust_9="61.14324"></scales>
<clustering>
<clus scale="   61.143">  2  9  1 -1</clus>
<clus scale="   89.943">  5  6 -1 -1</clus>
<clus scale="   93.678">  1  5  2 -1</clus>
<clus scale="  107.583">  7  8 -1 -1</clus>
<clus scale="   61.143">  2  5  1 -1</clus>
</clustering>
</event>
<event>
 9    1  0.1445593E-005  0.1295693E+03  0.7546771E-02  0.1228551E+00
         -3   -1    0    0    0  501 -0.00000000000E+00  0.00000000000E+00  0.16360745666E+03  0.16360745666E+03  0.00000000000E+00 0.  1.
         21   -1    0    0  501  502  0.00000000000E+00 -0.00000000000E+00 -0.16273957605E+03  0.16273957605E+03  0.00000000000E+00 0. -1.
         23    2    1    2    0    0 -0.92008158845E+02  0.57741195903E+02  0.59335990622E+02  0.15437419281E+03  0.92255539804E+02 0.  0.
         23    2    1    2    0    0  0.56739179520E+02 -0.34543644664E+02 -0.18443145133E+02  0.11380046588E+03  0.90541695108E+02 0.  0.
        -13    1    4    4    0    0 -0.88315988235E+01 -0.22802941766E+02  0.24443403588E+02  0.34575298552E+02  0.00000000000E+00 0.  1.
         13    1    4    4    0    0  0.65570778344E+02 -0.11740702897E+02 -0.42886548721E+02  0.79225167329E+02  0.00000000000E+00 0. -1.
        -13    1    3    3    0    0 -0.48617057904E+02  0.60464226674E+02 -0.38436432256E+01  0.77680851049E+02  0.00000000000E+00 0. -1.
         13    1    3    3    0    0 -0.43391100941E+02 -0.27230307708E+01  0.63179633848E+02  0.76693341762E+02  0.00000000000E+00 0.  1.
         -3    1    1    2    0  502  0.35268979325E+02 -0.23197551239E+02 -0.40024964880E+02  0.58172374026E+02  0.00000000000E+00 0.  1.
<scales pt_clust_5="13000.00000" pt_clust_6="13000.00000" pt_clust_7="13000.00000" pt_clust_8="13000.00000" pt_clust_9="42.21407"></scales>
<clustering>
<clus scale="   42.214">  2  9  1 -1</clus>
<clus scale="   90.542">  5  6 -1 -1</clus>
<clus scale="   92.256">  7  8 -1 -1</clus>
<clus scale="  128.355">  2  5  1 -1</clus>
<clus scale="   42.214">  2  5  1 -1</clus>
</clustering>
</event>
<event>
 9    1  0.1445593E-005  0.1045841E+03  0.7546771E-02  0.1271055E+00
          2   -1    0    0  502    0 -0.00000000000E+00  0.00000000000E+00  0.10424961109E+04  0.10424961109E+04  0.00000000000E+00 0. -1.
         21   -1    0    0  501  502  0.00000000000E+00 -0.00000000000E+00 -0.37141612610E+02  0.37141612610E+02  0.00000000000E+00 0.  1.
         23    2    1    2    0    0 -0.42442384990E+02 -0.33715389515E+02  0.56821301773E+03  0.57791820528E+03  0.90472840961E+02 0.  0.
         23    2    1    2    0    0  0.92573337895E+01  0.56954473787E+02  0.44722482630E+03  0.45997054788E+03  0.90737805489E+02 0.  0.
        -11    1    3    3    0    0 -0.48936992119E+02 -0.60480557253E+02  0.43176445034E+03  0.43871775389E+03  0.00000000000E+00 0. -1.
         11    1    3    3    0    0  0.64946071284E+01  0.26765167738E+02  0.13644856739E+03  0.13920045140E+03  0.00000000000E+00 0.  1.
        -13    1    4    4    0    0 -0.21539879300E+02  0.62428526178E+02  0.38159845275E+03  0.38727079211E+03  0.00000000000E+00 0. -1.
         13    1    4    4    0    0  0.30797213090E+02 -0.54740523904E+01  0.65626373554E+02  0.72699755774E+02  0.00000000000E+00 0.  1.
          2    1    1    2  501    0  0.33185051201E+02 -0.23239084273E+02 -0.10083345762E+02  0.41748970320E+02  0.00000000000E+00 0. -1.
<scales pt_clust_5="13000.00000" pt_clust_6="13000.00000" pt_clust_7="13000.00000" pt_clust_8="13000.00000" pt_clust_9="40.51299"></scales>
<clustering>
<clus scale="   40.513">  2  9  1 -1</clus>
<clus scale="   90.473">  5  6 -1 -1</clus>
<clus scale="   90.738">  7  8 -1 -1</clus>
<clus scale="  104.354">  1  5  2 -1</clus>
<clus scale="   40.513">  2  5  1 -1</clus>
</clustering>
</event>
<event>
 9    1  0.1445593E-005  0.2071861E+03  0.7546771E-02  0.1144292E+00
          1   -1    0    0  502    0 -0.00000000000E+00  0.00000000000E+00  0.28506977974E+03  0.28506977974E+03  0.00000000000E+00 0. -1.
         21   -1    0    0  501  502  0.00000000000E+00 -0.00000000000E+00 -0.18970256412E+03  0.18970256412E+03  0.00000000000E+00 0.  1.
         23    2    1    2    0    0  0.93360969615E+02 -0.15615790933E+03  0.97317892967E+02  0.22530865155E+03  0.90507750376E+02 0.  0.
         23    2    1    2    0    0 -0.11639980820E+03  0.14676666538E+03  0.26091966899E+02  0.21197538156E+03  0.95725661311E+02 0.  0.
        -11    1    3    3    0    0 -0.14721886191E+02 -0.47970927255E+02  0.20984212794E+02  0.54390081645E+02  0.00000000000E+00 0.  1.
         11    1    3    3    0    0  0.10808285581E+03 -0.10818698207E+03  0.76333680174E+02  0.17091856990E+03  0.00000000000E+00 0. -1.
        -13    1    4    4    0    0 -0.85141250438E+02  0.32721754289E+02  0.16660348403E+01  0.91227854310E+02  0.00000000000E+00 0.  1.
         13    1    4    4    0    0 -0.31258557765E+02  0.11404491109E+03  0.24425932059E+02  0.12074752725E+03  0.00000000000E+00 0. -1.
          1    1    1    2  501    0  0.23038838589E+02  0.93912439441E+01 -0.28042644246E+02  0.37488310747E+02  0.00000000000E+00 0. -1.
<scales pt_clust_5="13000.00000" pt_clust_6="13000.00000" pt_clust_7="13000.00000" pt_clust_8="13000.00000" pt_clust_9="24.87938"></scales>
<clustering>
<clus scale="   24.879">  2  9  1 -1</clus>
<clus scale="   90.508">  5  6 -1 -1</clus>
<clus scale="   95.726">  7  8 -1 -1</clus>
<clus scale="  204.828">  1  5  2 -1</clus>
<clus scale="   24.879">  2  5  1 -1</clus>
</clustering>
</event>
<event>
 9    1  0.1445593E-005  0.1804378E+03  0.7546771E-02  0.1179772E+00
         -1   -1    0    0    0  501 -0.00000000000E+00  0.00000000000E+00  0.14791163766E+03  0.14791163766E+03  0.00000000000E+00 0.  1.
         21   -1    0    0  501  502  0.00000000000E+00 -0.00000000000E+00 -0.45234335674E+03  0.45234335674E+03  0.00000000000E+00 0. -1.
         23    2    1    2    0    0 -0.10015773075E+03 -0.32671788138E+02 -0.24033233261E+02  0.13824687839E+03  0.86229845857E+02 0.  0.
         23    2    1    2    0    0 -0.75548437101E+02  0.80345229832E+02 -0.21058382568E+02  0.14514425942E+03  0.91980858122E+02 0.  0.
        -11    1    4    4    0    0  0.19389168702E+02  0.24094195462E+02 -0.15649411051E+02  0.34660845116E+02  0.00000000000E+00 0.  1.
         11    1    4    4    0    0 -0.94937605803E+02  0.56251034369E+02 -0.54089715173E+01  0.11048341430E+03  0.00000000000E+00 0. -1.
        -11    1    3    3    0    0 -0.59487195937E+01 -0.33604548751E+02 -0.27712026857E+02  0.43961453503E+02  0.00000000000E+00 0.  1.
         11    1    3    3    0    0 -0.94209011152E+02  0.93276061346E+00  0.36787935965E+01  0.94285424891E+02  0.00000000000E+00 0. -1.
         -1    1    1    2    0  502  0.17570616785E+03 -0.47673441694E+02 -0.25934010325E+03  0.31686385659E+03  0.00000000000E+00 0.  1.
<scales pt_clust_5="13000.00000" pt_clust_6="13000.00000" pt_clust_7="13000.00000" pt_clust_8="13000.00000" pt_clust_9="155.23311"></scales>
<clustering>
<clus scale="   86.230">  7  8 -1 -1</clus>
<clus scale="   91.981">  5  6 -1 -1</clus>
<clus scale="  136.142">  1  7  2 -1</clus>
<clus scale="  155.233">  2  9  1 -1</clus>
<clus scale="  155.233">  2  5  1 -1</clus>
</clustering>
</event>
<event>
 9    1  0.1445593E-005  0.9216158E+02  0.7546771E-02  0.1298345E+00
          4   -1    0    0  502    0 -0.00000000000E+00  0.00000000000E+00  0.47216597581E+02  0.47216597581E+02  0.00000000000E+00 0. -1.
         21   -1    0    0  501  502  0.00000000000E+00 -0.00000000000E+00 -0.43582803597E+03  0.43582803597E+03  0.00000000000E+00 0. -1.
         23    2    1    2    0    0  0.13450866151E+02 -0.45242467438E+00 -0.31899706988E+02  0.97262606188E+02  0.90891654008E+02 0.  0.
         23    2    1    2    0    0  0.25258435023E+02 -0.17999637716E+02 -0.18650117375E+03  0.21025276330E+03  0.91986744536E+02 0.  0.
        -11    1    4    4    0    0 -0.60672054379E+01 -0.43573566513E+02 -0.14806086076E+03  0.15445868434E+03  0.00000000000E+00 0. -1.
         11    1    4    4    0    0  0.31325640461E+02  0.25573928797E+02 -0.38440312987E+02  0.55794078960E+02  0.00000000000E+00 0.  1.
        -11    1    3    3    0    0 -0.54736078202E+01 -0.36905503264E+02 -0.40747321120E+02  0.55247812013E+02  0.00000000000E+00 0.  1.
         11    1    3    3    0    0  0.18924473971E+02  0.36453078590E+02  0.88476141316E+01  0.42014794175E+02  0.00000000000E+00 0. -1.
          4    1    1    2  501    0 -0.38709301174E+02  0.18452062390E+02 -0.17021055765E+03  0.17552926406E+03  0.00000000000E+00 0. -1.
<scales pt_clust_5="13000.00000" pt_clust_6="13000.00000" pt_clust_7="13000.00000" pt_clust_8="13000.00000" pt_clust_9="42.88226"></scales>
<clustering>
<clus scale="   42.882">  2  9  1 -1</clus>
<clus scale="   90.892">  7  8 -1 -1</clus>
<clus scale="   91.069">  1  7  2 -1</clus>
<clus scale="   91.987">  5  6 -1 -1</clus>
<clus scale="   42.882">  2  5  1 -1</clus>
</clustering>
</event>
<event>
 9    1  0.1445593E-005  0.1177891E+03  0.7546771E-02  0.1247618E+00
          2   -1    0    0  502    0 -0.00000000000E+00  0.00000000000E+00  0.67860057061E+03  0.67860057061E+03  0.00000000000E+00 0. -1.
         21   -1    0    0  501  502  0.00000000000E+00 -0.00000000000E+00 -0.11420423919E+03  0.11420423919E+03  0.00000000000E+00 0. -1.
         23    2    1    2    0    0 -0.37777298492E+02 -0.35351294756E+02  0.25659351731E+03  0.27760377895E+03  0.92448832552E+02 0.  0.
         23    2    1    2    0    0  0.10465353212E+03  0.11006289958E+02  0.38563671538E+03  0.40973432486E+03  0.89961327850E+02 0.  0.
        -13    1    3    3    0    0  0.18306208387E+02 -0.27487785494E+02  0.17618608613E+03  0.17925465842E+03  0.00000000000E+00 0. -1.
         13    1    3    3    0    0 -0.56083506878E+02 -0.78635092620E+01  0.80407431181E+02  0.98349120539E+02  0.00000000000E+00 0.  1.
        -13    1    4    4    0    0  0.45749827810E+02  0.33846908430E+02  0.83408046893E+02  0.10097307681E+03  0.00000000000E+00 0.  1.
         13    1    4    4    0    0  0.58903704314E+02 -0.22840618473E+02  0.30222866849E+03  0.30876124804E+03  0.00000000000E+00 0. -1.
          2    1    1    2  501    0 -0.66876233632E+02  0.24345004798E+02 -0.77833901281E+02  0.10546670599E+03  0.00000000000E+00 0. -1.
<scales pt_clust_5="13000.00000" pt_clust_6="13000.00000" pt_clust_7="13000.00000" pt_clust_8="13000.00000" pt_clust_9="71.16959"></scales>
<clustering>
<clus scale="   71.170">  2  9  1 -1</clus>
<clus scale="   89.961">  7  8 -1 -1</clus>
<clus scale="   92.449">  5  6 -1 -1</clus>
<clus scale="  115.847">  2  7  1 -1</clus>
<clus scale="   71.170">  2  5  1 -1</clus>
</clustering>
</event>
<event>
 9    1  0.1445593E-005  0.2260686E+03  0.7546771E-02  0.1137332E+00
         -1   -1    0    0    0  501 -0.00000000000E+00  0.00000000000E+00  0.11583213626E+04  0.11583213626E+04  0.00000000000E+00 0.  1.
         21   -1    0    0  501  502  0.00000000000E+00 -0.00000000000E+00 -0.15084686407E+03  0.15084686407E+03  0.00000000000E+00 0.  1.
         23    2    1    2    0    0  0.96917981330E+02  0.13043165844E+03  0.71765180434E+03  0.74147592435E+03  0.91416199287E+02 0.  0.
         23    2    1    2    0    0  0.26590300644E+02 -0.27418049365E+03  0.22498965859E+03  0.36738916743E+03  0.92046003093E+02 0.  0.
        -11    1    3    3    0    0  0.66849065664E+02  0.45620354401E+02  0.19489403474E+03  0.21103009050E+03  0.00000000000E+00 0. -1.
         11    1    3    3    0    0  0.30068915666E+02  0.84811304035E+02  0.52275776960E+03  0.53044583386E+03  0.00000000000E+00 0.  1.
        -13    1    4    4    0    0 -0.24765373242E+02 -0.17533722392E+03  0.15858290473E+03  0.23770781114E+03  0.00000000000E+00 0.  1.
         13    1    4    4    0    0  0.51355673886E+02 -0.98843269726E+02  0.66406753863E+02  0.12968135629E+03  0.00000000000E+00 0. -1.
         -1    1    1    2    0  502 -0.12350828197E+03  0.14374883521E+03  0.64833035593E+02  0.20030313489E+03  0.00000000000E+00 0.  1.
<scales pt_clust_5="13000.00000" pt_clust_6="13000.00000" pt_clust_7="13000.00000" pt_clust_8="13000.00000" pt_clust_9="206.48130"></scales>
<clustering>
<clus scale="   91.416">  5  6 -1 -1</clus>
<clus scale="   92.046">  7  8 -1 -1</clus>
<clus scale="  186.447">  1  5  2 -1</clus>
<clus scale="  206.481">  2  9  1 -1</clus>
<clus scale="  206.481">  2  5  1 -1</clus>
</clustering>
</event>
<event>
 9    1  0.1445593E-005  0.1087436E+03  0.7546771E-02  0.1263124E+00
         21   -1    0    0  501  502  0.00000000000E+00  0.00000000000E+00  0.20034661973E+02  0.20034661973E+02  0.00000000000E+00 0.  1.
          1   -1    0    0  502    0 -0.00000000000E+00 -0.00000000000E+00 -0.11067249013E+04  0.11067249013E+04  0.00000000000E+00 0. -1.
         23    2    1    2    0    0 -0.48622158771E+02  0.10061892167E+02 -0.52043326310E+03  0.53030654780E+03  0.88931981335E+02 0.  0.
         23    2    1    2    0    0  0.80404240595E+02  0.16507548533E+02 -0.52157928480E+03  0.53552574722E+03  0.89473652727E+02 0.  0.
        -11    1    4    4    0    0  0.36120925764E+02  0.50624306315E+02 -0.21173601461E+03  0.22068004339E+03  0.00000000000E+00 0.  1.
         11    1    4    4    0    0  0.44283314832E+02 -0.34116757782E+02 -0.30984327020E+03  0.31484570383E+03  0.00000000000E+00 0. -1.
        -13    1    3    3    0    0 -0.96902942058E+01  0.46985925811E+02 -0.22824997752E+03  0.23323728532E+03  0.00000000000E+00 0.  1.
         13    1    3    3    0    0 -0.38931864565E+02 -0.36924033644E+02 -0.29218328558E+03  0.29706926248E+03  0.00000000000E+00 0. -1.
          1    1    1    2  501    0 -0.31782081825E+02 -0.26569440700E+02 -0.44677691377E+02  0.60927268206E+02  0.00000000000E+00 0. -1.
<scales pt_clust_5="13000.00000" pt_clust_6="13000.00000" pt_clust_7="13000.00000" pt_clust_8="13000.00000" pt_clust_9="41.42506"></scales>
<clustering>
<clus scale="   41.425">  1  9  2 -1</clus>
<clus scale="   88.932">  7  8 -1 -1</clus>
<clus scale="   89.474">  5  6 -1 -1</clus>
<clus scale="  108.298">  2  7  1 -1</clus>
<clus scale="   41.425">  1  5  2 -1</clus>
</clustering>
</event>
<event>
 9    1  0.1445593E-005  0.1190064E+03  0.7546771E-02  0.1249855E+00
         21   -1    0    0  501  502  0.00000000000E+00  0.00000000000E+00  0.15193540709E+03  0.15193540709E+03  0.00000000000E+00 0. -1.
         -3   -1    0    0    0  501 -0.00000000000E+00 -0.00000000000E+00 -0.11880672653E+03  0.11880672653E+03  0.00000000000E+00 0.  1.
         23    2    1    2    0    0  0.50366650108E+02 -0.21035533887E+01 -0.26539278937E+02  0.10744203293E+03  0.91094636138E+02 0.  0.
         23    2    1    2    0    0 -0.71973008057E+02 -0.99021158111E+01  0.50323517434E+02  0.13687493477E+03  0.10451854178E+03 0.  0.
        -11    1    4    4    0    0 -0.92781077692E+02 -0.30475628902E+02  0.34254096276E+02  0.10349123367E+03  0.00000000000E+00 0. -1.
         11    1    4    4    0    0  0.20808069635E+02  0.20573513091E+02  0.16069421158E+02  0.33383701101E+02  0.00000000000E+00 0.  1.
        -11    1    3    3    0    0  0.54402051113E+02  0.28608829397E+02 -0.40349708549E+02  0.73526507225E+02  0.00000000000E+00 0.  1.
         11    1    3    3    0    0 -0.40354010043E+01 -0.30712382785E+02  0.13810429612E+02  0.33915525703E+02  0.00000000000E+00 0. -1.
         -3    1    1    2    0  502  0.21606357949E+02  0.12005669200E+02  0.93444420666E+01  0.26425165927E+02  0.00000000000E+00 0.  1.
<scales pt_clust_5="13000.00000" pt_clust_6="13000.00000" pt_clust_7="13000.00000" pt_clust_8="13000.00000" pt_clust_9="24.71782"></scales>
<clustering>
<clus scale="   24.718">  1  9  2 -1</clus>
<clus scale="   91.095">  7  8 -1 -1</clus>
<clus scale="  104.519">  5  6 -1 -1</clus>
<clus scale="  107.409">  2  7  1 -1</clus>
<clus scale="   24.718">  1  5  2 -1</clus>
</clustering>
</event>
<event>
 9    1  0.1445593E-005  0.1151470E+03  0.7546771E-02  0.1251980E+00
         21   -1    0    0  501  502  0.00000000000E+00  0.00000000000E+00  0.18467558255E+03  0.18467558255E+03  0.00000000000E+00 0.  1.
         -3   -1    0    0    0  501 -0.00000000000E+00 -0.00000000000E+00 -0.11302112406E+03  0.11302112406E+03  0.00000000000E+00 0.  1.
         23    2    1    2    0    0  0.54355807138E+02 -0.25311434523E+02  0.42445949051E+01  0.11090837386E+03  0.93206374890E+02 0.  0.
         23    2    1    2    0    0 -0.46370207547E+02  0.72520401375E+02  0.40644551221E+02  0.13193545409E+03  0.91354144612E+02 0.  0.
        -11    1    3    3    0    0 -0.23089076967E+02 -0.70504013192E+01 -0.15801866373E+02  0.28853294696E+02  0.00000000000E+00 0. -1.
         11    1    3    3    0    0  0.77444884104E+02 -0.18261033204E+02  0.20046461278E+02  0.82055079169E+02  0.00000000000E+00 0.  1.
        -13    1    4    4    0    0 -0.59410598657E+02  0.12724138810E+02  0.35850495411E+02  0.70546303677E+02  0.00000000000E+00 0.  1.
         13    1    4    4    0    0  0.13040391110E+02  0.59796262565E+02  0.47940558100E+01  0.61389150410E+02  0.00000000000E+00 0. -1.
         -3    1    1    2    0  502 -0.79855995908E+01 -0.47208966852E+02  0.26765312364E+02  0.54852878666E+02  0.00000000000E+00 0.  1.
<scales pt_clust_5="13000.00000" pt_clust_6="13000.00000" pt_clust_7="13000.00000" pt_clust_8="13000.00000" pt_clust_9="47.87960"></scales>
<clustering>
<clus scale="   47.880">  1  9  2 -1</clus>
<clus scale="   91.354">  7  8 -1 -1</clus>
<clus scale="   93.206">  5  6 -1 -1</clus>
<clus scale="  113.653">  1  7  2 -1</clus>
<clus scale="   47.880">  1  5  2 -1</clus>
</clustering>
</event>
<event>
 9    1  0.1445593E-005  0.2978255E+03  0.7546771E-02  0.1113144E+00
          2   -1    0    0  502    0 -0.00000000000E+00  0.00000000000E+00  0.82895582865E+03  0.82895582865E+03  0.00000000000E+00 0. -1.
         21   -1    0    0  501  502  0.00000000000E+00 -0.00000000000E+00 -0.17281884652E+03  0.17281884652E+03  0.00000000000E+00 0. -1.
         23    2    1    2    0    0 -0.89336593929E+02 -0.75608223276E+02  0.21957315860E+03  0.26505912886E+03  0.91358302131E+02 0.  0.
         23    2    1    2    0    0  0.32628473983E+03  0.77369987227E+02  0.19447365258E+03  0.39796020905E+03  0.90024885824E+02 0.  0.
        -11    1    4    4    0    0  0.11154423981E+03  0.56980570633E+02  0.10863289516E+03  0.16580111210E+03  0.00000000000E+00 0.  1.
         11    1    4    4    0    0  0.21474050003E+03  0.20389416594E+02  0.85840757421E+02  0.23215909695E+03  0.00000000000E+00 0. -1.
        -13    1    3    3    0    0 -0.48769212060E+02  0.79439601349E+01  0.11516355073E+03  0.12531634356E+03  0.00000000000E+00 0.  1.
         13    1    3    3    0    0 -0.40567381869E+02 -0.83552183411E+02  0.10440960787E+03  0.13974278529E+03  0.00000000000E+00 0. -1.
          2    1    1    2  501    0 -0.23694814591E+03 -0.17617639507E+01  0.24209017094E+03  0.33875533726E+03  0.00000000000E+00 0. -1.
<scales pt_clust_5="13000.00000" pt_clust_6="13000.00000" pt_clust_7="13000.00000" pt_clust_8="13000.00000" pt_clust_9="283.89374"></scales>
<clustering>
<clus scale="   90.025">  5  6 -1 -1</clus>
<clus scale="   91.358">  7  8 -1 -1</clus>
<clus scale="  148.472">  1  7  2 -1</clus>
<clus scale="  283.894">  2  9  1 -1</clus>
<clus scale="  283.894">  2  5  1 -1</clus>
</clustering>
</event>
<event>
 9    1  0.1445593E-005  0.9767192E+02  0.7546771E-02  0.1286255E+00
         -1   -1    0    0    0  501 -0.00000000000E+00  0.00000000000E+00  0.33824004097E+03  0.33824004097E+03  0.00000000000E+00 0.  1.
         21   -1    0    0  501  502  0.00000000000E+00 -0.00000000000E+00 -0.35956080320E+02  0.35956080320E+02  0.00000000000E+00 0.  1.
         23    2    1    2    0    0  0.25452745434E+02 -0.35010934828E+02  0.14889321550E+03  0.17876735638E+03  0.88966118713E+02 0.  0.
         23    2    1    2    0    0 -0.86708686154E+00  0.30402561828E+02  0.11665911087E+03  0.15098886542E+03  0.90902264702E+02 0.  0.
        -11    1    3    3    0    0 -0.15225381686E+01 -0.60163634392E+02  0.10846519998E+03  0.12404305959E+03  0.00000000000E+00 0.  1.
         11    1    3    3    0    0  0.26975283602E+02  0.25152699564E+02  0.40428015526E+02  0.54724296799E+02  0.00000000000E+00 0. -1.
        -13    1    4    4    0    0 -0.12291394128E+02  0.59187280058E+02  0.53837564871E+02  0.80948723779E+02  0.00000000000E+00 0.  1.
         13    1    4    4    0    0  0.11424307267E+02 -0.28784718230E+02  0.62821545998E+02  0.70040141645E+02  0.00000000000E+00 0. -1.
         -1    1    1    2    0  502 -0.24585658572E+02  0.46083730001E+01  0.36731634283E+02  0.44439899485E+02  0.00000000000E+00 0.  1.
<scales pt_clust_5="13000.00000" pt_clust_6="13000.00000" pt_clust_7="13000.00000" pt_clust_8="13000.00000" pt_clust_9="25.01384"></scales>
<clustering>
<clus scale="   25.014">  2  9  1 -1</clus>
<clus scale="   88.966">  5  6 -1 -1</clus>
<clus scale="   90.902">  7  8 -1 -1</clus>
<clus scale="   95.873">  1  5  2 -1</clus>
<clus scale="   25.014">  2  5  1 -1</clus>
</clustering>
</event>
<event>
 9    1  0.1445593E-005  0.1339498E+03  0.7546771E-02  0.1221910E+00
         21   -1    0    0  501  502  0.00000000000E+00  0.00000000000E+00  0.48095419101E+03  0.48095419101E+03  0.00000000000E+00 0. -1.
          1   -1    0    0  502    0 -0.00000000000E+00 -0.00000000000E+00 -0.10560824589E+03  0.10560824589E+03  0.00000000000E+00 0. -1.
         23    2    1    2    0    0  0.81012623499E+02 -0.12361011594E+02  0.70412416917E+01  0.12224367396E+03  0.90432831236E+02 0.  0.
         23    2    1    2    0    0 -0.12967643459E+03  0.43282462188E+02  0.10561400279E+03  0.19537507586E+03  0.91256525583E+02 0.  0.
        -13    1    4    4    0    0 -0.38161088304E+02 -0.77503203721E+01 -0.91200692019E+01  0.39993896893E+02  0.00000000000E+00 0.  1.
         13    1    4    4    0    0 -0.91515346285E+02  0.51032782560E+02  0.11473407199E+03  0.15538117897E+03  0.00000000000E+00 0. -1.
        -13    1    3    3    0    0  0.54266068289E+02  0.36634254829E+02 -0.29297695727E+01  0.65539746293E+02  0.00000000000E+00 0.  1.
         13    1    3    3    0    0  0.26746555210E+02 -0.48995266423E+02  0.99710112645E+01  0.56703927669E+02  0.00000000000E+00 0. -1.
          1    1    1    2  501    0  0.48663811091E+02 -0.30921450595E+02  0.26269070064E+03  0.26894368708E+03  0.00000000000E+00 0. -1.
<scales pt_clust_5="13000.00000" pt_clust_6="13000.00000" pt_clust_7="13000.00000" pt_clust_8="13000.00000" pt_clust_9="57.65677"></scales>
<clustering>
<clus scale="   57.657">  1  9  2 -1</clus>
<clus scale="   90.433">  7  8 -1 -1</clus>
<clus scale="   91.257">  5  6 -1 -1</clus>
<clus scale="  133.390">  2  7  1 -1</clus>
<clus scale="   57.657">  1  5  2 -1</clus>
</clustering>
</event>
<event>
 9    1  0.1445593E-005  0.1200634E+03  0.7546771E-02  0.1243423E+00
         21   -1    0    0  501  502  0.00000000000E+00  0.00000000000E+00  0.37598905043E+03  0.37598905043E+03  0.00000000000E+00 0. -1.
          2   -1    0    0  502    0 -0.00000000000E+00 -0.00000000000E+00 -0.87215211789E+02  0.87215211789E+02  0.00000000000E+00 0. -1.
         23    2    1    2    0    0  0.52703825551E+02  0.70472446734E+02  0.87501159609E+02  0.15415973997E+03  0.91458807774E+02 0.  0.
         23    2    1    2    0    0  0.58448385969E+01 -0.70719201045E+02  0.21956050084E+03  0.24770569778E+03  0.90088465673E+02 0.  0.
        -13    1    3    3    0    0 -0.18561131042E+02 -0.81167490511E+01  0.89092652543E+01  0.22130797728E+02  0.00000000000E+00 0.  1.
         13    1    3    3    0    0  0.71264956592E+02  0.78589195785E+02  0.78591894355E+02  0.13202894225E+03  0.00000000000E+00 0. -1.
        -13    1    4    4    0    0  0.68093102126E+01  0.19176329834E+02  0.18668506992E+02  0.27615421141E+02  0.00000000000E+00 0.  1.
         13    1    4    4    0    0 -0.96447161564E+00 -0.89895530879E+02  0.20089199385E+03  0.22009027663E+03  0.00000000000E+00 0. -1.
          2    1    1    2  501    0 -0.58548664148E+02  0.24675431082E+00 -0.18287821806E+02  0.61338824472E+02  0.00000000000E+00 0. -1.
<scales pt_clust_5="13000.00000" pt_clust_6="13000.00000" pt_clust_7="13000.00000" pt_clust_8="13000.00000" pt_clust_9="58.54921"></scales>
<clustering>
<clus scale="   58.549">  1  9  2 -1</clus>
<clus scale="   90.088">  7  8 -1 -1</clus>
<clus scale="   91.459">  5  6 -1 -1</clus>
<clus scale="  119.023">  1  7  2 -1</clus>
<clus scale="   58.549">  1  5  2 -1</clus>
</clustering>
</event>
<event>
 9    1  0.1445593E-005  0.9216520E+02  0.7546771E-02  0.1298628E+00
         21   -1    0    0  501  502  0.00000000000E+00  0.00000000000E+00  0.25290850317E+03  0.25290850317E+03  0.00000000000E+00 0.  1.
         -1   -1    0    0    0  501 -0.00000000000E+00 -0.00000000000E+00 -0.15759011510E+03  0.15759011510E+03  0.00000000000E+00 0.  1.
         23    2    1    2    0    0 -0.12876492695E+02  0.40260542324E+01 -0.11929792118E+03  0.14985337572E+03  0.89677349658E+02 0.  0.
         23    2    1    2    0    0  0.12038149633E+02  0.30036673429E+02  0.92703807260E+02  0.13406076334E+03  0.91275262749E+02 0.  0.
        -11    1    3    3    0    0 -0.13982972799E+02 -0.25527886634E+02 -0.23246765026E+01  0.29199326108E+02  0.00000000000E+00 0. -1.
         11    1    3    3    0    0  0.11064801038E+01  0.29553940867E+02 -0.11697324467E+03  0.12065404962E+03  0.00000000000E+00 0.  1.
        -11    1    4    4    0    0  0.22628214462E+02  0.58910737010E+02  0.45809012479E+02  0.77980617137E+02  0.00000000000E+00 0.  1.
         11    1    4    4    0    0 -0.10590064830E+02 -0.28874063581E+02  0.46894794781E+02  0.56080146205E+02  0.00000000000E+00 0. -1.
         -1    1    1    2    0  502  0.83834306254E+00 -0.34062727662E+02  0.12191250198E+03  0.12658447920E+03  0.00000000000E+00 0.  1.
<scales pt_clust_5="13000.00000" pt_clust_6="13000.00000" pt_clust_7="13000.00000" pt_clust_8="13000.00000" pt_clust_9="34.07304"></scales>
<clustering>
<clus scale="   34.073">  1  9  2 -1</clus>
<clus scale="   89.677">  5  6 -1 -1</clus>
<clus scale="   90.583">  2  5  1 -1</clus>
<clus scale="   91.275">  7  8 -1 -1</clus>
<clus scale="   34.073">  1  5  2 -1</clus>
</clustering>
</event>
<event>
 9    1  0.1445593E-005  0.1073796E+03  0.7546771E-02  0.1268558E+00
         21   -1    0    0  501  502  0.00000000000E+00  0.00000000000E+00  0.25544363745E+03  0.25544363745E+03  0.00000000000E+00 0. -1.
          1   -1    0    0  502    0 -0.00000000000E+00 -0.00000000000E+00 -0.13942851726E+03  0.13942851726E+03  0.00000000000E+00 0. -1.
         23    2    1    2    0    0 -0.27574625434E+02  0.58910429666E+02 -0.87469158822E+02  0.13761206060E+03  0.83996587951E+02 0.  0.
         23    2    1    2    0    0 -0.18161222751E+02 -0.24542475391E+02  0.98954865966E+02  0.13809918490E+03  0.91362772839E+02 0.  0.
        -11    1    3    3    0    0 -0.54337702872E+02  0.49292419797E+02 -0.79281617908E+02  0.10801807044E+03  0.00000000000E+00 0. -1.
         11    1    3    3    0    0  0.26763077438E+02  0.96180098682E+01 -0.81875409141E+01  0.29593990167E+02  0.00000000000E+00 0.  1.
        -13    1    4    4    0    0 -0.36079425264E+02  0.24719513494E+02  0.40889135411E+02  0.59872369833E+02  0.00000000000E+00 0.  1.
         13    1    4    4    0    0  0.17918202513E+02 -0.49261988885E+02  0.58065730556E+02  0.78226815065E+02  0.00000000000E+00 0. -1.
          1    1    1    2  501    0  0.45735848185E+02 -0.34367954275E+02  0.10452941305E+03  0.11916090920E+03  0.00000000000E+00 0. -1.
<scales pt_clust_5="13000.00000" pt_clust_6="13000.00000" pt_clust_7="13000.00000" pt_clust_8="13000.00000" pt_clust_9="57.20948"></scales>
<clustering>
<clus scale="   57.209">  1  9  2 -1</clus>
<clus scale="   83.997">  5  6 -1 -1</clus>
<clus scale="   91.363">  7  8 -1 -1</clus>
<clus scale="  101.186">  2  5  1 -1</clus>
<clus scale="   57.209">  1  5  2 -1</clus>
</clustering>
</event>
<event>
 9    1  0.1445593E-005  0.9948559E+02  0.7546771E-02  0.1281550E+00
         21   -1    0    0  501  502  0.00000000000E+00  0.00000000000E+00  0.57020816402E+02  0.57020816402E+02  0.00000000000E+00 0. -1.
         -3   -1    0    0    0  501 -0.00000000000E+00 -0.00000000000E+00 -0.25413678814E+03  0.25413678814E+03  0.00000000000E+00 0.  1.
         23    2    1    2    0    0  0.36888613585E+02 -0.23770196974E+02 -0.10528784500E+03  0.14619423745E+03  0.91440869866E+02 0.  0.
         23    2    1    2    0    0 -0.38182605737E+02 -0.12582520845E+02 -0.61236236772E+02  0.11743381586E+03  0.91785582759E+02 0.  0.
        -13    1    3    3    0    0  0.27920197523E+02  0.33278150985E+02 -0.50185129151E+02  0.66374090959E+02  0.00000000000E+00 0.  1.
         13    1    3    3    0    0  0.89684160618E+01 -0.57048347959E+02 -0.55102715847E+02  0.79820146487E+02  0.00000000000E+00 0. -1.
        -13    1    4    4    0    0 -0.60478809651E+02 -0.26178657080E+02 -0.20446336851E+02  0.69000443433E+02  0.00000000000E+00 0. -1.
         13    1    4    4    0    0  0.22296203914E+02  0.13596136234E+02 -0.40789899920E+02  0.48433372430E+02  0.00000000000E+00 0.  1.
         -3    1    1    2    0  502  0.12939921521E+01  0.36352717819E+02 -0.30591889969E+02  0.47529551233E+02  0.00000000000E+00 0.  1.
<scales pt_clust_5="13000.00000" pt_clust_6="13000.00000" pt_clust_7="13000.00000" pt_clust_8="13000.00000" pt_clust_9="36.37576"></scales>
<clustering>
<clus scale="   36.376">  1  9  2 -1</clus>
<clus scale="   91.441">  5  6 -1 -1</clus>
<clus scale="   91.786">  7  8 -1 -1</clus>
<clus scale="   99.168">  2  5  1 -1</clus>
<clus scale="   36.376">  1  5  2 -1</clus>
</clustering>
</event>
<event>
 9    1  0.1445593E-005  0.2664383E+03  0.7546771E-02  0.1103986E+00
         21   -1    0    0  501  502  0.00000000000E+00  0.00000000000E+00  0.43114162136E+03  0.43114162136E+03  0.00000000000E+00 0. -1.
          1   -1    0    0  502    0 -0.00000000000E+00 -0.00000000000E+00 -0.37110373036E+03  0.37110373036E+03  0.00000000000E+00 0. -1.
         23    2    1    2    0    0  0.20634706075E+03 -0.20386365180E+03 -0.20722056962E+03  0.36508939530E+03  0.78806117022E+02 0.  0.
         23    2    1    2    0    0 -0.12838702041E+03  0.14306845479E+03  0.65364120575E+02  0.21235571528E+03  0.62214723259E+02 0.  0.
        -11    1    3    3    0    0  0.66145591924E+02 -0.12046356330E+03 -0.92563263164E+02  0.16569449931E+03  0.00000000000E+00 0.  1.
         11    1    3    3    0    0  0.14020146883E+03 -0.83400088505E+02 -0.11465730646E+03  0.19939489599E+03  0.00000000000E+00 0. -1.
        -13    1    4    4    0    0 -0.73848208986E+01  0.46617165733E+02  0.12363508435E+02  0.48790901422E+02  0.00000000000E+00 0.  1.
         13    1    4    4    0    0 -0.12100219951E+03  0.96451289054E+02  0.53000612140E+02  0.16356481386E+03  0.00000000000E+00 0. -1.
          1    1    1    2  501    0 -0.77960040344E+02  0.60795197018E+02  0.20189434005E+03  0.22480024114E+03  0.00000000000E+00 0. -1.
<scales pt_clust_5="13000.00000" pt_clust_6="13000.00000" pt_clust_7="13000.00000" pt_clust_8="13000.00000" pt_clust_9="98.86265"></scales>
<clustering>
<clus scale="   62.215">  7  8 -1 -1</clus>
<clus scale="   78.806">  5  6 -1 -1</clus>
<clus scale="   98.863">  1  9  2 -1</clus>
<clus scale="  262.011">  1  7  2 -1</clus>
<clus scale="   98.863">  1  5  2 -1</clus>
</clustering>
</event>
<event>
 9    1  0.1445593E-005  0.9218742E+02  0.7546771E-02  0.1299805E+00
         21   -1    0    0  501  502  0.00000000000E+00  0.00000000000E+00  0.10522583479E+03  0.10522583479E+03  0.00000000000E+00 0.  1.
         -1   -1    0    0    0  501 -0.00000000000E+00 -0.00000000000E+00 -0.33399599592E+03  0.33399599592E+03  0.00000000000E+00 0.  1.
         23    2    1    2    0    0 -0.41851265116E+01  0.14678460971E+02 -0.17413305938E+03  0.19579009047E+03  0.88195604505E+02 0.  0.
         23    2    1    2    0    0  0.13598374542E+02  0.18114305842E+02 -0.12996623021E+03  0.16073680455E+03  0.91826224347E+02 0.  0.
        -13    1    3    3    0    0 -0.42462951556E+01 -0.36425013089E+02 -0.92210972543E+02  0.99235457667E+02  0.00000000000E+00 0. -1.
         13    1    3    3    0    0  0.61168644033E-01  0.51103474060E+02 -0.81922086841E+02  0.96554632799E+02  0.00000000000E+00 0.  1.
        -13    1    4    4    0    0  0.21455503067E+02  0.53795827949E+02 -0.75620189833E+02  0.95250946594E+02  0.00000000000E+00 0.  1.
         13    1    4    4    0    0 -0.78571285253E+01 -0.35681522107E+02 -0.54346040374E+02  0.65485857961E+02  0.00000000000E+00 0. -1.
         -1    1    1    2    0  502 -0.94132480303E+01 -0.32792766814E+02  0.75329128464E+02  0.82694935691E+02  0.00000000000E+00 0.  1.
<scales pt_clust_5="13000.00000" pt_clust_6="13000.00000" pt_clust_7="13000.00000" pt_clust_8="13000.00000" pt_clust_9="34.11707"></scales>
<clustering>
<clus scale="   34.117">  1  9  2 -1</clus>
<clus scale="   88.196">  5  6 -1 -1</clus>
<clus scale="   88.572">  2  5  1 -1</clus>
<clus scale="   91.826">  7  8 -1 -1</clus>
<clus scale="   34.117">  1  5  2 -1</clus>
</clustering>
</event>
<event>
 9    1  0.1445593E-005  0.1645845E+03  0.7546771E-02  0.1203284E+00
          2   -1    0    0  502    0 -0.00000000000E+00  0.00000000000E+00  0.31159309572E+03  0.31159309572E+03  0.00000000000E+00 0. -1.
         21   -1    0    0  501  502  0.00000000000E+00 -0.00000000000E+00 -0.25804009293E+03  0.25804009293E+03  0.00000000000E+00 0. -1.
         23    2    1    2    0    0  0.65790358184E+02 -0.53416706388E+01  0.74277310984E+02  0.13013051047E+03  0.84023366714E+02 0.  0.
         23    2    1    2    0    0 -0.17225572066E+03 -0.71573694841E+02  0.12596780849E+03  0.24260315063E+03  0.90518356304E+02 0.  0.
        -13    1    3    3    0    0  0.63844187712E+02 -0.37018074325E+02  0.60929172489E+02  0.95701526589E+02  0.00000000000E+00 0.  1.
         13    1    3    3    0    0  0.19461704724E+01  0.31676403687E+02  0.13348138495E+02  0.34428983884E+02  0.00000000000E+00 0. -1.
        -13    1    4    4    0    0 -0.43801058012E+02 -0.52610297775E+02  0.11322332215E+02  0.69387112072E+02  0.00000000000E+00 0.  1.
         13    1    4    4    0    0 -0.12845466265E+03 -0.18963397066E+02  0.11464547627E+03  0.17321603856E+03  0.00000000000E+00 0. -1.
          2    1    1    2  501    0  0.10646536248E+03  0.76915365480E+02 -0.14669211668E+03  0.19689952755E+03  0.00000000000E+00 0. -1.
<scales pt_clust_5="13000.00000" pt_clust_6="13000.00000" pt_clust_7="13000.00000" pt_clust_8="13000.00000" pt_clust_9="137.45717"></scales>
<clustering>
<clus scale="   84.023">  5  6 -1 -1</clus>
<clus scale="   90.518">  7  8 -1 -1</clus>
<clus scale="  106.850">  1  5  2 -1</clus>
<clus scale="  137.457">  2  9  1 -1</clus>
<clus scale="  137.457">  2  5  1 -1</clus>
</clustering>
</event>
<event>
 9    1  0.1445593E-005  0.1409396E+03  0.7546771E-02  0.1220426E+00
          1   -1    0    0  502    0 -0.00000000000E+00  0.00000000000E+00  0.46830687247E+03  0.46830687247E+03  0.00000000000E+00 0. -1.
         21   -1    0    0  501  502  0.00000000000E+00 -0.00000000000E+00 -0.62218159068E+02  0.62218159068E+02  0.00000000000E+00 0. -1.
         23    2    1    2    0    0  0.16652612179E+02 -0.74488496877E+02  0.26623708231E+03  0.29132259710E+03  0.90337289772E+02 0.  0.
         23    2    1    2    0    0 -0.51981882705E+02  0.63591309384E+02  0.70435579740E+02  0.16055452133E+03  0.11861961334E+03 0.  0.
        -13    1    3    3    0    0  0.43530193430E+02 -0.25449458163E+02  0.19121406446E+03  0.19775078030E+03  0.00000000000E+00 0.  1.
         13    1    3    3    0    0 -0.26877581251E+02 -0.49039038714E+02  0.75023017846E+02  0.93571816797E+02  0.00000000000E+00 0. -1.
        -13    1    4    4    0    0 -0.52801047848E+02  0.13904809994E+02 -0.19354918222E+02  0.57930192941E+02  0.00000000000E+00 0. -1.
         13    1    4    4    0    0  0.81916514302E+00  0.49686499391E+02  0.89790497962E+02  0.10262432839E+03  0.00000000000E+00 0.  1.
          1    1    1    2  501    0  0.35329270525E+02  0.10897187493E+02  0.69416051354E+02  0.78647913111E+02  0.00000000000E+00 0. -1.
<scales pt_clust_5="13000.00000" pt_clust_6="13000.00000" pt_clust_7="13000.00000" pt_clust_8="13000.00000" pt_clust_9="36.97171"></scales>
<clustering>
<clus scale="   36.972">  2  9  1 -1</clus>
<clus scale="   90.337">  5  6 -1 -1</clus>
<clus scale="  118.128">  1  5  2 -1</clus>
<clus scale="  118.620">  7  8 -1 -1</clus>
<clus scale="   36.972">  2  5  1 -1</clus>
</clustering>
</event>
<event>
 9    1  0.1445593E-005  0.1344562E+03  0.7546771E-02  0.1221177E+00
         -3   -1    0    0    0  501 -0.00000000000E+00  0.00000000000E+00  0.29286489654E+03  0.29286489654E+03  0.00000000000E+00 0.  1.
         21   -1    0    0  501  502  0.00000000000E+00 -0.00000000000E+00 -0.24674976355E+03  0.24674976355E+03  0.00000000000E+00 0.  1.
         23    2    1    2    0    0  0.97831978802E+02 -0.16037855907E+02  0.21101798995E+03  0.24992136274E+03  0.90021034059E+02 0.  0.
         23    2    1    2    0    0 -0.10580716537E+03 -0.15821741393E+02 -0.19549093226E+02  0.14067533141E+03  0.89229468647E+02 0.  0.
        -11    1    4    4    0    0 -0.16047251384E+02  0.16585873819E+02 -0.37052852927E+02  0.43652255353E+02  0.00000000000E+00 0. -1.
         11    1    4    4    0    0 -0.89759913989E+02 -0.32407615212E+02  0.17503759701E+02  0.97023076053E+02  0.00000000000E+00 0.  1.
        -13    1    3    3    0    0  0.62935557589E+02  0.11943332020E+02  0.45778666798E+02  0.78735086985E+02  0.00000000000E+00 0.  1.
         13    1    3    3    0    0  0.34896421213E+02 -0.27981187926E+02  0.16523932315E+03  0.17118627575E+03  0.00000000000E+00 0. -1.
         -3    1    1    2    0  502  0.79751865720E+01  0.31859597300E+02 -0.14535376374E+03  0.14901796595E+03  0.00000000000E+00 0.  1.
<scales pt_clust_5="13000.00000" pt_clust_6="13000.00000" pt_clust_7="13000.00000" pt_clust_8="13000.00000" pt_clust_9="32.84262"></scales>
<clustering>
<clus scale="   32.843">  2  9  1 -1</clus>
<clus scale="   89.229">  5  6 -1 -1</clus>
<clus scale="   90.021">  7  8 -1 -1</clus>
<clus scale="  133.928">  2  5  1 -1</clus>
<clus scale="   32.843">  2  5  1 -1</clus>
</clustering>
</event>
<event>
 9    1  0.1445593E-005  0.9824059E+02  0.7546771E-02  0.1286197E+00
          1   -1    0    0  502    0 -0.00000000000E+00  0.00000000000E+00  0.11688856066E+03  0.11688856066E+03  0.00000000000E+00 0. -1.
         21   -1    0    0  501  502  0.00000000000E+00 -0.00000000000E+00 -0.18759936683E+03  0.18759936683E+03  0.00000000000E+00 0.  1.
         23    2    1    2    0    0 -0.23275940347E+02  0.26172414317E+01  0.68049039415E+02  0.11604726872E+03  0.91036681954E+02 0.  0.
         23    2    1    2    0    0  0.31453759921E+02  0.18771102765E+02 -0.96332026290E+02  0.14022802712E+03  0.95091256104E+02 0.  0.
        -11    1    3    3    0    0 -0.13074933977E+01 -0.37781840122E+02  0.51840950099E+01  0.38158247117E+02  0.00000000000E+00 0.  1.
         11    1    3    3    0    0 -0.21968446950E+02  0.40399081554E+02  0.62864944405E+02  0.77889021607E+02  0.00000000000E+00 0. -1.
        -11    1    4    4    0    0  0.81835965060E+01  0.21952160091E+02  0.14088188030E+02  0.27337622911E+02  0.00000000000E+00 0. -1.
         11    1    4    4    0    0  0.23270163415E+02 -0.31810573256E+01 -0.11042021432E+03  0.11289040421E+03  0.00000000000E+00 0.  1.
          1    1    1    2  501    0 -0.81778195738E+01 -0.21388344197E+02 -0.42427819291E+02  0.48212631647E+02  0.00000000000E+00 0. -1.
<scales pt_clust_5="13000.00000" pt_clust_6="13000.00000" pt_clust_7="13000.00000" pt_clust_8="13000.00000" pt_clust_9="22.89843"></scales>
<clustering>
<clus scale="   22.898">  2  9  1 -1</clus>
<clus scale="   91.037">  5  6 -1 -1</clus>
<clus scale="   94.321">  1  5  2 -1</clus>
<clus scale="   95.091">  7  8 -1 -1</clus>
<clus scale="   22.898">  2  5  1 -1</clus>
</clustering>
</event>
<event>
 9    1  0.1445593E-005  0.1126625E+03  0.7546771E-02  0.1267934E+00
          3   -1    0    0  502    0 -0.00000000000E+00  0.00000000000E+00  0.19264713345E+03  0.19264713345E+03  0.00000000000E+00 0. -1.
         21   -1    0    0  501  502  0.00000000000E+00 -0.00000000000E+00 -0.57157768186E+03  0.57157768186E+03  0.00000000000E+00 0.  1.
         23    2    1    2    0    0 -0.28187016608E+02 -0.48701762046E+02  0.17120474895E+03  0.19272176507E+03  0.68295264374E+02 0.  0.
         23    2    1    2    0    0  0.59714733113E+02  0.44851705237E+02 -0.45048693440E+03  0.46691521114E+03  0.97436192057E+02 0.  0.
        -11    1    3    3    0    0 -0.97027368593E+01 -0.33322607668E+02  0.16398250238E+03  0.16761503623E+03  0.00000000000E+00 0. -1.
         11    1    3    3    0    0 -0.18484279748E+02 -0.15379154378E+02  0.72222465682E+01  0.25106728833E+02  0.00000000000E+00 0.  1.
        -13    1    4    4    0    0 -0.19313361905E+02 -0.13803447805E+02 -0.10735102614E+03  0.10994445840E+03  0.00000000000E+00 0. -1.
         13    1    4    4    0    0  0.79028095018E+02  0.58655153042E+02 -0.34313590825E+03  0.35697075274E+03  0.00000000000E+00 0.  1.
          3    1    1    2  501    0 -0.31527716505E+02  0.38500568088E+01 -0.99648362968E+02  0.10458783910E+03  0.00000000000E+00 0. -1.
<scales pt_clust_5="13000.00000" pt_clust_6="13000.00000" pt_clust_7="13000.00000" pt_clust_8="13000.00000" pt_clust_9="31.76192"></scales>
<clustering>
<clus scale="   31.762">  2  9  1 -1</clus>
<clus scale="   68.295">  5  6 -1 -1</clus>
<clus scale="   88.675">  1  5  2 -1</clus>
<clus scale="   97.436">  7  8 -1 -1</clus>
<clus scale="   31.762">  2  5  1 -1</clus>
</clustering>
</event>
<event>
 9    1  0.1445593E-005  0.9661421E+02  0.7546771E-02  0.1289648E+00
         21   -1    0    0  501  502  0.00000000000E+00  0.00000000000E+00  0.14455922224E+03  0.14455922224E+03  0.00000000000E+00 0.  1.
          1   -1    0    0  502    0 -0.00000000000E+00 -0.00000000000E+00 -0.17642342620E+03  0.17642342620E+03  0.00000000000E+00 0. -1.
         23    2    1    2    0    0 -0.21669909334E+02 -0.17888526075E+02 -0.83463930016E+02  0.12557716666E+03  0.89519901899E+02 0.  0.
         23    2    1    2    0    0  0.30167153543E+02 -0.22097149481E+02 -0.29332248015E+02  0.10473552074E+03  0.93331706101E+02 0.  0.
        -11    1    3    3    0    0 -0.48527830262E+02 -0.34598810999E+02 -0.39827207009E+02  0.71681479133E+02  0.00000000000E+00 0.  1.
         11    1    3    3    0    0  0.26857920928E+02  0.16710284924E+02 -0.43636723006E+02  0.53895687523E+02  0.00000000000E+00 0. -1.
        -13    1    4    4    0    0 -0.32226122533E+02 -0.34580394078E+01 -0.22074714866E+02  0.39214462210E+02  0.00000000000E+00 0.  1.
         13    1    4    4    0    0  0.62393276076E+02 -0.18639110073E+02 -0.72575331494E+01  0.65521058533E+02  0.00000000000E+00 0. -1.
          1    1    1    2  501    0 -0.84972442095E+01  0.39985675555E+02  0.80931974070E+02  0.90669961043E+02  0.00000000000E+00 0. -1.
<scales pt_clust_5="13000.00000" pt_clust_6="13000.00000" pt_clust_7="13000.00000" pt_clust_8="13000.00000" pt_clust_9="40.87857"></scales>
<clustering>
<clus scale="   40.879">  1  9  2 -1</clus>
<clus scale="   89.520">  5  6 -1 -1</clus>
<clus scale="   92.937">  2  5  1 -1</clus>
<clus scale="   93.332">  7  8 -1 -1</clus>
<clus scale="   40.879">  1  5  2 -1</clus>
</clustering>
</event>
<event>
 9    1  0.1445593E-005  0.9807488E+02  0.7546771E-02  0.1285871E+00
          1   -1    0    0  502    0 -0.00000000000E+00  0.00000000000E+00  0.45023383472E+03  0.45023383472E+03  0.00000000000E+00 0. -1.
         21   -1    0    0  501  502  0.00000000000E+00 -0.00000000000E+00 -0.13500557639E+03  0.13500557639E+03  0.00000000000E+00 0. -1.
         23    2    1    2    0    0 -0.25118752809E+02  0.27629335118E+02  0.38132069951E+03  0.39384628678E+03  0.91187114385E+02 0.  0.
         23    2    1    2    0    0 -0.82788674642E+01 -0.23230325391E+02 -0.10536146701E+03  0.13965523960E+03  0.88285670147E+02 0.  0.
        -11    1    3    3    0    0  0.19596662857E+00 -0.25593544612E+02  0.40090560696E+02  0.47563862182E+02  0.00000000000E+00 0.  1.
         11    1    3    3    0    0 -0.25314719438E+02  0.53222879730E+02  0.34123013882E+03  0.34628242459E+03  0.00000000000E+00 0. -1.
        -13    1    4    4    0    0 -0.21381326135E+02 -0.46395618322E+02 -0.10030566175E+03  0.11256527123E+03  0.00000000000E+00 0. -1.
         13    1    4    4    0    0  0.13102458670E+02  0.23165292931E+02 -0.50558052599E+01  0.27089968376E+02  0.00000000000E+00 0.  1.
          1    1    1    2  501    0  0.33397620273E+02 -0.43990097262E+01  0.39269025834E+02  0.51737884731E+02  0.00000000000E+00 0. -1.
<scales pt_clust_5="13000.00000" pt_clust_6="13000.00000" pt_clust_7="13000.00000" pt_clust_8="13000.00000" pt_clust_9="33.68610"></scales>
<clustering>
<clus scale="   33.686">  2  9  1 -1</clus>
<clus scale="   88.286">  7  8 -1 -1</clus>
<clus scale="   91.187">  5  6 -1 -1</clus>
<clus scale="   95.383">  2  7  1 -1</clus>
<clus scale="   33.686">  2  5  1 -1</clus>
</clustering>
</event>
<event>
 9    1  0.1445593E-005  0.1193270E+03  0.7546771E-02  0.1244306E+00
         21   -1    0    0  501  502  0.00000000000E+00  0.00000000000E+00  0.29368627105E+03  0.29368627105E+03  0.00000000000E+00 0. -1.
          3   -1    0    0  502    0 -0.00000000000E+00 -0.00000000000E+00 -0.12585451558E+03  0.12585451558E+03  0.00000000000E+00 0. -1.
         23    2    1    2    0    0 -0.34390177368E+02 -0.49675900902E+02  0.11302987186E+02  0.11014901157E+03  0.91403871911E+02 0.  0.
         23    2    1    2    0    0  0.18824406312E+01  0.10090711867E+03 -0.58072363404E+01  0.13608750788E+03  0.91105958242E+02 0.  0.
        -11    1    4    4    0    0  0.35758697273E+02  0.60402534388E+02 -0.32000882632E+02  0.77144067046E+02  0.00000000000E+00 0. -1.
         11    1    4    4    0    0 -0.33876256641E+02  0.40504584281E+02  0.26193646291E+02  0.58943440838E+02  0.00000000000E+00 0.  1.
        -13    1    3    3    0    0  0.21010721515E+02  0.11873594976E+02  0.12814093035E+02  0.27324598013E+02  0.00000000000E+00 0.  1.
         13    1    3    3    0    0 -0.55400898883E+02 -0.61549495879E+02 -0.15111058492E+01  0.82824413556E+02  0.00000000000E+00 0. -1.
          3    1    1    2  501    0  0.32507736737E+02 -0.51231217767E+02  0.16233600463E+03  0.17330426718E+03  0.00000000000E+00 0. -1.
<scales pt_clust_5="13000.00000" pt_clust_6="13000.00000" pt_clust_7="13000.00000" pt_clust_8="13000.00000" pt_clust_9="60.67446"></scales>
<clustering>
<clus scale="   60.674">  1  9  2 -1</clus>
<clus scale="   91.106">  5  6 -1 -1</clus>
<clus scale="   91.404">  7  8 -1 -1</clus>
<clus scale="  119.099">  1  5  2 -1</clus>
<clus scale="   60.674">  1  5  2 -1</clus>
</clustering>
</event>
<event>
 9    1  0.1445593E-005  0.1404463E+03  0.7546771E-02  0.1231920E+00
         -1   -1    0    0    0  501 -0.00000000000E+00  0.00000000000E+00  0.13853136444E+03  0.13853136444E+03  0.00000000000E+00 0.  1.
         21   -1    0    0  501  502  0.00000000000E+00 -0.00000000000E+00 -0.47989134742E+03  0.47989134742E+03  0.00000000000E+00 0.  1.
         23    2    1    2    0    0 -0.49089764369E+01 -0.51322007353E+01  0.69245940080E+02  0.11676288645E+03  0.93745047343E+02 0.  0.
         23    2    1    2    0    0 -0.97104384724E+02 -0.32588679436E+02 -0.91208442852E+02  0.16425155487E+03  0.90378701425E+02 0.  0.
        -13    1    3    3    0    0  0.26330800443E+02 -0.32213816822E+02  0.62185375227E+02  0.74820197396E+02  0.00000000000E+00 0. -1.
         13    1    3    3    0    0 -0.31239776880E+02  0.27081616087E+02  0.70605648533E+01  0.41942689058E+02  0.00000000000E+00 0.  1.
        -13    1    4    4    0    0 -0.54727407885E+02  0.27709425251E+02 -0.29209042160E+02  0.67941662958E+02  0.00000000000E+00 0.  1.
         13    1    4    4    0    0 -0.42376976839E+02 -0.60298104687E+02 -0.61999400692E+02  0.96309891917E+02  0.00000000000E+00 0. -1.
         -1    1    1    2    0  502  0.10201336116E+03  0.37720880171E+02 -0.31939748021E+03  0.33740827053E+03  0.00000000000E+00 0.  1.
<scales pt_clust_5="13000.00000" pt_clust_6="13000.00000" pt_clust_7="13000.00000" pt_clust_8="13000.00000" pt_clust_9="107.50286"></scales>
<clustering>
<clus scale="   90.379">  7  8 -1 -1</clus>
<clus scale="   93.745">  5  6 -1 -1</clus>
<clus scale="   94.014">  1  5  2 -1</clus>
<clus scale="  107.503">  2  9  1 -1</clus>
<clus scale="  107.503">  2  5  1 -1</clus>
</clustering>
</event>
<event>
 9    1  0.1445593E-005  0.1063602E+03  0.7546771E-02  0.1267554E+00
         21   -1    0    0  501  502  0.00000000000E+00  0.00000000000E+00  0.20850520014E+03  0.20850520014E+03  0.00000000000E+00 0.  1.
          1   -1    0    0  502    0 -0.00000000000E+00 -0.00000000000E+00 -0.87557610745E+02  0.87557610745E+02  0.00000000000E+00 0. -1.
         23    2    1    2    0    0 -0.15795053647E+01 -0.44594679611E+02  0.50102958309E+02  0.11433028960E+03  0.92573907786E+02 0.  0.
         23    2    1    2    0    0 -0.43184720118E+02  0.54748213047E+02  0.71117244296E+02  0.13583040323E+03  0.92357723665E+02 0.  0.
        -11    1    4    4    0    0 -0.57034466741E+01 -0.25645783238E+02  0.23002551181E+02  0.34919233421E+02  0.00000000000E+00 0.  1.
         11    1    4    4    0    0 -0.37481273444E+02  0.80393996285E+02  0.48114693115E+02  0.10091116980E+03  0.00000000000E+00 0. -1.
        -13    1    3    3    0    0 -0.46202361113E+02 -0.18542968541E+02  0.33700358640E+02  0.60118333536E+02  0.00000000000E+00 0.  1.
         13    1    3    3    0    0  0.44622855748E+02 -0.26051711070E+02  0.16402599669E+02  0.54211956068E+02  0.00000000000E+00 0. -1.
          1    1    1    2  501    0  0.44764225483E+02 -0.10153533436E+02 -0.27261320755E+00  0.45902118059E+02  0.00000000000E+00 0. -1.
<scales pt_clust_5="13000.00000" pt_clust_6="13000.00000" pt_clust_7="13000.00000" pt_clust_8="13000.00000" pt_clust_9="45.90133"></scales>
<clustering>
<clus scale="   45.901">  1  9  2 -1</clus>
<clus scale="   92.358">  5  6 -1 -1</clus>
<clus scale="   92.574">  7  8 -1 -1</clus>
<clus scale="  106.172">  1  5  2 -1</clus>
<clus scale="   45.901">  1  5  2 -1</clus>
</clustering>
</event>
<event>
 9    1  0.1445593E-005  0.1293076E+03  0.7546771E-02  0.1228677E+00
         21   -1    0    0  501  502  0.00000000000E+00  0.00000000000E+00  0.94308825719E+02  0.94308825719E+02  0.00000000000E+00 0. -1.
          1   -1    0    0  502    0 -0.00000000000E+00 -0.00000000000E+00 -0.47104082177E+03  0.47104082177E+03  0.00000000000E+00 0. -1.
         23    2    1    2    0    0  0.42114334552E+02 -0.39394794391E+02 -0.13131245680E+03  0.16996103836E+03  0.91204310471E+02 0.  0.
         23    2    1    2    0    0 -0.12103554392E+03  0.52443311682E+02 -0.26777211312E+03  0.31233164886E+03  0.91919804626E+02 0.  0.
        -11    1    4    4    0    0 -0.12202066610E+03  0.28727154342E+02 -0.25764953207E+03  0.28652674173E+03  0.00000000000E+00 0. -1.
         11    1    4    4    0    0  0.98512218163E+00  0.23716157340E+02 -0.10122581050E+02  0.25804907126E+02  0.00000000000E+00 0.  1.
        -13    1    3    3    0    0 -0.28372255057E+02 -0.32031062320E+01 -0.31332033986E+02  0.42390342064E+02  0.00000000000E+00 0. -1.
         13    1    3    3    0    0  0.70486589610E+02 -0.36191688159E+02 -0.99980422814E+02  0.12757069629E+03  0.00000000000E+00 0.  1.
          1    1    1    2  501    0  0.78921209364E+02 -0.13048517291E+02  0.22352573872E+02  0.83056960272E+02  0.00000000000E+00 0. -1.
<scales pt_clust_5="13000.00000" pt_clust_6="13000.00000" pt_clust_7="13000.00000" pt_clust_8="13000.00000" pt_clust_9="79.99263"></scales>
<clustering>
<clus scale="   79.993">  1  9  2 -1</clus>
<clus scale="   91.204">  7  8 -1 -1</clus>
<clus scale="   91.920">  5  6 -1 -1</clus>
<clus scale="  128.800">  2  7  1 -1</clus>
<clus scale="   79.993">  1  5  2 -1</clus>
</clustering>
</event>
<event>
 9    1  0.1445593E-005  0.1188599E+03  0.7546771E-02  0.1245094E+00
          2   -1    0    0  502    0 -0.00000000000E+00  0.00000000000E+00  0.13182188460E+03  0.13182188460E+03  0.00000000000E+00 0. -1.
         21   -1    0    0  501  502  0.00000000000E+00 -0.00000000000E+00 -0.33423626600E+03  0.33423626600E+03  0.00000000000E+00 0.  1.
         23    2    1    2    0    0 -0.64712655196E+02  0.47569530431E+02  0.83506481450E+02  0.14721432732E+03  0.90819258733E+02 0.  0.
         23    2    1    2    0    0  0.29471596532E+02 -0.42864453420E+02 -0.20009228965E+03  0.22594272564E+03  0.91144141459E+02 0.  0.
        -13    1    3    3    0    0 -0.36358268940E+02  0.33101279538E+02  0.99947194589E+02  0.11138698368E+03  0.00000000000E+00 0. -1.
         13    1    3    3    0    0 -0.28354386256E+02  0.14468250894E+02 -0.16440713139E+02  0.35827343642E+02  0.00000000000E+00 0.  1.
        -13    1    4    4    0    0  0.28222233225E+02 -0.68531132043E+02 -0.11298779972E+03  0.13512680487E+03  0.00000000000E+00 0.  1.
         13    1    4    4    0    0  0.12493633072E+01  0.25666678623E+02 -0.87104489923E+02  0.90815920768E+02  0.00000000000E+00 0. -1.
          2    1    1    2  501    0  0.35241058664E+02 -0.47050770111E+01 -0.85828573207E+02  0.92901097648E+02  0.00000000000E+00 0. -1.
<scales pt_clust_5="13000.00000" pt_clust_6="13000.00000" pt_clust_7="13000.00000" pt_clust_8="13000.00000" pt_clust_9="35.55376"></scales>
<clustering>
<clus scale="   35.554">  2  9  1 -1</clus>
<clus scale="   90.819">  5  6 -1 -1</clus>
<clus scale="   91.144">  7  8 -1 -1</clus>
<clus scale="  118.611">  1  5  2 -1</clus>
<clus scale="   35.554">  2  5  1 -1</clus>
</clustering>
</event>
<event>
 9    1  0.1445593E-005  0.1189540E+03  0.7546771E-02  0.1244876E+00
          2   -1    0    0  502    0 -0.00000000000E+00  0.00000000000E+00  0.10437661588E+03  0.10437661588E+03  0.00000000000E+00 0. -1.
         21   -1    0    0  501  502  0.00000000000E+00 -0.00000000000E+00 -0.24646072069E+03  0.24646072069E+03  0.00000000000E+00 0.  1.
         23    2    1    2    0    0  0.50554460875E+01 -0.89577131955E+02  0.13715913770E+02  0.13007894094E+03  0.93181459964E+02 0.  0.
         23    2    1    2    0    0 -0.20800031122E+02  0.39058879152E+02 -0.97557044656E+02  0.14206767294E+03  0.93314572273E+02 0.  0.
        -13    1    4    4    0    0 -0.57142694792E+02  0.33237433194E+02 -0.56858415118E+02  0.87194574964E+02  0.00000000000E+00 0.  1.
         13    1    4    4    0    0  0.36342663670E+02  0.58214459580E+01 -0.40698629538E+02  0.54873097980E+02  0.00000000000E+00 0. -1.
        -13    1    3    3    0    0 -0.33997983648E+02 -0.93504064539E+01 -0.11955700569E+02  0.37232133555E+02  0.00000000000E+00 0.  1.
         13    1    3    3    0    0  0.39053429736E+02 -0.80226725502E+02  0.25671614339E+02  0.92846807385E+02  0.00000000000E+00 0. -1.
          2    1    1    2  501    0  0.15744585034E+02  0.50518252803E+02 -0.58242973929E+02  0.78690722682E+02  0.00000000000E+00 0. -1.
<scales pt_clust_5="13000.00000" pt_clust_6="13000.00000" pt_clust_7="13000.00000" pt_clust_8="13000.00000" pt_clust_9="52.91489"></scales>
<clustering>
<clus scale="   52.915">  2  9  1 -1</clus>
<clus scale="   93.181">  7  8 -1 -1</clus>
<clus scale="   93.315">  5  6 -1 -1</clus>
<clus scale="  118.850">  1  7  2 -1</clus>
<clus scale="   52.915">  2  5  1 -1</clus>
</clustering>
</event>
<event>
 9    1  0.1445593E-005  0.9438065E+02  0.7546771E-02  0.1293431E+00
          4   -1    0    0  502    0 -0.00000000000E+00  0.00000000000E+00  0.13802465919E+03  0.13802465919E+03  0.00000000000E+00 0. -1.
         21   -1    0    0  501  502  0.00000000000E+00 -0.00000000000E+00 -0.12458683105E+03  0.12458683105E+03  0.00000000000E+00 0. -1.
         23    2    1    2    0    0 -0.58731402795E+01  0.21584077352E+02  0.50170184634E+02  0.10682109783E+03  0.91615137090E+02 0.  0.
         23    2    1    2    0    0 -0.95471089114E+01 -0.68548956852E+01  0.19307367135E+02  0.95830543322E+02  0.93126697162E+02 0.  0.
        -11    1    4    4    0    0 -0.16000663328E+01 -0.49879041022E+02  0.70978563899E+01  0.50406929195E+02  0.00000000000E+00 0.  1.
         11    1    4    4    0    0 -0.79470425786E+01  0.43024145337E+02  0.12209510745E+02  0.45423614127E+02  0.00000000000E+00 0. -1.
        -11    1    3    3    0    0 -0.23270942344E+02 -0.30717905869E+02  0.14545047078E+02  0.41190835061E+02  0.00000000000E+00 0.  1.
         11    1    3    3    0    0  0.17397802064E+02  0.52301983221E+02  0.35625137556E+02  0.65630262771E+02  0.00000000000E+00 0. -1.
          4    1    1    2  501    0  0.15420249191E+02 -0.14729181666E+02 -0.56039723628E+02  0.59959849083E+02  0.00000000000E+00 0. -1.
<scales pt_clust_5="13000.00000" pt_clust_6="13000.00000" pt_clust_7="13000.00000" pt_clust_8="13000.00000" pt_clust_9="21.32447"></scales>
<clustering>
<clus scale="   21.324">  2  9  1 -1</clus>
<clus scale="   91.615">  7  8 -1 -1</clus>
<clus scale="   92.889">  1  7  2 -1</clus>
<clus scale="   93.127">  5  6 -1 -1</clus>
<clus scale="   21.324">  2  5  1 -1</clus>
</clustering>
</event>
<event>
 9    1  0.1445593E-005  0.1238482E+03  0.7546771E-02  0.1237383E+00
          1   -1    0    0  502    0 -0.00000000000E+00  0.00000000000E+00  0.10473300895E+03  0.10473300895E+03  0.00000000000E+00 0. -1.
         21   -1    0    0  501  502  0.00000000000E+00 -0.00000000000E+00 -0.42466244542E+03  0.42466244542E+03  0.00000000000E+00 0. -1.
         23    2    1    2    0    0  0.25886143419E+02 -0.63865437554E+02  0.53528659410E+01  0.11467445844E+03  0.91502413681E+02 0.  0.
         23    2    1    2    0    0 -0.18052864459E+02  0.12204791155E+03 -0.10124839042E+03  0.18312273544E+03  0.89783634607E+02 0.  0.
        -13    1    3    3    0    0  0.44194092121E+02 -0.45182739949E+02 -0.30593645116E+02  0.70218009720E+02  0.00000000000E+00 0. -1.
         13    1    3    3    0    0 -0.18307948702E+02 -0.18682697606E+02  0.35946511057E+02  0.44456448718E+02  0.00000000000E+00 0.  1.
        -13    1    4    4    0    0 -0.46523448154E+02  0.57184425151E+02 -0.80837958314E+02  0.10940413709E+03  0.00000000000E+00 0.  1.
         13    1    4    4    0    0  0.28470583695E+02  0.64863486398E+02 -0.20410432104E+02  0.73718598347E+02  0.00000000000E+00 0. -1.
          1    1    1    2  501    0 -0.78332789594E+01 -0.58182473995E+02 -0.22403391199E+03  0.23159826049E+03  0.00000000000E+00 0. -1.
<scales pt_clust_5="13000.00000" pt_clust_6="13000.00000" pt_clust_7="13000.00000" pt_clust_8="13000.00000" pt_clust_9="58.70741"></scales>
<clustering>
<clus scale="   58.707">  2  9  1 -1</clus>
<clus scale="   89.784">  7  8 -1 -1</clus>
<clus scale="   91.502">  5  6 -1 -1</clus>
<clus scale="  122.584">  2  7  1 -1</clus>
<clus scale="   58.707">  2  5  1 -1</clus>
</clustering>
</event>
<event>
 9    1  0.1445593E-005  0.1100759E+03  0.7546771E-02  0.1263395E+00
         21   -1    0    0  501  502  0.00000000000E+00  0.00000000000E+00  0.26919727924E+03  0.26919727924E+03  0.00000000000E+00 0.  1.
         -1   -1    0    0    0  501 -0.00000000000E+00 -0.00000000000E+00 -0.22803256223E+03  0.22803256223E+03  0.00000000000E+00 0.  1.
         23    2    1    2    0    0  0.27618915072E+02 -0.25438281646E+02 -0.12251333534E+03  0.15928498283E+03  0.94616477305E+02 0.  0.
         23    2    1    2    0    0 -0.73512855848E+02 -0.14159299466E+02 -0.34521906648E+02  0.13068307736E+03  0.10139861406E+03 0.  0.
        -11    1    4    4    0    0 -0.84066773166E+02 -0.41305913931E+02 -0.38531922465E+02  0.10128232780E+03  0.00000000000E+00 0.  1.
         11    1    4    4    0    0  0.10553917317E+02  0.27146614465E+02  0.40100158173E+01  0.29400749557E+02  0.00000000000E+00 0. -1.
        -13    1    3    3    0    0  0.42516358795E+02  0.23188512351E+02 -0.77397395224E+02  0.91300080272E+02  0.00000000000E+00 0. -1.
         13    1    3    3    0    0 -0.14897443723E+02 -0.48626793997E+02 -0.45115940112E+02  0.67984902560E+02  0.00000000000E+00 0.  1.
         -1    1    1    2    0  502  0.45893940776E+02  0.39597581112E+02  0.19819995900E+03  0.20726178127E+03  0.00000000000E+00 0.  1.
<scales pt_clust_5="13000.00000" pt_clust_6="13000.00000" pt_clust_7="13000.00000" pt_clust_8="13000.00000" pt_clust_9="60.61536"></scales>
<clustering>
<clus scale="   60.615">  1  9  2 -1</clus>
<clus scale="   94.616">  7  8 -1 -1</clus>
<clus scale="  101.399">  5  6 -1 -1</clus>
<clus scale="  103.862">  2  7  1 -1</clus>
<clus scale="   60.615">  1  5  2 -1</clus>
</clustering>
</event>
<event>
 9    1  0.1445593E-005  0.1173763E+03  0.7546771E-02  0.1247592E+00
         21   -1    0    0  501  502  0.00000000000E+00  0.00000000000E+00  0.56892537538E+02  0.56892537538E+02  0.00000000000E+00 0. -1.
         -3   -1    0    0    0  501 -0.00000000000E+00 -0.00000000000E+00 -0.49660491529E+03  0.49660491529E+03  0.00000000000E+00 0.  1.
         23    2    1    2    0    0 -0.78951542943E+02 -0.15353485869E+02 -0.30812842873E+03  0.33133330695E+03  0.91485277731E+02 0.  0.
         23    2    1    2    0    0  0.64139694570E+02 -0.21706651478E+02 -0.14110751831E+03  0.18113314536E+03  0.91174587943E+02 0.  0.
        -11    1    3    3    0    0 -0.66531750878E+02 -0.45945075673E+02 -0.26473762190E+03  0.27680937900E+03  0.00000000000E+00 0.  1.
         11    1    3    3    0    0 -0.12419792065E+02  0.30591589804E+02 -0.43390806830E+02  0.54523927949E+02  0.00000000000E+00 0. -1.
        -13    1    4    4    0    0  0.81774408651E+01 -0.49627289376E+02 -0.73200235833E+02  0.88814485958E+02  0.00000000000E+00 0.  1.
         13    1    4    4    0    0  0.55962253705E+02  0.27920637898E+02 -0.67907282473E+02  0.92318659400E+02  0.00000000000E+00 0. -1.
         -3    1    1    2    0  502  0.14811848373E+02  0.37060137347E+02  0.95235692783E+01  0.41031000527E+02  0.00000000000E+00 0.  1.
<scales pt_clust_5="13000.00000" pt_clust_6="13000.00000" pt_clust_7="13000.00000" pt_clust_8="13000.00000" pt_clust_9="39.91046"></scales>
<clustering>
<clus scale="   39.910">  1  9  2 -1</clus>
<clus scale="   91.175">  7  8 -1 -1</clus>
<clus scale="   91.485">  5  6 -1 -1</clus>
<clus scale="  117.134">  1  7  2 -1</clus>
<clus scale="   39.910">  1  5  2 -1</clus>
</clustering>
</event>
<event>
 9    1  0.1445593E-005  0.1138493E+03  0.7546771E-02  0.1254776E+00
         21   -1    0    0  501  502  0.00000000000E+00  0.00000000000E+00  0.48488919305E+03  0.48488919305E+03  0.00000000000E+00 0.  1.
          4   -1    0    0  502    0 -0.00000000000E+00 -0.00000000000E+00 -0.12993538894E+03  0.12993538894E+03  0.00000000000E+00 0.  1.
         23    2    1    2    0    0  0.54468493424E+02 -0.25894031297E+02 -0.86314642096E+02  0.13986946235E+03  0.92064821870E+02 0.  0.
         23    2    1    2    0    0 -0.82467709637E+02  0.18366810907E+02  0.24055494916E+03  0.27215836658E+03  0.95211501693E+02 0.  0.
        -11    1    3    3    0    0  0.59041127845E+02  0.37918025514E+01 -0.91921076273E+02  0.10931476024E+03  0.00000000000E+00 0.  1.
         11    1    3    3    0    0 -0.45726344208E+01 -0.29685833848E+02  0.56064341771E+01  0.30554702109E+02  0.00000000000E+00 0. -1.
        -13    1    4    4    0    0  0.13989893600E+02 -0.16772980603E+02  0.67489824565E+02  0.70936072777E+02  0.00000000000E+00 0. -1.
         13    1    4    4    0    0 -0.96457603236E+02  0.35139791509E+02  0.17306512460E+03  0.20122229380E+03  0.00000000000E+00 0.  1.
          4    1    1    2  501    0  0.27999216213E+02  0.75272203902E+01  0.20071349704E+03  0.20279675306E+03  0.00000000000E+00 0.  1.
<scales pt_clust_5="13000.00000" pt_clust_6="13000.00000" pt_clust_7="13000.00000" pt_clust_8="13000.00000" pt_clust_9="28.99336"></scales>
<clustering>
<clus scale="   28.993">  1  9  2 -1</clus>
<clus scale="   92.065">  5  6 -1 -1</clus>
<clus scale="   95.212">  7  8 -1 -1</clus>
<clus scale="  111.231">  2  5  1 -1</clus>
<clus scale="   28.993">  1  5  2 -1</clus>
</clustering>
</event>
<event>
 9    1  0.1445593E-005  0.1009968E+03  0.7546771E-02  0.1281227E+00
         21   -1    0    0  501  502  0.00000000000E+00  0.00000000000E+00  0.32409593999E+03  0.32409593999E+03  0.00000000000E+00 0.  1.
          1   -1    0    0  502    0 -0.00000000000E+00 -0.00000000000E+00 -0.54461607146E+02  0.54461607146E+02  0.00000000000E+00 0. -1.
         23    2    1    2    0    0  0.13865915850E+02 -0.26240667091E+02  0.33733242411E+02  0.97865128502E+02  0.86941448697E+02 0.  0.
         23    2    1    2    0    0 -0.34876189360E+02  0.52028885952E+02  0.14137666908E+03  0.18048598143E+03  0.93083153013E+02 0.  0.
        -11    1    4    4    0    0  0.30986093472E+02  0.17679882514E+02  0.63693991998E+02  0.73004389259E+02  0.00000000000E+00 0.  1.
         11    1    4    4    0    0 -0.65862282832E+02  0.34349003438E+02  0.77682677083E+02  0.10748159217E+03  0.00000000000E+00 0. -1.
        -13    1    3    3    0    0 -0.59178390229E+01  0.28132126582E+02  0.27305898989E+02  0.39649079236E+02  0.00000000000E+00 0.  1.
         13    1    3    3    0    0  0.19783754872E+02 -0.54372793673E+02  0.64273434219E+01  0.58216049266E+02  0.00000000000E+00 0. -1.
          1    1    1    2  501    0  0.21010273510E+02 -0.25788218861E+02  0.94524421351E+02  0.10020643720E+03  0.00000000000E+00 0. -1.
<scales pt_clust_5="13000.00000" pt_clust_6="13000.00000" pt_clust_7="13000.00000" pt_clust_8="13000.00000" pt_clust_9="33.26355"></scales>
<clustering>
<clus scale="   33.264">  1  9  2 -1</clus>
<clus scale="   86.941">  7  8 -1 -1</clus>
<clus scale="   93.083">  5  6 -1 -1</clus>
<clus scale="   95.366">  2  7  1 -1</clus>
<clus scale="   33.264">  1  5  2 -1</clus>
</clustering>
</event>
<event>
 9    1  0.1445593E-005  0.1159687E+03  0.7546771E-02  0.1252944E+00
         21   -1    0    0  501  502  0.00000000000E+00  0.00000000000E+00  0.96917867552E+02  0.96917867552E+02  0.00000000000E+00 0.  1.
          1   -1    0    0  502    0 -0.00000000000E+00 -0.00000000000E+00 -0.35095982537E+03  0.35095982537E+03  0.00000000000E+00 0. -1.
         23    2    1    2    0    0 -0.23802563984E+01 -0.58154886978E+02 -0.27079912540E+03  0.29160619324E+03  0.91183052787E+02 0.  0.
         23    2    1    2    0    0  0.22133243522E+02  0.72305584316E+02  0.30368282266E+02  0.12842037442E+03  0.99255135923E+02 0.  0.
        -13    1    4    4    0    0  0.18271073188E+02  0.20314825088E+02 -0.35258638969E+02  0.44606006947E+02  0.00000000000E+00 0. -1.
         13    1    4    4    0    0  0.38621703338E+01  0.51990759227E+02  0.65626921234E+02  0.83814367476E+02  0.00000000000E+00 0.  1.
        -13    1    3    3    0    0  0.39208702460E+02 -0.16984526842E+02 -0.16768276582E+03  0.17304134319E+03  0.00000000000E+00 0. -1.
         13    1    3    3    0    0 -0.41588958859E+02 -0.41170360136E+02 -0.10311635958E+03  0.11856485004E+03  0.00000000000E+00 0.  1.
          1    1    1    2  501    0 -0.19752987124E+02 -0.14150697338E+02 -0.13611114679E+02  0.27851125260E+02  0.00000000000E+00 0. -1.
<scales pt_clust_5="13000.00000" pt_clust_6="13000.00000" pt_clust_7="13000.00000" pt_clust_8="13000.00000" pt_clust_9="24.29862"></scales>
<clustering>
<clus scale="   24.299">  1  9  2 -1</clus>
<clus scale="   91.183">  7  8 -1 -1</clus>
<clus scale="   99.255">  5  6 -1 -1</clus>
<clus scale="  109.140">  2  7  1 -1</clus>
<clus scale="   24.299">  1  5  2 -1</clus>
</clustering>
</event>
<event>
 9    1  0.1445593E-005  0.1068718E+03  0.7546771E-02  0.1267501E+00
         21   -1    0    0  501  502  0.00000000000E+00  0.00000000000E+00  0.21878414806E+03  0.21878414806E+03  0.00000000000E+00 0. -1.
         -2   -1    0    0    0  501 -0.00000000000E+00 -0.00000000000E+00 -0.98677585044E+02  0.98677585044E+02  0.00000000000E+00 0.  1.
         23    2    1    2    0    0 -0.34925218181E+02 -0.21657333765E+02  0.12461859339E+02  0.10164305211E+03  0.92126006829E+02 0.  0.
         23    2    1    2    0    0  0.88934053551E+02  0.12284269069E+01  0.91183483553E+02  0.15577481118E+03  0.89669332621E+02 0.  0.
        -13    1    4    4    0    0  0.63065955069E+02  0.29674449701E+02  0.16272774104E+02  0.71572975562E+02  0.00000000000E+00 0.  1.
         13    1    4    4    0    0  0.25868098482E+02 -0.28446022794E+02  0.74910709449E+02  0.84201835621E+02  0.00000000000E+00 0. -1.
        -13    1    3    3    0    0 -0.30036504227E+02 -0.57394444051E+02  0.68699334079E+01  0.65142227312E+02  0.00000000000E+00 0.  1.
         13    1    3    3    0    0 -0.48887139541E+01  0.35737110286E+02  0.55919259313E+01  0.36500824803E+02  0.00000000000E+00 0. -1.
         -2    1    1    2    0  502 -0.54008835370E+02  0.20428906859E+02  0.16461220127E+02  0.60043869808E+02  0.00000000000E+00 0.  1.
<scales pt_clust_5="13000.00000" pt_clust_6="13000.00000" pt_clust_7="13000.00000" pt_clust_8="13000.00000" pt_clust_9="57.74338"></scales>
<clustering>
<clus scale="   57.743">  1  9  2 -1</clus>
<clus scale="   89.669">  5  6 -1 -1</clus>
<clus scale="   92.126">  7  8 -1 -1</clus>
<clus scale="  104.762">  1  5  2 -1</clus>
<clus scale="   57.743">  1  5  2 -1</clus>
</clustering>
</event>
<event>
 9    1  0.1445593E-005  0.9669612E+02  0.7546771E-02  0.1288339E+00
         -1   -1    0    0    0  501 -0.00000000000E+00  0.00000000000E+00  0.15945535456E+03  0.15945535456E+03  0.00000000000E+00 0.  1.
         21   -1    0    0  501  502  0.00000000000E+00 -0.00000000000E+00 -0.10560214094E+03  0.10560214094E+03  0.00000000000E+00 0. -1.
         23    2    1    2    0    0 -0.25401694255E+01 -0.37615832899E+02  0.81823031536E+02  0.12876311476E+03  0.91997434131E+02 0.  0.
         23    2    1    2    0    0  0.24849597773E+02  0.75274780602E+01 -0.90117933579E+01  0.94313118435E+02  0.90219656694E+02 0.  0.
        -13    1    4    4    0    0 -0.91890340987E+01  0.38594229687E+02  0.14919290953E+02  0.42385589006E+02  0.00000000000E+00 0.  1.
         13    1    4    4    0    0  0.34038631872E+02 -0.31066751627E+02 -0.23931084311E+02  0.51927529429E+02  0.00000000000E+00 0. -1.
        -13    1    3    3    0    0  0.33245720458E+02 -0.26098066743E+02  0.80763527525E+02  0.91154453510E+02  0.00000000000E+00 0. -1.
         13    1    3    3    0    0 -0.35785889884E+02 -0.11517766156E+02  0.10595040110E+01  0.37608661246E+02  0.00000000000E+00 0.  1.
         -1    1    1    2    0  502 -0.22309428347E+02  0.30088354839E+02 -0.18958024562E+02  0.41981262313E+02  0.00000000000E+00 0.  1.
<scales pt_clust_5="13000.00000" pt_clust_6="13000.00000" pt_clust_7="13000.00000" pt_clust_8="13000.00000" pt_clust_9="37.45690"></scales>
<clustering>
<clus scale="   37.457">  2  9  1 -1</clus>
<clus scale="   90.220">  5  6 -1 -1</clus>
<clus scale="   91.997">  7  8 -1 -1</clus>
<clus scale="   95.006">  2  5  1 -1</clus>
<clus scale="   37.457">  2  5  1 -1</clus>
</clustering>
</event>
<event>
 9    1  0.1445593E-005  0.2240217E+03  0.7546771E-02  0.1130978E+00
         21   -1    0    0  501  502  0.00000000000E+00  0.00000000000E+00  0.62742606181E+02  0.62742606181E+02  0.00000000000E+00 0.  1.
          1   -1    0    0  502    0 -0.00000000000E+00 -0.00000000000E+00 -0.12946162076E+04  0.12946162076E+04  0.00000000000E+00 0. -1.
         23    2    1    2    0    0  0.69644043452E+02 -0.20062108766E+03 -0.93177748278E+03  0.96002255093E+03  0.91295713422E+02 0.  0.
         23    2    1    2    0    0 -0.26024692639E+02  0.18142632614E+03 -0.19760740796E+03  0.28430961796E+03  0.90501241675E+02 0.  0.
        -11    1    3    3    0    0 -0.21217221929E+02 -0.21427375767E+02 -0.11283655006E+03  0.11679636111E+03  0.00000000000E+00 0.  1.
         11    1    3    3    0    0  0.90861265382E+02 -0.17919371189E+03 -0.81894093271E+03  0.84322618982E+03  0.00000000000E+00 0. -1.
        -11    1    4    4    0    0 -0.17908127717E+02  0.15454015901E+02  0.29708726770E+01  0.23840170517E+02  0.00000000000E+00 0.  1.
         11    1    4    4    0    0 -0.81165649214E+01  0.16597231023E+03 -0.20057828063E+03  0.26046944744E+03  0.00000000000E+00 0. -1.
          1    1    1    2  501    0 -0.43619350813E+02  0.19194761522E+02 -0.10248871065E+03  0.11302664485E+03  0.00000000000E+00 0. -1.
<scales pt_clust_5="13000.00000" pt_clust_6="13000.00000" pt_clust_7="13000.00000" pt_clust_8="13000.00000" pt_clust_9="47.65592"></scales>
<clustering>
<clus scale="   47.656">  1  9  2 -1</clus>
<clus scale="   90.501">  7  8 -1 -1</clus>
<clus scale="   91.296">  5  6 -1 -1</clus>
<clus scale="  223.699">  1  7  2 -1</clus>
<clus scale="   47.656">  1  5  2 -1</clus>
</clustering>
</event>
<event>
 9    1  0.1445593E-005  0.9531819E+02  0.7546771E-02  0.1290605E+00
         21   -1    0    0  501  502  0.00000000000E+00  0.00000000000E+00  0.19182262438E+03  0.19182262438E+03  0.00000000000E+00 0.  1.
         -1   -1    0    0    0  501 -0.00000000000E+00 -0.00000000000E+00 -0.12634280460E+03  0.12634280460E+03  0.00000000000E+00 0.  1.
         23    2    1    2    0    0  0.57686115629E+01 -0.30144104230E+02  0.33058625274E+00  0.95368600849E+02  0.90294611364E+02 0.  0.
         23    2    1    2    0    0 -0.60343229763E+02 -0.40048876998E+02  0.62183563880E+01  0.11612775180E+03  0.90563617717E+02 0.  0.
        -11    1    4    4    0    0  0.14857408188E+02  0.14744535976E+02  0.95835504890E+01  0.23021476042E+02  0.00000000000E+00 0. -1.
         11    1    4    4    0    0 -0.75200637950E+02 -0.54793412974E+02 -0.33651941010E+01  0.93106275754E+02  0.00000000000E+00 0.  1.
        -13    1    3    3    0    0 -0.24555341861E+02 -0.71231340588E+00  0.33574019436E+02  0.41601526238E+02  0.00000000000E+00 0. -1.
         13    1    3    3    0    0  0.30323953424E+02 -0.29431790824E+02 -0.33243433183E+02  0.53767074610E+02  0.00000000000E+00 0.  1.
         -1    1    1    2    0  502  0.54574618200E+02  0.70192981228E+02  0.58930877147E+02  0.10666907634E+03  0.00000000000E+00 0.  1.
<scales pt_clust_5="13000.00000" pt_clust_6="13000.00000" pt_clust_7="13000.00000" pt_clust_8="13000.00000" pt_clust_9="88.91256"></scales>
<clustering>
<clus scale="   88.913">  1  9  2 -1</clus>
<clus scale="   90.295">  7  8 -1 -1</clus>
<clus scale="   90.564">  5  6 -1 -1</clus>
<clus scale="   95.063">  2  7  1 -1</clus>
<clus scale="   88.913">  1  5  2 -1</clus>
</clustering>
</event>
<event>
 9    1  0.1445593E-005  0.3064611E+03  0.7546771E-02  0.1082188E+00
          2   -1    0    0  502    0 -0.00000000000E+00  0.00000000000E+00  0.14137564666E+04  0.14137564666E+04  0.00000000000E+00 0. -1.
         21   -1    0    0  501  502  0.00000000000E+00 -0.00000000000E+00 -0.16265517241E+03  0.16265517241E+03  0.00000000000E+00 0. -1.
         23    2    1    2    0    0  0.77512089299E+02 -0.28160023586E+03  0.90524518223E+03  0.95526529940E+03  0.88068924445E+02 0.  0.
         23    2    1    2    0    0 -0.22026203445E+03  0.23285885334E+03  0.33060405361E+03  0.46953534230E+03  0.91792091222E+02 0.  0.
        -11    1    4    4    0    0 -0.16412141783E+02  0.70810103932E+02  0.80732724979E+02  0.10863333788E+03  0.00000000000E+00 0.  1.
         11    1    4    4    0    0 -0.20384989266E+03  0.16204874941E+03  0.24987132863E+03  0.36090200442E+03  0.00000000000E+00 0. -1.
        -13    1    3    3    0    0  0.14057656183E+02 -0.53028911449E+02  0.30410721952E+03  0.30901599330E+03  0.00000000000E+00 0.  1.
         13    1    3    3    0    0  0.63454433116E+02 -0.22857132441E+03  0.60113796271E+03  0.64624930610E+03  0.00000000000E+00 0. -1.
          2    1    1    2  501    0  0.14274994515E+03  0.48741382522E+02  0.15252058305E+02  0.15161099727E+03  0.00000000000E+00 0. -1.
<scales pt_clust_5="13000.00000" pt_clust_6="13000.00000" pt_clust_7="13000.00000" pt_clust_8="13000.00000" pt_clust_9="150.84187"></scales>
<clustering>
<clus scale="   88.069">  7  8 -1 -1</clus>
<clus scale="   91.792">  5  6 -1 -1</clus>
<clus scale="  150.842">  2  9  1 -1</clus>
<clus scale="  305.367">  1  7  2 -1</clus>
<clus scale="  150.842">  2  5  1 -1</clus>
</clustering>
</event>
<event>
 9    1  0.1445593E-005  0.1041698E+03  0.7546771E-02  0.1274232E+00
          1   -1    0    0  502    0 -0.00000000000E+00  0.00000000000E+00  0.24796990774E+03  0.24796990774E+03  0.00000000000E+00 0. -1.
         21   -1    0    0  501  502  0.00000000000E+00 -0.00000000000E+00 -0.98027365817E+02  0.98027365817E+02  0.00000000000E+00 0.  1.
         23    2    1    2    0    0  0.51948480685E+02  0.39365135038E+02  0.17158465845E+03  0.20444661009E+03  0.90049224636E+02 0.  0.
         23    2    1    2    0    0 -0.22237511127E+02 -0.49663646589E+01  0.71829711394E+01  0.87727779910E+02  0.84412064390E+02 0.  0.
        -11    1    3    3    0    0  0.27135520864E+02 -0.26649874167E+02  0.82343414140E+02  0.90702757058E+02  0.00000000000E+00 0. -1.
         11    1    3    3    0    0  0.24812959820E+02  0.66015009204E+02  0.89241244314E+02  0.11374385303E+03  0.00000000000E+00 0.  1.
        -13    1    4    4    0    0 -0.17633019820E+02 -0.43924835374E+02  0.10072649546E+02  0.48391867286E+02  0.00000000000E+00 0. -1.
         13    1    4    4    0    0 -0.46044913072E+01  0.38958470715E+02 -0.28896784061E+01  0.39335912624E+02  0.00000000000E+00 0.  1.
          1    1    1    2  501    0 -0.29710969557E+02 -0.34398770379E+02 -0.28825087669E+02  0.53822883560E+02  0.00000000000E+00 0. -1.
<scales pt_clust_5="13000.00000" pt_clust_6="13000.00000" pt_clust_7="13000.00000" pt_clust_8="13000.00000" pt_clust_9="45.45346"></scales>
<clustering>
<clus scale="   45.453">  2  9  1 -1</clus>
<clus scale="   84.412">  7  8 -1 -1</clus>
<clus scale="   90.049">  5  6 -1 -1</clus>
<clus scale="   99.337">  2  7  1 -1</clus>
<clus scale="   45.453">  2  5  1 -1</clus>
</clustering>
</event>
<event>
 9    1  0.1445593E-005  0.1310423E+03  0.7546771E-02  0.1226227E+00
         -1   -1    0    0    0  501 -0.00000000000E+00  0.00000000000E+00  0.18812952141E+03  0.18812952141E+03  0.00000000000E+00 0.  1.
         21   -1    0    0  501  502  0.00000000000E+00 -0.00000000000E+00 -0.18358190723E+03  0.18358190723E+03  0.00000000000E+00 0. -1.
         23    2    1    2    0    0 -0.96907250260E+02 -0.40452819035E+01  0.11655156318E+03  0.17717896232E+03  0.91655541831E+02 0.  0.
         23    2    1    2    0    0  0.82104282891E+02  0.17746603817E+02 -0.57034375349E+02  0.13597900279E+03  0.90450616432E+02 0.  0.
        -13    1    3    3    0    0 -0.98976584295E+02  0.16689774962E+02  0.11957924662E+03  0.15612209661E+03  0.00000000000E+00 0.  1.
         13    1    3    3    0    0  0.20693340355E+01 -0.20735056865E+02 -0.30276834346E+01  0.21056865710E+02  0.00000000000E+00 0. -1.
        -13    1    4    4    0    0  0.48250356495E+02  0.15637898429E+02  0.17850188348E+02  0.53770530900E+02  0.00000000000E+00 0.  1.
         13    1    4    4    0    0  0.33853926396E+02  0.21087053880E+01 -0.74884563698E+02  0.82208471893E+02  0.00000000000E+00 0. -1.
         -1    1    1    2    0  502  0.14802967368E+02 -0.13701321913E+02 -0.54969573650E+02  0.58553463539E+02  0.00000000000E+00 0.  1.
<scales pt_clust_5="13000.00000" pt_clust_6="13000.00000" pt_clust_7="13000.00000" pt_clust_8="13000.00000" pt_clust_9="20.17062"></scales>
<clustering>
<clus scale="   20.171">  2  9  1 -1</clus>
<clus scale="   90.451">  7  8 -1 -1</clus>
<clus scale="   91.656">  5  6 -1 -1</clus>
<clus scale="  130.202">  2  7  1 -1</clus>
<clus scale="   20.171">  2  5  1 -1</clus>
</clustering>
</event>
<event>
 9    1  0.1445593E-005  0.1467701E+03  0.7546771E-02  0.1222783E+00
         21   -1    0    0  501  502  0.00000000000E+00  0.00000000000E+00  0.97085650422E+02  0.97085650422E+02  0.00000000000E+00 0.  1.
          1   -1    0    0  502    0 -0.00000000000E+00 -0.00000000000E+00 -0.41512505971E+03  0.41512505971E+03  0.00000000000E+00 0. -1.
         23    2    1    2    0    0 -0.22268937022E+02 -0.30120387207E+02 -0.15348577174E+03  0.18295138761E+03  0.92250662971E+02 0.  0.
         23    2    1    2    0    0 -0.10795936399E+02  0.13321890857E+03 -0.14798312086E+03  0.21972771528E+03  0.92289950488E+02 0.  0.
        -13    1    3    3    0    0  0.35689071789E+02 -0.19308940313E+02 -0.60362799540E+02  0.72733847619E+02  0.00000000000E+00 0. -1.
         13    1    3    3    0    0 -0.57958008811E+02 -0.10811446894E+02 -0.93122972203E+02  0.11021753999E+03  0.00000000000E+00 0.  1.
        -13    1    4    4    0    0  0.32275861255E+00  0.30862921115E+02  0.88596423715E+01  0.32111015802E+02  0.00000000000E+00 0.  1.
         13    1    4    4    0    0 -0.11118695012E+02  0.10235598746E+03 -0.15684276323E+03  0.18761669948E+03  0.00000000000E+00 0. -1.
          1    1    1    2  501    0  0.33064873422E+02 -0.10309852136E+03 -0.16570516688E+02  0.10953160724E+03  0.00000000000E+00 0. -1.
<scales pt_clust_5="13000.00000" pt_clust_6="13000.00000" pt_clust_7="13000.00000" pt_clust_8="13000.00000" pt_clust_9="114.12288"></scales>
<clustering>
<clus scale="   92.251">  5  6 -1 -1</clus>
<clus scale="   92.290">  7  8 -1 -1</clus>
<clus scale="   99.566">  2  5  1 -1</clus>
<clus scale="  114.123">  1  9  2 -1</clus>
<clus scale="  114.123">  1  5  2 -1</clus>
</clustering>
</event>
<event>
 9    1  0.1445593E-005  0.1274229E+03  0.7546771E-02  0.1231373E+00
          1   -1    0    0  502    0 -0.00000000000E+00  0.00000000000E+00  0.19103429564E+03  0.19103429564E+03  0.00000000000E+00 0. -1.
         21   -1    0    0  501  502  0.00000000000E+00 -0.00000000000E+00 -0.18647312488E+03  0.18647312488E+03  0.00000000000E+00 0.  1.
         23    2    1    2    0    0  0.73121971607E+02 -0.48333885127E+02  0.11361520544E+03  0.17000871106E+03  0.91167756063E+02 0.  0.
         23    2    1    2    0    0 -0.55765607682E+02  0.84165391531E+02 -0.75878371412E+02  0.15567434402E+03  0.91012955152E+02 0.  0.
        -11    1    3    3    0    0 -0.78526898302E+01  0.19377189511E+02  0.19474800842E+02  0.28572855628E+02  0.00000000000E+00 0.  1.
         11    1    3    3    0    0  0.80974661438E+02 -0.67711074638E+02  0.94140404598E+02  0.14143585543E+03  0.00000000000E+00 0. -1.
        -11    1    4    4    0    0 -0.25806091861E+02  0.45192994872E+02 -0.90493345822E+02  0.10439064518E+03  0.00000000000E+00 0.  1.
         11    1    4    4    0    0 -0.29959515822E+02  0.38972396659E+02  0.14614974410E+02  0.51283698839E+02  0.00000000000E+00 0. -1.
          1    1    1    2  501    0 -0.17356363925E+02 -0.35831506403E+02 -0.33175663268E+02  0.51824365439E+02  0.00000000000E+00 0. -1.
<scales pt_clust_5="13000.00000" pt_clust_6="13000.00000" pt_clust_7="13000.00000" pt_clust_8="13000.00000" pt_clust_9="39.81382"></scales>
<clustering>
<clus scale="   39.814">  2  9  1 -1</clus>
<clus scale="   91.013">  7  8 -1 -1</clus>
<clus scale="   91.168">  5  6 -1 -1</clus>
<clus scale="  127.312">  2  7  1 -1</clus>
<clus scale="   39.814">  2  5  1 -1</clus>
</clustering>
</event>
<event>
 9    1  0.1445593E-005  0.1039742E+03  0.7546771E-02  0.1272944E+00
          1   -1    0    0  502    0 -0.00000000000E+00  0.00000000000E+00  0.25123428575E+03  0.25123428575E+03  0.00000000000E+00 0. -1.
         21   -1    0    0  501  502  0.00000000000E+00 -0.00000000000E+00 -0.81648169603E+02  0.81648169603E+02  0.00000000000E+00 0. -1.
         23    2    1    2    0    0 -0.43893691258E+02  0.33483285896E+02  0.14121805735E+03  0.17656252030E+03  0.90465448028E+02 0.  0.
         23    2    1    2    0    0  0.35318075785E+02 -0.13236206248E+02  0.61097323586E+02  0.11689037522E+03  0.92238350135E+02 0.  0.
        -11    1    3    3    0    0 -0.19539938788E+02  0.62570559263E+02  0.10695217027E+03  0.12544182245E+03  0.00000000000E+00 0. -1.
         11    1    3    3    0    0 -0.24353752470E+02 -0.29087273367E+02  0.34265887077E+02  0.51120697849E+02  0.00000000000E+00 0.  1.
        -11    1    4    4    0    0 -0.24858662991E+02  0.17728183853E+02  0.10130551383E+02  0.32169390727E+02  0.00000000000E+00 0.  1.
         11    1    4    4    0    0  0.60176738776E+02 -0.30964390100E+02  0.50966772203E+02  0.84720984489E+02  0.00000000000E+00 0. -1.
          1    1    1    2  501    0  0.85756154729E+01 -0.20247079649E+02 -0.32729264790E+02  0.39429559835E+02  0.00000000000E+00 0. -1.
<scales pt_clust_5="13000.00000" pt_clust_6="13000.00000" pt_clust_7="13000.00000" pt_clust_8="13000.00000" pt_clust_9="21.98830"></scales>
<clustering>
<clus scale="   21.988">  2  9  1 -1</clus>
<clus scale="   90.465">  5  6 -1 -1</clus>
<clus scale="   92.238">  7  8 -1 -1</clus>
<clus scale="  102.405">  1  5  2 -1</clus>
<clus scale="   21.988">  2  5  1 -1</clus>
</clustering>
</event>
<event>
 9    1  0.1445593E-005  0.2171967E+03  0.7546771E-02  0.1136228E+00
         21   -1    0    0  501  502  0.00000000000E+00  0.00000000000E+00  0.22545474739E+03  0.22545474739E+03  0.00000000000E+00 0.  1.
          1   -1    0    0  502    0 -0.00000000000E+00 -0.00000000000E+00 -0.57859596767E+03  0.57859596767E+03  0.00000000000E+00 0. -1.
         23    2    1    2    0    0 -0.19864486162E+03  0.11834242135E+02 -0.42832789171E+03  0.48095274925E+03  0.90834651211E+02 0.  0.
         23    2    1    2    0    0  0.18393724250E+03 -0.29149802804E+02 -0.34273487887E+02  0.21130499118E+03  0.93768369632E+02 0.  0.
        -13    1    4    4    0    0  0.14239129145E+03  0.17572710664E+02 -0.86388761091E+01  0.14373138217E+03  0.00000000000E+00 0.  1.
         13    1    4    4    0    0  0.41545951055E+02 -0.46722513469E+02 -0.25634611777E+02  0.67573609012E+02  0.00000000000E+00 0. -1.
        -13    1    3    3    0    0 -0.32855149069E+02 -0.29821831330E+02 -0.57573227377E+02  0.72687543326E+02  0.00000000000E+00 0.  1.
         13    1    3    3    0    0 -0.16578971255E+03  0.41656073465E+02 -0.37075466433E+03  0.40826520592E+03  0.00000000000E+00 0. -1.
          1    1    1    2  501    0  0.14707619114E+02  0.17315560669E+02  0.10946015932E+03  0.11179297464E+03  0.00000000000E+00 0. -1.
<scales pt_clust_5="13000.00000" pt_clust_6="13000.00000" pt_clust_7="13000.00000" pt_clust_8="13000.00000" pt_clust_9="22.71877"></scales>
<clustering>
<clus scale="   22.719">  1  9  2 -1</clus>
<clus scale="   90.835">  7  8 -1 -1</clus>
<clus scale="   93.768">  5  6 -1 -1</clus>
<clus scale="  215.946">  2  7  1 -1</clus>
<clus scale="   22.719">  1  5  2 -1</clus>
</clustering>
</event>
<event>
 9    1  0.1445593E-005  0.9730807E+02  0.7546771E-02  0.1288687E+00
         -1   -1    0    0    0  501 -0.00000000000E+00  0.00000000000E+00  0.35549383806E+03  0.35549383806E+03  0.00000000000E+00 0.  1.
         21   -1    0    0  501  502  0.00000000000E+00 -0.00000000000E+00 -0.70504178164E+02  0.70504178164E+02  0.00000000000E+00 0. -1.
         23    2    1    2    0    0 -0.38652372431E+02  0.22051648679E+02  0.21305198675E+03  0.23658844433E+03  0.92750535458E+02 0.  0.
         23    2    1    2    0    0  0.74664810684E+01 -0.54718831560E+01  0.10761505707E+03  0.13920674160E+03  0.87817006069E+02 0.  0.
        -11    1    3    3    0    0  0.26137195536E+02  0.27331867735E+02  0.74786207351E+02  0.83804300572E+02  0.00000000000E+00 0.  1.
         11    1    3    3    0    0 -0.64789567967E+02 -0.52802190565E+01  0.13826577940E+03  0.15278414376E+03  0.00000000000E+00 0. -1.
        -11    1    4    4    0    0  0.38505819278E+02 -0.76586905997E+01  0.99623938243E+02  0.10708072997E+03  0.00000000000E+00 0.  1.
         11    1    4    4    0    0 -0.31039338210E+02  0.21868074437E+01  0.79911188257E+01  0.32126011632E+02  0.00000000000E+00 0. -1.
         -1    1    1    2    0  502  0.31185891363E+02 -0.16579765523E+02 -0.35677383928E+02  0.50202830287E+02  0.00000000000E+00 0.  1.
<scales pt_clust_5="13000.00000" pt_clust_6="13000.00000" pt_clust_7="13000.00000" pt_clust_8="13000.00000" pt_clust_9="35.31924"></scales>
<clustering>
<clus scale="   35.319">  2  9  1 -1</clus>
<clus scale="   87.817">  7  8 -1 -1</clus>
<clus scale="   92.618">  2  7  1 -1</clus>
<clus scale="   92.751">  5  6 -1 -1</clus>
<clus scale="   35.319">  2  5  1 -1</clus>
</clustering>
</event>
<event>
 9    1  0.1445593E-005  0.9472370E+02  0.7546771E-02  0.1292684E+00
          1   -1    0    0  502    0 -0.00000000000E+00  0.00000000000E+00  0.15189729215E+03  0.15189729215E+03  0.00000000000E+00 0. -1.
         21   -1    0    0  501  502  0.00000000000E+00 -0.00000000000E+00 -0.81858202725E+02  0.81858202725E+02  0.00000000000E+00 0.  1.
         23    2    1    2    0    0 -0.97391178621E+01  0.20404003183E+02  0.69614852422E+02  0.11798446870E+03  0.92536119515E+02 0.  0.
         23    2    1    2    0    0  0.22804240264E+02 -0.28287019903E+01 -0.11767021348E+01  0.93813074500E+02  0.90947640928E+02 0.  0.
        -11    1    3    3    0    0  0.37556089844E+02  0.22657377623E+02  0.50590010778E+02  0.66956447305E+02  0.00000000000E+00 0. -1.
         11    1    3    3    0    0 -0.47295207706E+02 -0.22533744406E+01  0.19024841643E+02  0.51028021399E+02  0.00000000000E+00 0.  1.
        -13    1    4    4    0    0 -0.42205369909E+01 -0.42871758205E+02 -0.11120143233E+02  0.44491102140E+02  0.00000000000E+00 0.  1.
         13    1    4    4    0    0  0.27024777255E+02  0.40043056215E+02  0.99434410983E+01  0.49321972361E+02  0.00000000000E+00 0. -1.
          1    1    1    2  501    0 -0.13065122402E+02 -0.17575301193E+02  0.16009391362E+01  0.21957951669E+02  0.00000000000E+00 0. -1.
<scales pt_clust_5="13000.00000" pt_clust_6="13000.00000" pt_clust_7="13000.00000" pt_clust_8="13000.00000" pt_clust_9="21.89951"></scales>
<clustering>
<clus scale="   21.900">  2  9  1 -1</clus>
<clus scale="   90.948">  7  8 -1 -1</clus>
<clus scale="   92.536">  5  6 -1 -1</clus>
<clus scale="   93.173">  2  7  1 -1</clus>
<clus scale="   21.900">  2  5  1 -1</clus>
</clustering>
</event>
<event>
 9    1  0.1445593E-005  0.1142405E+03  0.7546771E-02  0.1253167E+00
         21   -1    0    0  501  502  0.00000000000E+00  0.00000000000E+00  0.23529221694E+03  0.23529221694E+03  0.00000000000E+00 0. -1.
         -1   -1    0    0    0  501 -0.00000000000E+00 -0.00000000000E+00 -0.10363296658E+03  0.10363296658E+03  0.00000000000E+00 0.  1.
         23    2    1    2    0    0 -0.57801296861E+02 -0.44251740861E+02 -0.33762216399E+02  0.12051497601E+03  0.89915325158E+02 0.  0.
         23    2    1    2    0    0  0.37661471326E+02  0.49397534314E+02  0.95899039544E+02  0.14584672048E+03  0.90642910764E+02 0.  0.
        -11    1    3    3    0    0  0.19260766059E+02 -0.21021012766E+02 -0.27777814591E+02  0.39805364844E+02  0.00000000000E+00 0. -1.
         11    1    3    3    0    0 -0.77062062920E+02 -0.23230728095E+02 -0.59844018073E+01  0.80709611165E+02  0.00000000000E+00 0.  1.
        -11    1    4    4    0    0  0.14784299175E+02 -0.13745329501E+02 -0.83434671983E+01  0.21843146067E+02  0.00000000000E+00 0.  1.
         11    1    4    4    0    0  0.22877172150E+02  0.63142863815E+02  0.10424250674E+03  0.12400357442E+03  0.00000000000E+00 0. -1.
         -1    1    1    2    0  502  0.20139825535E+02 -0.51457934528E+01  0.69522427215E+02  0.72563487022E+02  0.00000000000E+00 0.  1.
<scales pt_clust_5="13000.00000" pt_clust_6="13000.00000" pt_clust_7="13000.00000" pt_clust_8="13000.00000" pt_clust_9="20.78682"></scales>
<clustering>
<clus scale="   20.787">  1  9  2 -1</clus>
<clus scale="   89.915">  5  6 -1 -1</clus>
<clus scale="   90.643">  7  8 -1 -1</clus>
<clus scale="  113.664">  2  5  1 -1</clus>
<clus scale="   20.787">  1  5  2 -1</clus>
</clustering>
</event>
<event>
 9    1  0.1482387E-005  0.9739160E+02  0.7546771E-02  0.1286676E+00
         21   -1    0    0  501  502  0.00000000000E+00  0.00000000000E+00  0.44246366218E+03  0.44246366218E+03  0.00000000000E+00 0. -1.
          1   -1    0    0  502    0 -0.00000000000E+00 -0.00000000000E+00 -0.12217269860E+03  0.12217269860E+03  0.00000000000E+00 0. -1.
         23    2    1    2    0    0  0.26534920593E+02 -0.34503545344E+02 -0.75233504571E+02  0.12403460258E+03  0.88486754795E+02 0.  0.
         23    2    1    2    0    0 -0.33949564094E+02 -0.29233609571E+02  0.11478037012E+03  0.15261799055E+03  0.90058541200E+02 0.  0.
        -13    1    4    4    0    0 -0.14123969770E+02  0.32554082909E+02  0.35930711101E+02  0.50500206300E+02  0.00000000000E+00 0.  1.
         13    1    4    4    0    0 -0.19825594324E+02 -0.61787692479E+02  0.78849659023E+02  0.10211778425E+03  0.00000000000E+00 0. -1.
        -13    1    3    3    0    0 -0.49214690410E+01  0.26403273811E+02 -0.36440707867E+02  0.45268961942E+02  0.00000000000E+00 0.  1.
         13    1    3    3    0    0  0.31456389635E+02 -0.60906819156E+02 -0.38792796704E+02  0.78765640635E+02  0.00000000000E+00 0. -1.
          1    1    1    2  501    0  0.74146435008E+01  0.63737154915E+02  0.28074409803E+03  0.28798376765E+03  0.00000000000E+00 0. -1.
<scales pt_clust_5="13000.00000" pt_clust_6="13000.00000" pt_clust_7="13000.00000" pt_clust_8="13000.00000" pt_clust_9="64.16698"></scales>
<clustering>
<clus scale="   64.167">  1  9  2 -1</clus>
<clus scale="   88.487">  7  8 -1 -1</clus>
<clus scale="   90.059">  5  6 -1 -1</clus>
<clus scale="   95.940">  2  7  1 -1</clus>
<clus scale="   64.167">  1  5  2 -1</clus>
</clustering>
</event>
<event>
 9    1  0.1445593E-005  0.9468022E+02  0.7546771E-02  0.1292342E+00
         21   -1    0    0  501  502  0.00000000000E+00  0.00000000000E+00  0.10730759689E+03  0.10730759689E+03  0.00000000000E+00 0. -1.
         -1   -1    0    0    0  501 -0.00000000000E+00 -0.00000000000E+00 -0.15074303870E+03  0.15074303870E+03  0.00000000000E+00 0.  1.
         23    2    1    2    0    0  0.24939936184E+02  0.16932859318E+02 -0.53232472195E+02  0.11021255088E+03  0.91675450008E+02 0.  0.
         23    2    1    2    0    0  0.89077919804E+00 -0.22972561701E+02 -0.31389381644E+02  0.98848040840E+02  0.90868640461E+02 0.  0.
        -11    1    3    3    0    0  0.33922388965E+01 -0.29492647084E+02  0.76672971957E+01  0.30661228988E+02  0.00000000000E+00 0.  1.
         11    1    3    3    0    0  0.21547697287E+02  0.46425506403E+02 -0.60899769390E+02  0.79551321893E+02  0.00000000000E+00 0. -1.
        -11    1    4    4    0    0 -0.30789322117E+02 -0.10886530107E+02 -0.50339471643E+02  0.60004677314E+02  0.00000000000E+00 0.  1.
         11    1    4    4    0    0  0.31680101315E+02 -0.12086031593E+02  0.18950090000E+02  0.38843363526E+02  0.00000000000E+00 0. -1.
         -1    1    1    2    0  502 -0.25830715382E+02  0.60397023825E+01  0.41186412032E+02  0.48990043866E+02  0.00000000000E+00 0.  1.
<scales pt_clust_5="13000.00000" pt_clust_6="13000.00000" pt_clust_7="13000.00000" pt_clust_8="13000.00000" pt_clust_9="26.52742"></scales>
<clustering>
<clus scale="   26.527">  1  9  2 -1</clus>
<clus scale="   90.869">  7  8 -1 -1</clus>
<clus scale="   91.675">  5  6 -1 -1</clus>
<clus scale="   93.899">  1  7  2 -1</clus>
<clus scale="   26.527">  1  5  2 -1</clus>
</clustering>
</event>
<event>
 9    1  0.1540859E-005  0.1137560E+03  0.7546771E-02  0.1254474E+00
         21   -1    0    0  501  502  0.00000000000E+00  0.00000000000E+00  0.47580320186E+03  0.47580320186E+03  0.00000000000E+00 0. -1.
          3   -1    0    0  502    0 -0.00000000000E+00 -0.00000000000E+00 -0.14837813280E+03  0.14837813280E+03  0.00000000000E+00 0. -1.
         23    2    1    2    0    0  0.50236232382E+02 -0.33865060812E+02 -0.94917655492E+02  0.14499194568E+03  0.91338828548E+02 0.  0.
         23    2    1    2    0    0 -0.11918074756E+03  0.41543984212E+02  0.29838205532E+03  0.33713813219E+03  0.93275484593E+02 0.  0.
        -11    1    3    3    0    0  0.71817052088E+02 -0.15776004218E+02 -0.90310268939E+02  0.11645821549E+03  0.00000000000E+00 0. -1.
         11    1    3    3    0    0 -0.21580819706E+02 -0.18089056594E+02 -0.46073865536E+01  0.28533730189E+02  0.00000000000E+00 0.  1.
        -11    1    4    4    0    0 -0.34090682500E+02  0.24424805406E+02  0.21816171767E+02  0.47272519533E+02  0.00000000000E+00 0.  1.
         11    1    4    4    0    0 -0.85090065057E+02  0.17119178807E+02  0.27656588356E+03  0.28986561266E+03  0.00000000000E+00 0. -1.
          3    1    1    2  501    0  0.68944515175E+02 -0.76789234002E+01  0.12396066923E+03  0.14205125678E+03  0.00000000000E+00 0. -1.
<scales pt_clust_5="13000.00000" pt_clust_6="13000.00000" pt_clust_7="13000.00000" pt_clust_8="13000.00000" pt_clust_9="69.37083"></scales>
<clustering>
<clus scale="   69.371">  1  9  2 -1</clus>
<clus scale="   91.339">  5  6 -1 -1</clus>
<clus scale="   93.275">  7  8 -1 -1</clus>
<clus scale="  112.174">  2  5  1 -1</clus>
<clus scale="   69.371">  1  5  2 -1</clus>
</clustering>
</event>
<event>
 9    1  0.1445593E-005  0.1072074E+03  0.7546771E-02  0.1267589E+00
          1   -1    0    0  502    0 -0.00000000000E+00  0.00000000000E+00  0.10617770911E+04  0.10617770911E+04  0.00000000000E+00 0. -1.
         21   -1    0    0  501  502  0.00000000000E+00 -0.00000000000E+00 -0.28366313616E+02  0.28366313616E+02  0.00000000000E+00 0.  1.
         23    2    1    2    0    0  0.41355654799E+02  0.16364114039E+02  0.59325269395E+03  0.60253523436E+03  0.95508509315E+02 0.  0.
         23    2    1    2    0    0 -0.65421178614E+02  0.54476951231E+02  0.34255880531E+03  0.36463164789E+03  0.91444161780E+02 0.  0.
        -11    1    3    3    0    0 -0.16504896549E+02 -0.27952995214E+02  0.17866254725E+03  0.18158768499E+03  0.00000000000E+00 0.  1.
         11    1    3    3    0    0  0.57860551348E+02  0.44317109253E+02  0.41459014670E+03  0.42094754937E+03  0.00000000000E+00 0. -1.
        -13    1    4    4    0    0 -0.22701799231E+02  0.75062237357E+00  0.95801380267E+01  0.24651859299E+02  0.00000000000E+00 0.  1.
         13    1    4    4    0    0 -0.42719379383E+02  0.53726328858E+02  0.33297866728E+03  0.33997978859E+03  0.00000000000E+00 0. -1.
          1    1    1    2  501    0  0.24065523815E+02 -0.70841065271E+02  0.97599278180E+02  0.12297652242E+03  0.00000000000E+00 0. -1.
<scales pt_clust_5="13000.00000" pt_clust_6="13000.00000" pt_clust_7="13000.00000" pt_clust_8="13000.00000" pt_clust_9="74.81715"></scales>
<clustering>
<clus scale="   74.817">  2  9  1 -1</clus>
<clus scale="   91.444">  7  8 -1 -1</clus>
<clus scale="   95.509">  5  6 -1 -1</clus>
<clus scale="  103.603">  2  7  1 -1</clus>
<clus scale="   74.817">  2  5  1 -1</clus>
</clustering>
</event>
<event>
 9    1  0.1445593E-005  0.1096527E+03  0.7546771E-02  0.1261602E+00
         21   -1    0    0  501  502  0.00000000000E+00  0.00000000000E+00  0.41808167459E+02  0.41808167459E+02  0.00000000000E+00 0.  1.
          3   -1    0    0  502    0 -0.00000000000E+00 -0.00000000000E+00 -0.38792178842E+03  0.38792178842E+03  0.00000000000E+00 0. -1.
         23    2    1    2    0    0 -0.51406604444E+02 -0.17899193120E+02 -0.18871466384E+03  0.21661776138E+03  0.91361972960E+02 0.  0.
         23    2    1    2    0    0  0.59274445593E+02  0.42730211093E+02 -0.11598333782E+03  0.16418637411E+03  0.90364262583E+02 0.  0.
        -11    1    3    3    0    0 -0.73250652779E+02 -0.30797690762E+02 -0.12596162039E+03  0.14893114416E+03  0.00000000000E+00 0. -1.
         11    1    3    3    0    0  0.21844048335E+02  0.12898497642E+02 -0.62753043449E+02  0.67686617224E+02  0.00000000000E+00 0.  1.
        -11    1    4    4    0    0 -0.20544176088E+02  0.26144269891E+02 -0.45907942782E+02  0.56684435515E+02  0.00000000000E+00 0. -1.
         11    1    4    4    0    0  0.79818621681E+02  0.16585941202E+02 -0.70075395036E+02  0.10750193860E+03  0.00000000000E+00 0.  1.
          3    1    1    2  501    0 -0.78678411494E+01 -0.24831017973E+02 -0.41415619302E+02  0.48925820383E+02  0.00000000000E+00 0. -1.
<scales pt_clust_5="13000.00000" pt_clust_6="13000.00000" pt_clust_7="13000.00000" pt_clust_8="13000.00000" pt_clust_9="26.04771"></scales>
<clustering>
<clus scale="   26.048">  1  9  2 -1</clus>
<clus scale="   90.364">  7  8 -1 -1</clus>
<clus scale="   91.362">  5  6 -1 -1</clus>
<clus scale="  108.823">  1  7  2 -1</clus>
<clus scale="   26.048">  1  5  2 -1</clus>
</clustering>
</event>
<event>
 9    1  0.1445593E-005  0.1292869E+03  0.7546771E-02  0.1228933E+00
          4   -1    0    0  502    0 -0.00000000000E+00  0.00000000000E+00  0.26880778190E+03  0.26880778190E+03  0.00000000000E+00 0. -1.
         21   -1    0    0  501  502  0.00000000000E+00 -0.00000000000E+00 -0.81701323165E+02  0.81701323165E+02  0.00000000000E+00 0. -1.
         23    2    1    2    0    0 -0.17222016543E+01  0.88718894809E+02  0.13115015382E+03  0.18315012472E+03  0.92030413799E+02 0.  0.
         23    2    1    2    0    0 -0.21049157913E+02 -0.94224981016E+02  0.37462494638E+02  0.13751148765E+03  0.90468539468E+02 0.  0.
        -11    1    4    4    0    0  0.32138023101E+02 -0.14615930013E+02  0.18262580149E+01  0.35352696606E+02  0.00000000000E+00 0.  1.
         11    1    4    4    0    0 -0.53187181015E+02 -0.79609051003E+02  0.35636236623E+02  0.10215879104E+03  0.00000000000E+00 0. -1.
        -11    1    3    3    0    0 -0.39025656052E+02  0.17869983575E+02  0.71150703777E+02  0.83094890283E+02  0.00000000000E+00 0.  1.
         11    1    3    3    0    0  0.37303454398E+02  0.70848911234E+02  0.59999450043E+02  0.10005523444E+03  0.00000000000E+00 0. -1.
          4    1    1    2  501    0  0.22771359568E+02  0.55060862074E+01  0.18493810282E+02  0.29847492702E+02  0.00000000000E+00 0. -1.
<scales pt_clust_5="13000.00000" pt_clust_6="13000.00000" pt_clust_7="13000.00000" pt_clust_8="13000.00000" pt_clust_9="23.42760"></scales>
<clustering>
<clus scale="   23.428">  2  9  1 -1</clus>
<clus scale="   90.469">  5  6 -1 -1</clus>
<clus scale="   92.030">  7  8 -1 -1</clus>
<clus scale="  128.180">  2  5  1 -1</clus>
<clus scale="   23.428">  2  5  1 -1</clus>
</clustering>
</event>
<event>
 9    1  0.1445593E-005  0.1766820E+03  0.7546771E-02  0.1171299E+00
          1   -1    0    0  502    0 -0.00000000000E+00  0.00000000000E+00  0.31942496993E+03  0.31942496993E+03  0.00000000000E+00 0. -1.
         21   -1    0    0  501  502  0.00000000000E+00 -0.00000000000E+00 -0.17113528095E+03  0.17113528095E+03  0.00000000000E+00 0. -1.
         23    2    1    2    0    0 -0.33545669453E+02  0.12815092382E+03  0.79295834684E+02  0.17856732874E+03  0.89724524394E+02 0.  0.
         23    2    1    2    0    0  0.12198942951E+03 -0.14380164238E+03  0.73203781728E+02  0.22207647662E+03  0.91645155607E+02 0.  0.
        -11    1    4    4    0    0  0.33531441938E+02 -0.10020536663E+03  0.62779226532E+02  0.12290933400E+03  0.00000000000E+00 0.  1.
         11    1    4    4    0    0  0.88457987577E+02 -0.43596275746E+02  0.10424555196E+02  0.99167142624E+02  0.00000000000E+00 0. -1.
        -11    1    3    3    0    0 -0.32466818156E+02  0.17615613817E+01  0.81300255600E+01  0.33515588840E+02  0.00000000000E+00 0.  1.
         11    1    3    3    0    0 -0.10788512973E+01  0.12638936244E+03  0.71165809124E+02  0.14505173990E+03  0.00000000000E+00 0. -1.
          1    1    1    2  501    0 -0.88443760062E+02  0.15650718555E+02 -0.42099274296E+01  0.89916445515E+02  0.00000000000E+00 0. -1.
<scales pt_clust_5="13000.00000" pt_clust_6="13000.00000" pt_clust_7="13000.00000" pt_clust_8="13000.00000" pt_clust_9="89.81784"></scales>
<clustering>
<clus scale="   89.725">  7  8 -1 -1</clus>
<clus scale="   89.818">  2  9  1 -1</clus>
<clus scale="   91.645">  5  6 -1 -1</clus>
<clus scale="  175.693">  1  7  2 -1</clus>
<clus scale="   89.818">  2  5  1 -1</clus>
</clustering>
</event>
<event>
 9    1  0.1445593E-005  0.1043974E+03  0.7546771E-02  0.1271441E+00
          4   -1    0    0  502    0 -0.00000000000E+00  0.00000000000E+00  0.43445350241E+02  0.43445350241E+02  0.00000000000E+00 0. -1.
         21   -1    0    0  501  502  0.00000000000E+00 -0.00000000000E+00 -0.54319859417E+03  0.54319859417E+03  0.00000000000E+00 0. -1.
         23    2    1    2    0    0 -0.46947459847E+02 -0.37924785138E+02 -0.78920752243E+02  0.13401654316E+03  0.89942178056E+02 0.  0.
         23    2    1    2    0    0  0.51824153223E+02 -0.11137889821E+02 -0.19079191903E+03  0.21736245851E+03  0.89638644321E+02 0.  0.
        -11    1    4    4    0    0  0.14707504167E+02 -0.45566127813E+02 -0.12826298263E+03  0.13690863886E+03  0.00000000000E+00 0. -1.
         11    1    4    4    0    0  0.37116649056E+02  0.34428237991E+02 -0.62528936402E+02  0.80453819648E+02  0.00000000000E+00 0.  1.
        -11    1    3    3    0    0 -0.38090070610E+02 -0.58674321236E+02 -0.85542775774E+02  0.11050382771E+03  0.00000000000E+00 0. -1.
         11    1    3    3    0    0 -0.88573892368E+01  0.20749536098E+02  0.66220235310E+01  0.23512715454E+02  0.00000000000E+00 0.  1.
          4    1    1    2  501    0 -0.48766933756E+01  0.49062674959E+02 -0.23004057265E+03  0.23526494273E+03  0.00000000000E+00 0. -1.
<scales pt_clust_5="13000.00000" pt_clust_6="13000.00000" pt_clust_7="13000.00000" pt_clust_8="13000.00000" pt_clust_9="49.30444"></scales>
<clustering>
<clus scale="   49.304">  2  9  1 -1</clus>
<clus scale="   89.639">  5  6 -1 -1</clus>
<clus scale="   89.942">  7  8 -1 -1</clus>
<clus scale="  104.136">  2  5  1 -1</clus>
<clus scale="   49.304">  2  5  1 -1</clus>
</clustering>
</event>
<event>
 9    1  0.1445593E-005  0.2020720E+03  0.7546771E-02  0.1148246E+00
          1   -1    0    0  502    0 -0.00000000000E+00  0.00000000000E+00  0.10585947086E+03  0.10585947086E+03  0.00000000000E+00 0. -1.
         21   -1    0    0  501  502  0.00000000000E+00 -0.00000000000E+00 -0.79099452619E+03  0.79099452619E+03  0.00000000000E+00 0. -1.
         23    2    1    2    0    0 -0.11196080718E+03  0.41358975023E+02 -0.23468573209E+03  0.27857795398E+03  0.91008221845E+02 0.  0.
         23    2    1    2    0    0  0.25635081543E+03 -0.15965030784E+02 -0.24442762043E+03  0.36541586646E+03  0.88392709257E+02 0.  0.
        -13    1    4    4    0    0  0.24974812588E+03  0.48279265244E+01 -0.22601461711E+03  0.33686798958E+03  0.00000000000E+00 0. -1.
         13    1    4    4    0    0  0.66026895463E+01 -0.20792957308E+02 -0.18413003322E+02  0.28547876877E+02  0.00000000000E+00 0.  1.
        -13    1    3    3    0    0 -0.75677173492E+02  0.25419584815E+01 -0.20311991126E+03  0.21677452454E+03  0.00000000000E+00 0.  1.
         13    1    3    3    0    0 -0.36283633683E+02  0.38817016541E+02 -0.31565820828E+02  0.61803429443E+02  0.00000000000E+00 0. -1.
          1    1    1    2  501    0 -0.14439000825E+03 -0.25393944239E+02 -0.20602170282E+03  0.25286017662E+03  0.00000000000E+00 0. -1.
<scales pt_clust_5="13000.00000" pt_clust_6="13000.00000" pt_clust_7="13000.00000" pt_clust_8="13000.00000" pt_clust_9="146.60603"></scales>
<clustering>
<clus scale="   88.393">  5  6 -1 -1</clus>
<clus scale="   91.008">  7  8 -1 -1</clus>
<clus scale="  146.606">  2  9  1 -1</clus>
<clus scale="  200.908">  2  5  1 -1</clus>
<clus scale="  146.606">  2  5  1 -1</clus>
</clustering>
</event>
<event>
 9    1  0.1445593E-005  0.1001307E+03  0.7546771E-02  0.1285124E+00
         21   -1    0    0  501  502  0.00000000000E+00  0.00000000000E+00  0.19953615281E+03  0.19953615281E+03  0.00000000000E+00 0. -1.
          2   -1    0    0  502    0 -0.00000000000E+00 -0.00000000000E+00 -0.64788205924E+02  0.64788205924E+02  0.00000000000E+00 0.  1.
         23    2    1    2    0    0  0.16448406228E+02 -0.14747885736E+02  0.25387500235E+02  0.95040445104E+02  0.88882567673E+02 0.  0.
         23    2    1    2    0    0 -0.20859538818E+02 -0.84652154571E+01  0.67940560580E+02  0.12159834852E+03  0.98302890896E+02 0.  0.
        -13    1    3    3    0    0  0.96500964632E+01  0.33448003964E+02  0.30258250472E+02  0.46124343383E+02  0.00000000000E+00 0.  1.
         13    1    3    3    0    0  0.67983097647E+01 -0.48195889700E+02 -0.48707502370E+01  0.48916101720E+02  0.00000000000E+00 0. -1.
        -13    1    4    4    0    0  0.33826163956E+02  0.69137983723E+01  0.20295156128E+01  0.34585096639E+02  0.00000000000E+00 0.  1.
         13    1    4    4    0    0 -0.54685702774E+02 -0.15379013829E+02  0.65911044968E+02  0.87013251881E+02  0.00000000000E+00 0. -1.
          2    1    1    2  501    0  0.44111325899E+01  0.23213101193E+02  0.41419886068E+02  0.47685565107E+02  0.00000000000E+00 0.  1.
<scales pt_clust_5="13000.00000" pt_clust_6="13000.00000" pt_clust_7="13000.00000" pt_clust_8="13000.00000" pt_clust_9="23.62850"></scales>
<clustering>
<clus scale="   23.629">  1  9  2 -1</clus>
<clus scale="   88.883">  5  6 -1 -1</clus>
<clus scale="   90.900">  2  5  1 -1</clus>
<clus scale="   98.303">  7  8 -1 -1</clus>
<clus scale="   23.629">  1  5  2 -1</clus>
</clustering>
</event>
<event>
 9    1  0.1445593E-005  0.1485768E+03  0.7546771E-02  0.1203082E+00
         21   -1    0    0  501  502  0.00000000000E+00  0.00000000000E+00  0.12642292154E+03  0.12642292154E+03  0.00000000000E+00 0. -1.
          3   -1    0    0  502    0 -0.00000000000E+00 -0.00000000000E+00 -0.37637827984E+03  0.37637827984E+03  0.00000000000E+00 0. -1.
         23    2    1    2    0    0 -0.90072925494E+02  0.99992384267E+02 -0.20072770084E+03  0.25953636073E+03  0.94635637265E+02 0.  0.
         23    2    1    2    0    0  0.62200666139E+02 -0.70326873602E+02 -0.10973257427E+03  0.17034193394E+03  0.90334625609E+02 0.  0.
        -11    1    3    3    0    0 -0.26837830682E+01  0.60715385795E+02 -0.41114950067E+02  0.73375744513E+02  0.00000000000E+00 0.  1.
         11    1    3    3    0    0 -0.87389142426E+02  0.39276998471E+02 -0.15961275077E+03  0.18616061622E+03  0.00000000000E+00 0. -1.
        -13    1    4    4    0    0  0.23414472663E+02 -0.83090775699E+02 -0.56177199027E+02  0.10299607870E+03  0.00000000000E+00 0.  1.
         13    1    4    4    0    0  0.38786193476E+02  0.12763902098E+02 -0.53555375242E+02  0.67345855243E+02  0.00000000000E+00 0. -1.
          3    1    1    2  501    0  0.27872259355E+02 -0.29665510665E+02  0.60504916805E+02  0.72922906704E+02  0.00000000000E+00 0. -1.
<scales pt_clust_5="13000.00000" pt_clust_6="13000.00000" pt_clust_7="13000.00000" pt_clust_8="13000.00000" pt_clust_9="40.70510"></scales>
<clustering>
<clus scale="   40.705">  1  9  2 -1</clus>
<clus scale="   90.335">  7  8 -1 -1</clus>
<clus scale="   94.636">  5  6 -1 -1</clus>
<clus scale="  145.875">  1  7  2 -1</clus>
<clus scale="   40.705">  1  5  2 -1</clus>
</clustering>
</event>
<event>
 9    1  0.1445593E-005  0.1232788E+03  0.7546771E-02  0.1237953E+00
          3   -1    0    0  502    0 -0.00000000000E+00  0.00000000000E+00  0.34052892793E+03  0.34052892793E+03  0.00000000000E+00 0. -1.
         21   -1    0    0  501  502  0.00000000000E+00 -0.00000000000E+00 -0.74111213470E+02  0.74111213470E+02  0.00000000000E+00 0.  1.
         23    2    1    2    0    0 -0.10902820038E+02 -0.62297180963E+02  0.11437883217E+03  0.15978236997E+03  0.91913428093E+02 0.  0.
         23    2    1    2    0    0  0.20175033286E+02  0.10119384801E+03  0.16294919461E+03  0.21340949570E+03  0.91345202333E+02 0.  0.
        -11    1    3    3    0    0  0.16909072974E+02  0.14645819073E+02  0.52923268052E+02  0.57456845253E+02  0.00000000000E+00 0.  1.
         11    1    3    3    0    0 -0.27811893012E+02 -0.76943000037E+02  0.61455564120E+02  0.10232552472E+03  0.00000000000E+00 0. -1.
        -13    1    4    4    0    0 -0.76473694831E+01  0.34369506439E+02  0.11366277240E+00  0.35210199547E+02  0.00000000000E+00 0.  1.
         13    1    4    4    0    0  0.27822402769E+02  0.66824341573E+02  0.16283553184E+03  0.17819929616E+03  0.00000000000E+00 0. -1.
          3    1    1    2  501    0 -0.92722132476E+01 -0.38896667049E+02 -0.10910312317E+02  0.41448275729E+02  0.00000000000E+00 0. -1.
<scales pt_clust_5="13000.00000" pt_clust_6="13000.00000" pt_clust_7="13000.00000" pt_clust_8="13000.00000" pt_clust_9="39.98656"></scales>
<clustering>
<clus scale="   39.987">  2  9  1 -1</clus>
<clus scale="   91.345">  7  8 -1 -1</clus>
<clus scale="   91.913">  5  6 -1 -1</clus>
<clus scale="  122.856">  2  7  1 -1</clus>
<clus scale="   39.987">  2  5  1 -1</clus>
</clustering>
</event>
<event>
 9    1  0.1445593E-005  0.1159927E+03  0.7546771E-02  0.1253031E+00
         21   -1    0    0  501  502  0.00000000000E+00  0.00000000000E+00  0.88543315438E+02  0.88543315438E+02  0.00000000000E+00 0.  1.
          1   -1    0    0  502    0 -0.00000000000E+00 -0.00000000000E+00 -0.27702295024E+03  0.27702295024E+03  0.00000000000E+00 0. -1.
         23    2    1    2    0    0 -0.57409436903E+02  0.22065988687E+02 -0.12020340999E+03  0.16079811667E+03  0.87317943454E+02 0.  0.
         23    2    1    2    0    0  0.36967927838E+02 -0.77781603047E+02 -0.67116465782E+02  0.14540966168E+03  0.96035119987E+02 0.  0.
        -11    1    4    4    0    0  0.46572817342E+00 -0.44169038602E+02 -0.82396491557E+02  0.93489586023E+02  0.00000000000E+00 0. -1.
         11    1    4    4    0    0  0.36502199665E+02 -0.33612564445E+02  0.15280025776E+02  0.51920075661E+02  0.00000000000E+00 0.  1.
        -11    1    3    3    0    0 -0.58629091113E+02 -0.17652810479E+02 -0.45853916340E+02  0.76495579521E+02  0.00000000000E+00 0.  1.
         11    1    3    3    0    0  0.12196542095E+01  0.39718799166E+02 -0.74349493655E+02  0.84302537152E+02  0.00000000000E+00 0. -1.
          1    1    1    2  501    0  0.20441509065E+02  0.55715614361E+02 -0.11597590299E+01  0.59358487324E+02  0.00000000000E+00 0. -1.
<scales pt_clust_5="13000.00000" pt_clust_6="13000.00000" pt_clust_7="13000.00000" pt_clust_8="13000.00000" pt_clust_9="59.34716"></scales>
<clustering>
<clus scale="   59.347">  1  9  2 -1</clus>
<clus scale="   87.318">  7  8 -1 -1</clus>
<clus scale="   96.035">  5  6 -1 -1</clus>
<clus scale="  108.885">  2  7  1 -1</clus>
<clus scale="   59.347">  1  5  2 -1</clus>
</clustering>
</event>
<event>
 9    1  0.1445593E-005  0.2103169E+03  0.7546771E-02  0.1142088E+00
         21   -1    0    0  501  502  0.00000000000E+00  0.00000000000E+00  0.50624182254E+03  0.50624182254E+03  0.00000000000E+00 0.  1.
          1   -1    0    0  502    0 -0.00000000000E+00 -0.00000000000E+00 -0.16402896023E+03  0.16402896023E+03  0.00000000000E+00 0. -1.
         23    2    1    2    0    0 -0.17317228902E+03  0.38296267787E+02 -0.30751838261E+02  0.20571169562E+03  0.99581024039E+02 0.  0.
         23    2    1    2    0    0  0.21348239950E+03 -0.33117829229E+02  0.29687939036E+03  0.37829962005E+03  0.91113690530E+02 0.  0.
        -11    1    3    3    0    0 -0.45627030047E+02  0.39537875690E+02  0.26458717325E+02  0.65917624407E+02  0.00000000000E+00 0.  1.
         11    1    3    3    0    0 -0.12754525897E+03 -0.12416079032E+01 -0.57210555585E+02  0.13979407122E+03  0.00000000000E+00 0. -1.
        -13    1    4    4    0    0  0.12247294329E+03  0.31646737191E+01  0.99076805789E+02  0.15756221135E+03  0.00000000000E+00 0.  1.
         13    1    4    4    0    0  0.91009456201E+02 -0.36282502949E+02  0.19780258457E+03  0.22073740870E+03  0.00000000000E+00 0. -1.
          1    1    1    2  501    0 -0.40310110475E+02 -0.51784385572E+01  0.76085310212E+02  0.86259467089E+02  0.00000000000E+00 0. -1.
<scales pt_clust_5="13000.00000" pt_clust_6="13000.00000" pt_clust_7="13000.00000" pt_clust_8="13000.00000" pt_clust_9="40.64137"></scales>
<clustering>
<clus scale="   40.641">  1  9  2 -1</clus>
<clus scale="   91.114">  7  8 -1 -1</clus>
<clus scale="   99.581">  5  6 -1 -1</clus>
<clus scale="  206.443">  1  7  2 -1</clus>
<clus scale="   40.641">  1  5  2 -1</clus>
</clustering>
</event>
<event>
 9    1  0.1445593E-005  0.1116938E+03  0.7546771E-02  0.1260023E+00
         -2   -1    0    0    0  501 -0.00000000000E+00  0.00000000000E+00  0.33526869723E+03  0.33526869723E+03  0.00000000000E+00 0.  1.
         21   -1    0    0  501  502  0.00000000000E+00 -0.00000000000E+00 -0.12731512416E+03  0.12731512416E+03  0.00000000000E+00 0.  1.
         23    2    1    2    0    0 -0.18405017406E+02  0.60785624000E+02  0.20440528805E+03  0.23208657775E+03  0.89716336509E+02 0.  0.
         23    2    1    2    0    0 -0.59343940908E+02 -0.45676739983E+02  0.57407990233E+02  0.13471599945E+03  0.96149130348E+02 0.  0.
        -13    1    3    3    0    0  0.33573392448E+02  0.10107556885E+02  0.90048140893E+02  0.96633343443E+02  0.00000000000E+00 0. -1.
         13    1    3    3    0    0 -0.51978409854E+02  0.50678067115E+02  0.11435714716E+03  0.13545323431E+03  0.00000000000E+00 0.  1.
        -13    1    4    4    0    0 -0.83646570930E+02 -0.40551730037E+02  0.58536654528E+02  0.10985322736E+03  0.00000000000E+00 0.  1.
         13    1    4    4    0    0  0.24302630022E+02 -0.51250099454E+01 -0.11286642953E+01  0.24862772091E+02  0.00000000000E+00 0. -1.
         -2    1    1    2    0  502  0.77748958314E+02 -0.15108884017E+02 -0.53859705215E+02  0.95781244202E+02  0.00000000000E+00 0.  1.
<scales pt_clust_5="13000.00000" pt_clust_6="13000.00000" pt_clust_7="13000.00000" pt_clust_8="13000.00000" pt_clust_9="79.20340"></scales>
<clustering>
<clus scale="   79.203">  2  9  1 -1</clus>
<clus scale="   89.716">  5  6 -1 -1</clus>
<clus scale="   96.149">  7  8 -1 -1</clus>
<clus scale="  106.207">  1  5  2 -1</clus>
<clus scale="   79.203">  2  5  1 -1</clus>
</clustering>
</event>
<event>
 9    1  0.1445593E-005  0.1021737E+03  0.7546771E-02  0.1277096E+00
         -1   -1    0    0    0  501 -0.00000000000E+00  0.00000000000E+00  0.18821993481E+03  0.18821993481E+03  0.00000000000E+00 0.  1.
         21   -1    0    0  501  502  0.00000000000E+00 -0.00000000000E+00 -0.81908432557E+02  0.81908432557E+02  0.00000000000E+00 0. -1.
         23    2    1    2    0    0 -0.45957691147E+01  0.41787185014E+02  0.91005751160E+02  0.13347289648E+03  0.88123081111E+02 0.  0.
         23    2    1    2    0    0 -0.15007133903E+02 -0.58115046981E+02  0.48712727898E+01  0.10909188585E+03  0.90965584181E+02 0.  0.
        -11    1    4    4    0    0  0.26907399053E+02 -0.45428803378E+02 -0.22560281145E+02  0.57417336977E+02  0.00000000000E+00 0.  1.
         11    1    4    4    0    0 -0.41914532955E+02 -0.12686243603E+02  0.27431553935E+02  0.51674548870E+02  0.00000000000E+00 0. -1.
        -11    1    3    3    0    0  0.21448818595E+02 -0.20774636194E+02  0.28723115975E+02  0.41432532139E+02  0.00000000000E+00 0. -1.
         11    1    3    3    0    0 -0.26044587709E+02  0.62561821208E+02  0.62282635185E+02  0.92040364338E+02  0.00000000000E+00 0.  1.
         -1    1    1    2    0  502  0.19602903017E+02  0.16327861967E+02  0.10434478305E+02  0.27563585046E+02  0.00000000000E+00 0.  1.
<scales pt_clust_5="13000.00000" pt_clust_6="13000.00000" pt_clust_7="13000.00000" pt_clust_8="13000.00000" pt_clust_9="25.51221"></scales>
<clustering>
<clus scale="   25.512">  2  9  1 -1</clus>
<clus scale="   88.123">  7  8 -1 -1</clus>
<clus scale="   90.966">  5  6 -1 -1</clus>
<clus scale="   99.651">  1  7  2 -1</clus>
<clus scale="   25.512">  2  5  1 -1</clus>
</clustering>
</event>
<event>
 9    1  0.1445593E-005  0.1061004E+03  0.7546771E-02  0.1268316E+00
         21   -1    0    0  501  502  0.00000000000E+00  0.00000000000E+00  0.13315781182E+03  0.13315781182E+03  0.00000000000E+00 0. -1.
          1   -1    0    0  502    0 -0.00000000000E+00 -0.00000000000E+00 -0.27635106157E+03  0.27635106157E+03  0.00000000000E+00 0. -1.
         23    2    1    2    0    0  0.41120954019E+02  0.19493066990E+02 -0.12745990919E+03  0.16258218907E+03  0.90088996186E+02 0.  0.
         23    2    1    2    0    0 -0.16450219192E+02 -0.10580556265E+03 -0.52440300262E+02  0.14994270134E+03  0.90925253881E+02 0.  0.
        -11    1    4    4    0    0 -0.51232533000E+02 -0.82154214503E+02 -0.46689709584E+02  0.10748961056E+03  0.00000000000E+00 0. -1.
         11    1    4    4    0    0  0.34782313808E+02 -0.23651348147E+02 -0.57505906781E+01  0.42453090772E+02  0.00000000000E+00 0.  1.
        -11    1    3    3    0    0  0.55090039557E+02  0.45244173101E+02 -0.96274510426E+02  0.11979452832E+03  0.00000000000E+00 0. -1.
         11    1    3    3    0    0 -0.13969085538E+02 -0.25751106112E+02 -0.31185398760E+02  0.42787660751E+02  0.00000000000E+00 0.  1.
          1    1    1    2  501    0 -0.24670734827E+02  0.86312495660E+02  0.36706959702E+02  0.96983982979E+02  0.00000000000E+00 0. -1.
<scales pt_clust_5="13000.00000" pt_clust_6="13000.00000" pt_clust_7="13000.00000" pt_clust_8="13000.00000" pt_clust_9="89.76910"></scales>
<clustering>
<clus scale="   89.769">  1  9  2 -1</clus>
<clus scale="   90.089">  7  8 -1 -1</clus>
<clus scale="   90.925">  5  6 -1 -1</clus>
<clus scale="  105.385">  2  7  1 -1</clus>
<clus scale="   89.769">  1  5  2 -1</clus>
</clustering>
</event>
<event>
 9    1  0.1445593E-005  0.2164203E+03  0.7546771E-02  0.1137370E+00
         -2   -1    0    0    0  501 -0.00000000000E+00  0.00000000000E+00  0.40454457223E+03  0.40454457223E+03  0.00000000000E+00 0.  1.
         21   -1    0    0  501  502  0.00000000000E+00 -0.00000000000E+00 -0.69973166177E+03  0.69973166177E+03  0.00000000000E+00 0.  1.
         23    2    1    2    0    0  0.11471579035E+02 -0.21244537039E+03  0.25075072135E+03  0.34402288797E+03  0.10105043624E+03 0.  0.
         23    2    1    2    0    0 -0.48819757054E+02  0.15072531302E+03  0.24917499903E+02  0.18485779709E+03  0.91924070190E+02 0.  0.
        -13    1    4    4    0    0  0.16498625101E+02  0.35305360039E+02  0.34287192031E+02  0.51906498775E+02  0.00000000000E+00 0. -1.
         13    1    4    4    0    0 -0.65318382155E+02  0.11541995298E+03 -0.93696921276E+01  0.13295129831E+03  0.00000000000E+00 0.  1.
        -13    1    3    3    0    0  0.55333637103E+02 -0.96869650354E+02  0.10954295550E+03  0.15634960715E+03  0.00000000000E+00 0. -1.
         13    1    3    3    0    0 -0.43862058069E+02 -0.11557572003E+03  0.14120776585E+03  0.18767328082E+03  0.00000000000E+00 0.  1.
         -2    1    1    2    0  502  0.37348178019E+02  0.61720057370E+02 -0.57085531079E+03  0.57539554894E+03  0.00000000000E+00 0.  1.
<scales pt_clust_5="13000.00000" pt_clust_6="13000.00000" pt_clust_7="13000.00000" pt_clust_8="13000.00000" pt_clust_9="72.14050"></scales>
<clustering>
<clus scale="   72.141">  2  9  1 -1</clus>
<clus scale="   91.924">  5  6 -1 -1</clus>
<clus scale="  101.050">  7  8 -1 -1</clus>
<clus scale="  212.312">  2  5  1 -1</clus>
<clus scale="   72.141">  2  5  1 -1</clus>
</clustering>
</event>
<event>
 9    1  0.1445593E-005  0.1678792E+03  0.7546771E-02  0.1180131E+00
         21   -1    0    0  501  502  0.00000000000E+00  0.00000000000E+00  0.67119302945E+02  0.67119302945E+02  0.00000000000E+00 0.  1.
          1   -1    0    0  502    0 -0.00000000000E+00 -0.00000000000E+00 -0.92549641634E+03  0.92549641634E+03  0.00000000000E+00 0. -1.
         23    2    1    2    0    0 -0.50377892276E+02 -0.13370679421E+03 -0.77230985540E+03  0.79070127452E+03  0.91271868226E+02 0.  0.
         23    2    1    2    0    0  0.27676034019E+02  0.12679472876E+03 -0.76441209507E+02  0.17630562155E+03  0.91638133853E+02 0.  0.
        -11    1    4    4    0    0 -0.48948195208E+01  0.99090705711E+02 -0.13373105202E+02  0.10010877663E+03  0.00000000000E+00 0.  1.
         11    1    4    4    0    0  0.32570853539E+02  0.27704023053E+02 -0.63068104306E+02  0.76196844911E+02  0.00000000000E+00 0. -1.
        -11    1    3    3    0    0 -0.74180399349E+02 -0.83326573254E+02 -0.57244672788E+03  0.58321634555E+03  0.00000000000E+00 0.  1.
         11    1    3    3    0    0  0.23802507073E+02 -0.50380220954E+02 -0.19986312752E+03  0.20748492897E+03  0.00000000000E+00 0. -1.
          1    1    1    2  501    0  0.22701858257E+02  0.69120654433E+01 -0.96260484791E+01  0.25608823213E+02  0.00000000000E+00 0. -1.
<scales pt_clust_5="13000.00000" pt_clust_6="13000.00000" pt_clust_7="13000.00000" pt_clust_8="13000.00000" pt_clust_9="23.73080"></scales>
<clustering>
<clus scale="   23.731">  1  9  2 -1</clus>
<clus scale="   91.272">  7  8 -1 -1</clus>
<clus scale="   91.638">  5  6 -1 -1</clus>
<clus scale="  167.680">  2  7  1 -1</clus>
<clus scale="   23.731">  1  5  2 -1</clus>
</clustering>
</event>
<event>
 9    1  0.1445593E-005  0.1554019E+03  0.7546771E-02  0.1206531E+00
          2   -1    0    0  502    0 -0.00000000000E+00  0.00000000000E+00  0.84541275476E+02  0.84541275476E+02  0.00000000000E+00 0. -1.
         21   -1    0    0  501  502  0.00000000000E+00 -0.00000000000E+00 -0.90632826103E+03  0.90632826103E+03  0.00000000000E+00 0. -1.
         23    2    1    2    0    0  0.17663156164E+02 -0.73947861447E+02 -0.22910316558E+03  0.25786906282E+03  0.90707881583E+02 0.  0.
         23    2    1    2    0    0 -0.13395376997E+03  0.10761105180E+03 -0.87908453847E+02  0.21391003119E+03  0.92227188115E+02 0.  0.
        -13    1    3    3    0    0  0.48430332506E+02 -0.24856643251E+02 -0.15179578589E+03  0.16126162108E+03  0.00000000000E+00 0.  1.
         13    1    3    3    0    0 -0.30767176343E+02 -0.49091218196E+02 -0.77307379695E+02  0.96607441739E+02  0.00000000000E+00 0. -1.
        -13    1    4    4    0    0 -0.14132696928E+03  0.72107676049E+02 -0.68979777015E+02  0.17300589247E+03  0.00000000000E+00 0. -1.
         13    1    4    4    0    0  0.73731993141E+01  0.35503375753E+02 -0.18928676832E+02  0.40904138722E+02  0.00000000000E+00 0.  1.
          2    1    1    2  501    0  0.11629061380E+03 -0.33663190355E+02 -0.50477536613E+03  0.51909044250E+03  0.00000000000E+00 0. -1.
<scales pt_clust_5="13000.00000" pt_clust_6="13000.00000" pt_clust_7="13000.00000" pt_clust_8="13000.00000" pt_clust_9="125.07561"></scales>
<clustering>
<clus scale="   90.708">  5  6 -1 -1</clus>
<clus scale="   92.227">  7  8 -1 -1</clus>
<clus scale="  118.356">  1  5  2 -1</clus>
<clus scale="  125.076">  2  9  1 -1</clus>
<clus scale="  125.076">  2  5  1 -1</clus>
</clustering>
</event>
<event>
 9    1  0.1445593E-005  0.1519598E+03  0.7546771E-02  0.1222228E+00
          3   -1    0    0  502    0 -0.00000000000E+00  0.00000000000E+00  0.19259132389E+03  0.19259132389E+03  0.00000000000E+00 0. -1.
         21   -1    0    0  501  502  0.00000000000E+00 -0.00000000000E+00 -0.42483225740E+03  0.42483225740E+03  0.00000000000E+00 0. -1.
         23    2    1    2    0    0 -0.56291130893E+00  0.28604043533E+01 -0.41680195202E+02  0.99868562139E+02  0.90708281041E+02 0.  0.
         23    2    1    2    0    0  0.93797779152E+02 -0.79628315465E+02  0.11308509878E+03  0.19077245056E+03  0.92017369715E+02 0.  0.
        -11    1    4    4    0    0  0.27647164749E+02  0.19341696675E+02  0.16948527537E+02  0.37758701443E+02  0.00000000000E+00 0.  1.
         11    1    4    4    0    0  0.66150614403E+02 -0.98970012141E+02  0.96136571239E+02  0.15301374912E+03  0.00000000000E+00 0. -1.
        -11    1    3    3    0    0  0.41750017390E+02 -0.86526792247E+01 -0.35703605728E+02  0.55611871681E+02  0.00000000000E+00 0. -1.
         11    1    3    3    0    0 -0.42312928699E+02  0.11513083578E+02 -0.59765894741E+01  0.44256690458E+02  0.00000000000E+00 0.  1.
          3    1    1    2  501    0 -0.93234867843E+02  0.76767911112E+02 -0.30364583708E+03  0.32678256859E+03  0.00000000000E+00 0. -1.
<scales pt_clust_5="13000.00000" pt_clust_6="13000.00000" pt_clust_7="13000.00000" pt_clust_8="13000.00000" pt_clust_9="120.93220"></scales>
<clustering>
<clus scale="   90.708">  7  8 -1 -1</clus>
<clus scale="   90.755">  1  7  2 -1</clus>
<clus scale="   92.017">  5  6 -1 -1</clus>
<clus scale="  120.932">  2  9  1 -1</clus>
<clus scale="  120.932">  2  5  1 -1</clus>
</clustering>
</event>
<event>
 9    1  0.1445593E-005  0.1302089E+03  0.7546771E-02  0.1228618E+00
         -3   -1    0    0    0  501 -0.00000000000E+00  0.00000000000E+00  0.64386078539E+03  0.64386078539E+03  0.00000000000E+00 0.  1.
         21   -1    0    0  501  502  0.00000000000E+00 -0.00000000000E+00 -0.46812029665E+02  0.46812029665E+02  0.00000000000E+00 0.  1.
         23    2    1    2    0    0  0.82686753194E+02 -0.60536351363E+02  0.37641706648E+03  0.39961344195E+03  0.86598764740E+02 0.  0.
         23    2    1    2    0    0 -0.44815428390E+02  0.67042921264E+02  0.22094521773E+03  0.25263189603E+03  0.92211223517E+02 0.  0.
        -11    1    3    3    0    0  0.43517264080E+02 -0.75273481960E+02  0.30164750588E+03  0.31392844275E+03  0.00000000000E+00 0.  1.
         11    1    3    3    0    0  0.39169489114E+02  0.14737130597E+02  0.74769560600E+02  0.85684999200E+02  0.00000000000E+00 0. -1.
        -11    1    4    4    0    0  0.17874638160E+02  0.14382812542E+02  0.12231567033E+03  0.12444874927E+03  0.00000000000E+00 0.  1.
         11    1    4    4    0    0 -0.62690066549E+02  0.52660108721E+02  0.98629547398E+02  0.12818314676E+03  0.00000000000E+00 0. -1.
         -3    1    1    2    0  502 -0.37871324804E+02 -0.65065699008E+01 -0.31352848686E+00  0.38427477076E+02  0.00000000000E+00 0.  1.
<scales pt_clust_5="13000.00000" pt_clust_6="13000.00000" pt_clust_7="13000.00000" pt_clust_8="13000.00000" pt_clust_9="38.42620"></scales>
<clustering>
<clus scale="   38.426">  2  9  1 -1</clus>
<clus scale="   86.599">  5  6 -1 -1</clus>
<clus scale="   92.211">  7  8 -1 -1</clus>
<clus scale="  126.296">  1  5  2 -1</clus>
<clus scale="   38.426">  2  5  1 -1</clus>
</clustering>
</event>
<event>
 9    1  0.1445593E-005  0.1337659E+03  0.7546771E-02  0.1224695E+00
         21   -1    0    0  501  502  0.00000000000E+00  0.00000000000E+00  0.52234987014E+02  0.52234987014E+02  0.00000000000E+00 0.  1.
          2   -1    0    0  502    0 -0.00000000000E+00 -0.00000000000E+00 -0.76930091548E+03  0.76930091548E+03  0.00000000000E+00 0. -1.
         23    2    1    2    0    0 -0.51377341549E+02  0.45139050945E+02 -0.32188691858E+03  0.34399964693E+03  0.10023673773E+03 0.  0.
         23    2    1    2    0    0  0.47990615278E+02 -0.10842933347E+03 -0.38568811684E+03  0.41344876203E+03  0.90136207156E+02 0.  0.
        -11    1    3    3    0    0  0.46417832331E+01  0.55087082347E+02 -0.93389265376E+02  0.10852505554E+03  0.00000000000E+00 0.  1.
         11    1    3    3    0    0 -0.56019124782E+02 -0.99480314022E+01 -0.22849765320E+03  0.23547459139E+03  0.00000000000E+00 0. -1.
        -13    1    4    4    0    0 -0.75514692696E+01 -0.53597428865E+02 -0.25942017507E+03  0.26500667219E+03  0.00000000000E+00 0. -1.
         13    1    4    4    0    0  0.55542084547E+02 -0.54831904605E+02 -0.12626794177E+03  0.14844208984E+03  0.00000000000E+00 0.  1.
          2    1    1    2  501    0  0.33867262707E+01  0.63290282525E+02 -0.94908930522E+01  0.64087493537E+02  0.00000000000E+00 0. -1.
<scales pt_clust_5="13000.00000" pt_clust_6="13000.00000" pt_clust_7="13000.00000" pt_clust_8="13000.00000" pt_clust_9="63.38083"></scales>
<clustering>
<clus scale="   63.381">  1  9  2 -1</clus>
<clus scale="   90.136">  7  8 -1 -1</clus>
<clus scale="  100.237">  5  6 -1 -1</clus>
<clus scale="  126.374">  1  7  2 -1</clus>
<clus scale="   63.381">  1  5  2 -1</clus>
</clustering>
</event>
<event>
 9    1  0.1445593E-005  0.9263821E+02  0.7546771E-02  0.1298515E+00
         21   -1    0    0  501  502  0.00000000000E+00  0.00000000000E+00  0.46568825945E+02  0.46568825945E+02  0.00000000000E+00 0. -1.
          1   -1    0    0  502    0 -0.00000000000E+00 -0.00000000000E+00 -0.59338782555E+03  0.59338782555E+03  0.00000000000E+00 0. -1.
         23    2    1    2    0    0  0.12197769339E+02 -0.36461544408E+02 -0.30080311103E+03  0.31649315739E+03  0.90593472581E+02 0.  0.
         23    2    1    2    0    0  0.33823385983E+02 -0.45853704320E+02 -0.17816577823E+03  0.20728525008E+03  0.89317113302E+02 0.  0.
        -11    1    3    3    0    0 -0.10456397900E+02 -0.56675518710E+02 -0.11956987024E+03  0.13273433824E+03  0.00000000000E+00 0. -1.
         11    1    3    3    0    0  0.22654167239E+02  0.20213974302E+02 -0.18123324079E+03  0.18375881915E+03  0.00000000000E+00 0.  1.
        -11    1    4    4    0    0  0.16138525020E+01 -0.63098447776E+02 -0.76055437405E+02  0.98835460188E+02  0.00000000000E+00 0. -1.
         11    1    4    4    0    0  0.32209533481E+02  0.17244743456E+02 -0.10211034083E+03  0.10844978989E+03  0.00000000000E+00 0.  1.
          1    1    1    2  501    0 -0.46021155322E+02  0.82315248728E+02 -0.67850110342E+02  0.11617824402E+03  0.00000000000E+00 0. -1.
<scales pt_clust_5="13000.00000" pt_clust_6="13000.00000" pt_clust_7="13000.00000" pt_clust_8="13000.00000" pt_clust_9="94.30666"></scales>
<clustering>
<clus scale="   89.317">  7  8 -1 -1</clus>
<clus scale="   90.593">  5  6 -1 -1</clus>
<clus scale="   94.307">  1  9  2 -1</clus>
<clus scale="   94.307">  1  7  2 -1</clus>
<clus scale="   92.638">  1  5  2 -1</clus>
</clustering>
</event>
<event>
 9    1  0.1445593E-005  0.9366630E+02  0.7546771E-02  0.1295541E+00
         -1   -1    0    0    0  501 -0.00000000000E+00  0.00000000000E+00  0.13285456287E+03  0.13285456287E+03  0.00000000000E+00 0.  1.
         21   -1    0    0  501  502  0.00000000000E+00 -0.00000000000E+00 -0.15765695257E+03  0.15765695257E+03  0.00000000000E+00 0. -1.
         23    2    1    2    0    0  0.23871632645E+02  0.35404379504E+01  0.67981097399E+02  0.11568237816E+03  0.90435576333E+02 0.  0.
         23    2    1    2    0    0 -0.24899369899E+02  0.18730576088E+02 -0.15868048815E+02  0.94747685263E+02  0.88059728523E+02 0.  0.
        -11    1    3    3    0    0  0.10823651550E+02  0.46996847773E+02  0.35028080017E+02  0.59605549433E+02  0.00000000000E+00 0.  1.
         11    1    3    3    0    0  0.13047981095E+02 -0.43456409822E+02  0.32953017381E+02  0.56076828725E+02  0.00000000000E+00 0. -1.
        -13    1    4    4    0    0  0.19531887620E+02  0.54492930961E+01 -0.38221561981E+02  0.43267507781E+02  0.00000000000E+00 0. -1.
         13    1    4    4    0    0 -0.44431257520E+02  0.13281282992E+02  0.22353513166E+02  0.51480177482E+02  0.00000000000E+00 0.  1.
         -1    1    1    2    0  502  0.10277372542E+01 -0.22271014039E+02 -0.76915438290E+02  0.80081452019E+02  0.00000000000E+00 0.  1.
<scales pt_clust_5="13000.00000" pt_clust_6="13000.00000" pt_clust_7="13000.00000" pt_clust_8="13000.00000" pt_clust_9="22.29471"></scales>
<clustering>
<clus scale="   22.295">  2  9  1 -1</clus>
<clus scale="   88.060">  7  8 -1 -1</clus>
<clus scale="   90.436">  5  6 -1 -1</clus>
<clus scale="   91.374">  2  7  1 -1</clus>
<clus scale="   22.295">  2  5  1 -1</clus>
</clustering>
</event>
<event>
 9    1  0.1445593E-005  0.1004166E+03  0.7546771E-02  0.1282849E+00
          2   -1    0    0  502    0 -0.00000000000E+00  0.00000000000E+00  0.30763623092E+03  0.30763623092E+03  0.00000000000E+00 0. -1.
         21   -1    0    0  501  502  0.00000000000E+00 -0.00000000000E+00 -0.16920527313E+03  0.16920527313E+03  0.00000000000E+00 0. -1.
         23    2    1    2    0    0 -0.47349016446E+02 -0.17237196663E+02  0.12573996766E+03  0.16301850712E+03  0.90694232936E+02 0.  0.
         23    2    1    2    0    0 -0.51666379463E+02  0.33954035135E+02  0.12227002652E+03  0.16519235899E+03  0.92283610760E+02 0.  0.
        -11    1    3    3    0    0  0.93404986971E+00  0.33601615664E+02  0.42414406182E+02  0.54119523983E+02  0.00000000000E+00 0.  1.
         11    1    3    3    0    0 -0.48283066316E+02 -0.50838812327E+02  0.83325561480E+02  0.10889898313E+03  0.00000000000E+00 0. -1.
        -11    1    4    4    0    0  0.55567121942E+01  0.25053065982E+02  0.99846408058E+02  0.10309140783E+03  0.00000000000E+00 0.  1.
         11    1    4    4    0    0 -0.57223091657E+02  0.89009691537E+01  0.22423618464E+02  0.62100951165E+02  0.00000000000E+00 0. -1.
          2    1    1    2  501    0  0.99015395909E+02 -0.16716838473E+02 -0.10957903639E+03  0.14863063793E+03  0.00000000000E+00 0. -1.
<scales pt_clust_5="13000.00000" pt_clust_6="13000.00000" pt_clust_7="13000.00000" pt_clust_8="13000.00000" pt_clust_9="100.41664"></scales>
<clustering>
<clus scale="   90.694">  5  6 -1 -1</clus>
<clus scale="   92.284">  7  8 -1 -1</clus>
<clus scale="  100.417">  2  9  1 -1</clus>
<clus scale="   94.088">  1  5  2 -1</clus>
<clus scale="  100.417">  2  5  1 -1</clus>
</clustering>
</event>
<event>
 9    1  0.1445593E-005  0.1606379E+03  0.7546771E-02  0.1209954E+00
         21   -1    0    0  501  502  0.00000000000E+00  0.00000000000E+00  0.37727570620E+03  0.37727570620E+03  0.00000000000E+00 0. -1.
          3   -1    0    0  502    0 -0.00000000000E+00 -0.00000000000E+00 -0.97440545226E+02  0.97440545226E+02  0.00000000000E+00 0. -1.
         23    2    1    2    0    0 -0.23485401408E+02  0.28312805852E+02  0.96823130582E+02  0.13889233402E+03  0.92537466888E+02 0.  0.
         23    2    1    2    0    0 -0.56872112340E+02  0.78801343111E+02  0.75074414061E+02  0.16383176659E+03  0.10844625978E+03 0.  0.
        -11    1    4    4    0    0  0.14123922906E+02  0.51319390159E+02 -0.48554012898E+01  0.53448479176E+02  0.00000000000E+00 0.  1.
         11    1    4    4    0    0 -0.70996035247E+02  0.27481952952E+02  0.79929815351E+02  0.11038328742E+03  0.00000000000E+00 0. -1.
        -13    1    3    3    0    0  0.15034709881E+02  0.47806146371E+02  0.27333582488E+02  0.57084103423E+02  0.00000000000E+00 0.  1.
         13    1    3    3    0    0 -0.38520111289E+02 -0.19493340519E+02  0.69489548094E+02  0.81808230592E+02  0.00000000000E+00 0. -1.
          3    1    1    2  501    0  0.80357513748E+02 -0.10711414896E+03  0.10793761633E+03  0.17199215082E+03  0.00000000000E+00 0. -1.
<scales pt_clust_5="13000.00000" pt_clust_6="13000.00000" pt_clust_7="13000.00000" pt_clust_8="13000.00000" pt_clust_9="118.50710"></scales>
<clustering>
<clus scale="   92.537">  7  8 -1 -1</clus>
<clus scale="   99.581">  2  7  1 -1</clus>
<clus scale="  108.446">  5  6 -1 -1</clus>
<clus scale="  118.507">  1  9  2 -1</clus>
<clus scale="  118.507">  1  5  2 -1</clus>
</clustering>
</event>
<event>
 9    1  0.1445593E-005  0.3376891E+03  0.7546771E-02  0.1067800E+00
          1   -1    0    0  502    0 -0.00000000000E+00  0.00000000000E+00  0.11189599856E+04  0.11189599856E+04  0.00000000000E+00 0. -1.
         21   -1    0    0  501  502  0.00000000000E+00 -0.00000000000E+00 -0.29894788468E+03  0.29894788468E+03  0.00000000000E+00 0. -1.
         23    2    1    2    0    0 -0.29022276733E+03  0.10782404991E+03  0.76946582334E+03  0.83447635693E+03  0.91748877758E+02 0.  0.
         23    2    1    2    0    0  0.42462290693E+03 -0.74689839329E+02  0.17058008364E+02  0.44101403686E+03  0.91209757540E+02 0.  0.
        -11    1    4    4    0    0  0.35174966813E+03 -0.35361831311E+02  0.38112371014E+02  0.35557114755E+03  0.00000000000E+00 0. -1.
         11    1    4    4    0    0  0.72873238801E+02 -0.39328008018E+02 -0.21054362650E+02  0.85442889316E+02  0.00000000000E+00 0.  1.
        -13    1    3    3    0    0 -0.66153542899E+02 -0.18986993409E+00  0.96389988746E+02  0.11690747290E+03  0.00000000000E+00 0.  1.
         13    1    3    3    0    0 -0.22406922443E+03  0.10801391984E+03  0.67307583459E+03  0.71756888403E+03  0.00000000000E+00 0. -1.
          1    1    1    2  501    0 -0.13440013960E+03 -0.33134210581E+02  0.33488269221E+02  0.14241747649E+03  0.00000000000E+00 0. -1.
<scales pt_clust_5="13000.00000" pt_clust_6="13000.00000" pt_clust_7="13000.00000" pt_clust_8="13000.00000" pt_clust_9="138.42425"></scales>
<clustering>
<clus scale="   91.210">  5  6 -1 -1</clus>
<clus scale="   91.749">  7  8 -1 -1</clus>
<clus scale="  138.424">  2  9  1 -1</clus>
<clus scale="  337.543">  2  5  1 -1</clus>
<clus scale="  138.424">  2  5  1 -1</clus>
</clustering>
</event>
<event>
 9    1  0.1445593E-005  0.1105933E+03  0.7546771E-02  0.1264386E+00
          1   -1    0    0  502    0 -0.00000000000E+00  0.00000000000E+00  0.22853735568E+03  0.22853735568E+03  0.00000000000E+00 0. -1.
         21   -1    0    0  501  502  0.00000000000E+00 -0.00000000000E+00 -0.97639453355E+02  0.97639453355E+02  0.00000000000E+00 0.  1.
         23    2    1    2    0    0  0.41996764721E+02 -0.38039882585E+02  0.11087687642E+03  0.16023855393E+03  0.10085609316E+03 0.  0.
         23    2    1    2    0    0 -0.17376369076E+02  0.33604287164E+01 -0.33749597830E+02  0.97380918664E+02  0.89614604182E+02 0.  0.
        -11    1    3    3    0    0  0.34404184441E+02 -0.39824168331E+01  0.11939794946E+03  0.12431966010E+03  0.00000000000E+00 0. -1.
         11    1    3    3    0    0  0.75925802800E+01 -0.34057465752E+02 -0.85210730406E+01  0.35918893838E+02  0.00000000000E+00 0.  1.
        -11    1    4    4    0    0 -0.48823793698E+02 -0.12649057254E+02 -0.29160670952E+01  0.50519945841E+02  0.00000000000E+00 0.  1.
         11    1    4    4    0    0  0.31447424621E+02  0.16009485970E+02 -0.30833530735E+02  0.46860972823E+02  0.00000000000E+00 0. -1.
          1    1    1    2  501    0 -0.24620395645E+02  0.34679453869E+02  0.53770623731E+02  0.68557336433E+02  0.00000000000E+00 0. -1.
<scales pt_clust_5="13000.00000" pt_clust_6="13000.00000" pt_clust_7="13000.00000" pt_clust_8="13000.00000" pt_clust_9="42.53034"></scales>
<clustering>
<clus scale="   42.530">  2  9  1 -1</clus>
<clus scale="   89.615">  7  8 -1 -1</clus>
<clus scale="  100.448">  2  7  1 -1</clus>
<clus scale="  100.856">  5  6 -1 -1</clus>
<clus scale="   42.530">  2  5  1 -1</clus>
</clustering>
</event>
<event>
 9    1  0.1445593E-005  0.9479342E+02  0.7546771E-02  0.1308823E+00
         21   -1    0    0  501  502  0.00000000000E+00  0.00000000000E+00  0.19421068773E+03  0.19421068773E+03  0.00000000000E+00 0. -1.
         -2   -1    0    0    0  501 -0.00000000000E+00 -0.00000000000E+00 -0.11991520276E+03  0.11991520276E+03  0.00000000000E+00 0.  1.
         23    2    1    2    0    0  0.12638420070E+02 -0.22871928419E+02 -0.34918959654E+02  0.80226082975E+02  0.67335249868E+02 0.  0.
         23    2    1    2    0    0 -0.71810812351E+01 -0.77408954018E+01 -0.23966081725E+02  0.97137312197E+02  0.93540338669E+02 0.  0.
        -11    1    3    3    0    0  0.44067101650E+00  0.23468249856E+02 -0.17348325556E+02  0.29187623094E+02  0.00000000000E+00 0.  1.
         11    1    3    3    0    0  0.12197749053E+02 -0.46340178275E+02 -0.17570634098E+02  0.51038459882E+02  0.00000000000E+00 0. -1.
        -13    1    4    4    0    0 -0.47885610163E+02  0.48279996243E+00 -0.27902927768E+02  0.55424165619E+02  0.00000000000E+00 0.  1.
         13    1    4    4    0    0  0.40704528928E+02 -0.82236953643E+01  0.39368460436E+01  0.41713146578E+02  0.00000000000E+00 0. -1.
         -2    1    1    2    0  502 -0.54573388347E+01  0.30612823821E+02  0.13318052634E+03  0.13676249532E+03  0.00000000000E+00 0.  1.
<scales pt_clust_5="13000.00000" pt_clust_6="13000.00000" pt_clust_7="13000.00000" pt_clust_8="13000.00000" pt_clust_9="31.09546"></scales>
<clustering>
<clus scale="   31.095">  1  9  2 -1</clus>
<clus scale="   67.335">  5  6 -1 -1</clus>
<clus scale="   69.065">  2  5  1 -1</clus>
<clus scale="   93.540">  7  8 -1 -1</clus>
<clus scale="   31.095">  1  5  2 -1</clus>
</clustering>
</event>
<event>
 9    1  0.1445593E-005  0.1742135E+03  0.7546771E-02  0.1173548E+00
         21   -1    0    0  501  502  0.00000000000E+00  0.00000000000E+00  0.18585301090E+03  0.18585301090E+03  0.00000000000E+00 0.  1.
          1   -1    0    0  502    0 -0.00000000000E+00 -0.00000000000E+00 -0.22033926164E+03  0.22033926164E+03  0.00000000000E+00 0. -1.
         23    2    1    2    0    0  0.12938954822E+03 -0.68337404651E+02 -0.78284135839E+02  0.18929657583E+03  0.91066632920E+02 0.  0.
         23    2    1    2    0    0 -0.14892560874E+03  0.43471064311E+02  0.44651464977E+02  0.18526151992E+03  0.90881830238E+02 0.  0.
        -13    1    4    4    0    0 -0.12346952873E+03  0.12584959563E+02 -0.15699844101E+01  0.12411917895E+03  0.00000000000E+00 0.  1.
         13    1    4    4    0    0 -0.25456080012E+02  0.30886104748E+02  0.46221449387E+02  0.61142340972E+02  0.00000000000E+00 0. -1.
        -13    1    3    3    0    0  0.52210177497E+02 -0.45367609198E+02  0.99069392649E+01  0.69873242692E+02  0.00000000000E+00 0.  1.
         13    1    3    3    0    0  0.77179370727E+02 -0.22969795453E+02 -0.88191075104E+02  0.11942333314E+03  0.00000000000E+00 0. -1.
          1    1    1    2  501    0  0.19536060517E+02  0.24866340340E+02 -0.85357987475E+00  0.31634176788E+02  0.00000000000E+00 0. -1.
<scales pt_clust_5="13000.00000" pt_clust_6="13000.00000" pt_clust_7="13000.00000" pt_clust_8="13000.00000" pt_clust_9="31.62266"></scales>
<clustering>
<clus scale="   31.623">  1  9  2 -1</clus>
<clus scale="   90.882">  5  6 -1 -1</clus>
<clus scale="   91.067">  7  8 -1 -1</clus>
<clus scale="  174.117">  1  5  2 -1</clus>
<clus scale="   31.623">  1  5  2 -1</clus>
</clustering>
</event>
<event>
 9    1  0.1445593E-005  0.1775212E+03  0.7546771E-02  0.1176034E+00
         -2   -1    0    0    0  501 -0.00000000000E+00  0.00000000000E+00  0.64891379749E+03  0.64891379749E+03  0.00000000000E+00 0.  1.
         21   -1    0    0  501  502  0.00000000000E+00 -0.00000000000E+00 -0.84137848939E+02  0.84137848939E+02  0.00000000000E+00 0. -1.
         23    2    1    2    0    0 -0.12148173780E+03 -0.50079126244E+02  0.50977541639E+03  0.54108547166E+03  0.12504711503E+03 0.  0.
         23    2    1    2    0    0  0.10246521818E+03  0.42937171027E+02  0.76136901050E+02  0.16265096314E+03  0.91190934408E+02 0.  0.
        -11    1    3    3    0    0 -0.10398083246E+03  0.17559876151E+02  0.37127886391E+03  0.38596419207E+03  0.00000000000E+00 0.  1.
         11    1    3    3    0    0 -0.17500905333E+02 -0.67639002396E+02  0.13849655248E+03  0.15512127959E+03  0.00000000000E+00 0. -1.
        -13    1    4    4    0    0  0.14934977101E+02  0.40308101146E+02  0.59678409480E+02  0.73548005527E+02  0.00000000000E+00 0.  1.
         13    1    4    4    0    0  0.87530241076E+02  0.26290698813E+01  0.16458491570E+02  0.89102957616E+02  0.00000000000E+00 0. -1.
         -2    1    1    2    0  502  0.19016519621E+02  0.71419552175E+01 -0.21136368892E+02  0.29315211627E+02  0.00000000000E+00 0.  1.
<scales pt_clust_5="13000.00000" pt_clust_6="13000.00000" pt_clust_7="13000.00000" pt_clust_8="13000.00000" pt_clust_9="20.31343"></scales>
<clustering>
<clus scale="   20.313">  2  9  1 -1</clus>
<clus scale="   91.191">  7  8 -1 -1</clus>
<clus scale="  125.047">  5  6 -1 -1</clus>
<clus scale="  155.540">  2  7  1 -1</clus>
<clus scale="   20.313">  2  5  1 -1</clus>
</clustering>
</event>
<event>
 9    1  0.1445593E-005  0.1105997E+03  0.7546771E-02  0.1259848E+00
         21   -1    0    0  501  502  0.00000000000E+00  0.00000000000E+00  0.58320558065E+02  0.58320558065E+02  0.00000000000E+00 0. -1.
          2   -1    0    0  502    0 -0.00000000000E+00 -0.00000000000E+00 -0.68915519918E+03  0.68915519918E+03  0.00000000000E+00 0. -1.
         23    2    1    2    0    0  0.45557420671E+02  0.48711731536E+02 -0.45421768766E+03  0.46776047610E+03  0.89654023065E+02 0.  0.
         23    2    1    2    0    0 -0.25253606774E+02 -0.58259616181E+02 -0.21166982922E+03  0.23809664279E+03  0.88622610959E+02 0.  0.
        -11    1    4    4    0    0 -0.37655536191E+02  0.10510597799E+02 -0.72575025036E+02  0.82435103754E+02  0.00000000000E+00 0.  1.
         11    1    4    4    0    0  0.12401929417E+02 -0.68770213980E+02 -0.13909480418E+03  0.15566153903E+03  0.00000000000E+00 0. -1.
        -13    1    3    3    0    0 -0.15378426501E+02 -0.14859411308E+02 -0.56518828070E+02  0.60429099220E+02  0.00000000000E+00 0.  1.
         13    1    3    3    0    0  0.60935847172E+02  0.63571142844E+02 -0.39769885959E+03  0.40733137688E+03  0.00000000000E+00 0. -1.
          2    1    1    2  501    0 -0.20303813896E+02  0.95478846447E+01  0.35052875759E+02  0.41618638360E+02  0.00000000000E+00 0. -1.
<scales pt_clust_5="13000.00000" pt_clust_6="13000.00000" pt_clust_7="13000.00000" pt_clust_8="13000.00000" pt_clust_9="22.43673"></scales>
<clustering>
<clus scale="   22.437">  1  9  2 -1</clus>
<clus scale="   88.623">  5  6 -1 -1</clus>
<clus scale="   89.654">  7  8 -1 -1</clus>
<clus scale="  109.765">  1  5  2 -1</clus>
<clus scale="   22.437">  1  5  2 -1</clus>
</clustering>
</event>
<event>
 9    1  0.1733162E-005  0.1040597E+03  0.7546771E-02  0.1275744E+00
         -4   -1    0    0    0  501 -0.00000000000E+00  0.00000000000E+00  0.17805062429E+03  0.17805062429E+03  0.00000000000E+00 0.  1.
         21   -1    0    0  501  502  0.00000000000E+00 -0.00000000000E+00 -0.56992018733E+03  0.56992018733E+03  0.00000000000E+00 0.  1.
         23    2    1    2    0    0  0.13187278854E+01 -0.61023415969E+02  0.14166058220E+03  0.17873618853E+03  0.90295671004E+02 0.  0.
         23    2    1    2    0    0 -0.12922744918E+02 -0.56195946159E+01 -0.97838409756E+02  0.12832280375E+03  0.81827931407E+02 0.  0.
        -11    1    4    4    0    0 -0.45672902279E+02 -0.12796990327E+02 -0.42859565776E+02  0.63927453747E+02  0.00000000000E+00 0.  1.
         11    1    4    4    0    0  0.32750157362E+02  0.71773957113E+01 -0.54978843980E+02  0.64395350002E+02  0.00000000000E+00 0. -1.
        -13    1    3    3    0    0  0.33184485710E+02 -0.85597946802E+01  0.13876239664E+02  0.36973371553E+02  0.00000000000E+00 0. -1.
         13    1    3    3    0    0 -0.31865757824E+02 -0.52463621289E+02  0.12778434254E+03  0.14176281698E+03  0.00000000000E+00 0.  1.
         -4    1    1    2    0  502  0.11604017032E+02  0.66643010585E+02 -0.43569173548E+03  0.44091181935E+03  0.00000000000E+00 0.  1.
<scales pt_clust_5="13000.00000" pt_clust_6="13000.00000" pt_clust_7="13000.00000" pt_clust_8="13000.00000" pt_clust_9="67.64572"></scales>
<clustering>
<clus scale="   67.646">  2  9  1 -1</clus>
<clus scale="   81.828">  5  6 -1 -1</clus>
<clus scale="   90.296">  7  8 -1 -1</clus>
<clus scale="   96.804">  2  5  1 -1</clus>
<clus scale="   67.646">  2  5  1 -1</clus>
</clustering>
</event>
<event>
 9    1  0.1445593E-005  0.1048317E+03  0.7546771E-02  0.1272510E+00
         21   -1    0    0  501  502  0.00000000000E+00  0.00000000000E+00  0.13238701314E+03  0.13238701314E+03  0.00000000000E+00 0. -1.
          1   -1    0    0  502    0 -0.00000000000E+00 -0.00000000000E+00 -0.28932368502E+03  0.28932368502E+03  0.00000000000E+00 0. -1.
         23    2    1    2    0    0  0.58813660025E+01 -0.41211943029E+02 -0.17339813340E+03  0.20004125181E+03  0.90645325565E+02 0.  0.
         23    2    1    2    0    0 -0.30056843132E+02  0.43332910463E+02 -0.71653904746E+02  0.13027322122E+03  0.95161311228E+02 0.  0.
        -13    1    3    3    0    0 -0.16345901896E+02 -0.32541012227E+02 -0.17235474717E+03  0.17615977083E+03  0.00000000000E+00 0. -1.
         13    1    3    3    0    0  0.22227267899E+02 -0.86709308030E+01 -0.10433862262E+01  0.23881480985E+02  0.00000000000E+00 0.  1.
        -13    1    4    4    0    0 -0.54589085200E+02 -0.31201275691E+01 -0.25443753359E+02  0.60308274755E+02  0.00000000000E+00 0.  1.
         13    1    4    4    0    0  0.24532242067E+02  0.46453038032E+02 -0.46210151387E+02  0.69964946469E+02  0.00000000000E+00 0. -1.
          1    1    1    2  501    0  0.24175477130E+02 -0.21209674332E+01  0.88115366260E+02  0.91396225132E+02  0.00000000000E+00 0. -1.
<scales pt_clust_5="13000.00000" pt_clust_6="13000.00000" pt_clust_7="13000.00000" pt_clust_8="13000.00000" pt_clust_9="24.26834"></scales>
<clustering>
<clus scale="   24.268">  1  9  2 -1</clus>
<clus scale="   90.645">  5  6 -1 -1</clus>
<clus scale="   95.161">  7  8 -1 -1</clus>
<clus scale="  100.750">  2  5  1 -1</clus>
<clus scale="   24.268">  1  5  2 -1</clus>
</clustering>
</event>
<event>
 9    1  0.1445593E-005  0.1074214E+03  0.7546771E-02  0.1269597E+00
         21   -1    0    0  501  502  0.00000000000E+00  0.00000000000E+00  0.18658689041E+03  0.18658689041E+03  0.00000000000E+00 0. -1.
         -1   -1    0    0    0  501 -0.00000000000E+00 -0.00000000000E+00 -0.12158957713E+03  0.12158957713E+03  0.00000000000E+00 0.  1.
         23    2    1    2    0    0  0.62435762781E+02  0.24678028524E+02 -0.17744069527E+02  0.10976019700E+03  0.85001289855E+02 0.  0.
         23    2    1    2    0    0 -0.15408793535E+02  0.14656355157E+02  0.95152287252E+02  0.13586421121E+03  0.94619693799E+02 0.  0.
        -13    1    4    4    0    0  0.31172625743E+02 -0.64649363257E+01  0.73923481711E+02  0.80487322888E+02  0.00000000000E+00 0. -1.
         13    1    4    4    0    0 -0.46581419279E+02  0.21121291483E+02  0.21228805541E+02  0.55376888326E+02  0.00000000000E+00 0.  1.
        -13    1    3    3    0    0  0.72655097902E+02 -0.68665544787E+01 -0.22253479561E+02  0.76296331328E+02  0.00000000000E+00 0.  1.
         13    1    3    3    0    0 -0.10219335121E+02  0.31544583002E+02  0.45094100333E+01  0.33463865676E+02  0.00000000000E+00 0. -1.
         -1    1    1    2    0  502 -0.47026969246E+02 -0.39334383681E+02 -0.12410904444E+02  0.62552059320E+02  0.00000000000E+00 0.  1.
<scales pt_clust_5="13000.00000" pt_clust_6="13000.00000" pt_clust_7="13000.00000" pt_clust_8="13000.00000" pt_clust_9="61.30851"></scales>
<clustering>
<clus scale="   61.309">  1  9  2 -1</clus>
<clus scale="   85.001">  7  8 -1 -1</clus>
<clus scale="   94.620">  5  6 -1 -1</clus>
<clus scale="   99.054">  2  7  1 -1</clus>
<clus scale="   61.309">  1  5  2 -1</clus>
</clustering>
</event>
<event>
 9    1  0.1445593E-005  0.1588373E+03  0.7546771E-02  0.1191289E+00
          3   -1    0    0  502    0 -0.00000000000E+00  0.00000000000E+00  0.91848295502E+02  0.91848295502E+02  0.00000000000E+00 0. -1.
         21   -1    0    0  501  502  0.00000000000E+00 -0.00000000000E+00 -0.54988208476E+03  0.54988208476E+03  0.00000000000E+00 0. -1.
         23    2    1    2    0    0  0.46123922237E+02  0.10998802291E+03 -0.33788381070E+02  0.15438482370E+03  0.92023028137E+02 0.  0.
         23    2    1    2    0    0 -0.57698285546E+02 -0.15919999789E+03 -0.34208160842E+03  0.39087445021E+03  0.84197847521E+02 0.  0.
        -11    1    4    4    0    0 -0.40197421983E+02 -0.47750716607E+02 -0.57973876418E+02  0.85187640051E+02  0.00000000000E+00 0.  1.
         11    1    4    4    0    0 -0.17500863563E+02 -0.11144928129E+03 -0.28410773200E+03  0.30568681016E+03  0.00000000000E+00 0. -1.
        -13    1    3    3    0    0  0.68892082994E+02  0.93760853632E+02 -0.44324310389E+02  0.12450647077E+03  0.00000000000E+00 0.  1.
         13    1    3    3    0    0 -0.22768160756E+02  0.16227169276E+02  0.10535929319E+02  0.29878352925E+02  0.00000000000E+00 0. -1.
          3    1    1    2  501    0  0.11574363308E+02  0.49211974984E+02 -0.82163799774E+02  0.96471106354E+02  0.00000000000E+00 0. -1.
<scales pt_clust_5="13000.00000" pt_clust_6="13000.00000" pt_clust_7="13000.00000" pt_clust_8="13000.00000" pt_clust_9="50.55477"></scales>
<clustering>
<clus scale="   50.555">  2  9  1 -1</clus>
<clus scale="   84.198">  5  6 -1 -1</clus>
<clus scale="   92.023">  7  8 -1 -1</clus>
<clus scale="  154.435">  2  5  1 -1</clus>
<clus scale="   50.555">  2  5  1 -1</clus>
</clustering>
</event>
<event>
 9    1  0.1445593E-005  0.1074302E+03  0.7546771E-02  0.1269291E+00
         21   -1    0    0  501  502  0.00000000000E+00  0.00000000000E+00  0.62244201221E+02  0.62244201221E+02  0.00000000000E+00 0. -1.
          2   -1    0    0  502    0 -0.00000000000E+00 -0.00000000000E+00 -0.85424975444E+03  0.85424975444E+03  0.00000000000E+00 0. -1.
         23    2    1    2    0    0  0.24808572876E+02 -0.73864011760E+02 -0.51246412142E+03  0.52600716674E+03  0.89401936163E+02 0.  0.
         23    2    1    2    0    0 -0.22912271539E+01  0.43421704373E+02 -0.32141832089E+03  0.33402938216E+03  0.79844830841E+02 0.  0.
        -11    1    4    4    0    0  0.32075849432E+02  0.45178963792E+02 -0.17220217002E+03  0.18089661756E+03  0.00000000000E+00 0.  1.
         11    1    4    4    0    0 -0.34367076586E+02 -0.17572594186E+01 -0.14921615087E+03  0.15313276460E+03  0.00000000000E+00 0. -1.
        -11    1    3    3    0    0 -0.20595907372E+02  0.48331905262E+01 -0.44096702419E+02  0.48908795685E+02  0.00000000000E+00 0.  1.
         11    1    3    3    0    0  0.45404480248E+02 -0.78697202286E+02 -0.46836741901E+03  0.47709837105E+03  0.00000000000E+00 0. -1.
          2    1    1    2  501    0 -0.22517345722E+02  0.30442307387E+02  0.41876889098E+02  0.56457406759E+02  0.00000000000E+00 0. -1.
<scales pt_clust_5="13000.00000" pt_clust_6="13000.00000" pt_clust_7="13000.00000" pt_clust_8="13000.00000" pt_clust_9="37.86509"></scales>
<clustering>
<clus scale="   37.865">  1  9  2 -1</clus>
<clus scale="   79.845">  5  6 -1 -1</clus>
<clus scale="   89.402">  7  8 -1 -1</clus>
<clus scale="   99.618">  1  5  2 -1</clus>
<clus scale="   37.865">  1  5  2 -1</clus>
</clustering>
</event>
<event>
 9    1  0.1445593E-005  0.1281733E+03  0.7546771E-02  0.1240182E+00
         -1   -1    0    0    0  501 -0.00000000000E+00  0.00000000000E+00  0.46083505772E+03  0.46083505772E+03  0.00000000000E+00 0.  1.
         21   -1    0    0  501  502  0.00000000000E+00 -0.00000000000E+00 -0.84544166427E+02  0.84544166427E+02  0.00000000000E+00 0. -1.
         23    2    1    2    0    0  0.43960500177E+02 -0.63772559792E+01  0.33052737353E+03  0.34672618502E+03  0.94855193625E+02 0.  0.
         23    2    1    2    0    0 -0.35526151906E+02  0.30673123400E+02  0.82824114971E+02  0.15354300400E+03  0.12046855228E+03 0.  0.
        -13    1    3    3    0    0 -0.14029640255E+02  0.15704223505E+02  0.16849412412E+02  0.26969540972E+02  0.00000000000E+00 0. -1.
         13    1    3    3    0    0  0.57990140432E+02 -0.22081479484E+02  0.31367796111E+03  0.31975664405E+03  0.00000000000E+00 0.  1.
        -13    1    4    4    0    0 -0.10767406503E+02 -0.41010184553E+02  0.61615536815E+02  0.74794696716E+02  0.00000000000E+00 0.  1.
         13    1    4    4    0    0 -0.24758745403E+02  0.71683307952E+02  0.21208578156E+02  0.78748307285E+02  0.00000000000E+00 0. -1.
         -1    1    1    2    0  502 -0.84343482706E+01 -0.24295867421E+02 -0.37060597202E+02  0.45110035130E+02  0.00000000000E+00 0.  1.
<scales pt_clust_5="13000.00000" pt_clust_6="13000.00000" pt_clust_7="13000.00000" pt_clust_8="13000.00000" pt_clust_9="25.71823"></scales>
<clustering>
<clus scale="   25.718">  2  9  1 -1</clus>
<clus scale="   94.855">  5  6 -1 -1</clus>
<clus scale="  104.466">  1  5  2 -1</clus>
<clus scale="  120.469">  7  8 -1 -1</clus>
<clus scale="   25.718">  2  5  1 -1</clus>
</clustering>
</event>
<event>
 9    1  0.1445593E-005  0.1049010E+03  0.7546771E-02  0.1271169E+00
         -3   -1    0    0    0  501 -0.00000000000E+00  0.00000000000E+00  0.46302885961E+03  0.46302885961E+03  0.00000000000E+00 0.  1.
         21   -1    0    0  501  502  0.00000000000E+00 -0.00000000000E+00 -0.36517501586E+02  0.36517501586E+02  0.00000000000E+00 0. -1.
         23    2    1    2    0    0  0.45121570806E+02  0.18246995937E+02  0.30443021751E+03  0.32179341155E+03  0.92218942577E+02 0.  0.
         23    2    1    2    0    0 -0.56524718519E+02 -0.77918781503E+00  0.89749141908E+02  0.13927549869E+03  0.90261315770E+02 0.  0.
        -11    1    3    3    0    0  0.77012768646E+01  0.50242583632E+02  0.10919102383E+03  0.12044212951E+03  0.00000000000E+00 0.  1.
         11    1    3    3    0    0  0.37420293941E+02 -0.31995587695E+02  0.19523919368E+03  0.20135128204E+03  0.00000000000E+00 0. -1.
        -13    1    4    4    0    0 -0.27136607612E+02 -0.11708110445E+02  0.10155800507E+03  0.10577099658E+03  0.00000000000E+00 0.  1.
         13    1    4    4    0    0 -0.29388110907E+02  0.10928922630E+02 -0.11808863164E+02  0.33504502111E+02  0.00000000000E+00 0. -1.
         -3    1    1    2    0  502  0.11403147713E+02 -0.17467808122E+02  0.32331998605E+02  0.38477450956E+02  0.00000000000E+00 0.  1.
<scales pt_clust_5="13000.00000" pt_clust_6="13000.00000" pt_clust_7="13000.00000" pt_clust_8="13000.00000" pt_clust_9="20.86040"></scales>
<clustering>
<clus scale="   20.860">  2  9  1 -1</clus>
<clus scale="   90.261">  7  8 -1 -1</clus>
<clus scale="   92.219">  5  6 -1 -1</clus>
<clus scale="  103.184">  2  7  1 -1</clus>
<clus scale="   20.860">  2  5  1 -1</clus>
</clustering>
</event>
<event>
 9    1  0.1445593E-005  0.9908485E+02  0.7546771E-02  0.1282625E+00
          1   -1    0    0  502    0 -0.00000000000E+00  0.00000000000E+00  0.48547647617E+03  0.48547647617E+03  0.00000000000E+00 0. -1.
         21   -1    0    0  501  502  0.00000000000E+00 -0.00000000000E+00 -0.12727895972E+03  0.12727895972E+03  0.00000000000E+00 0.  1.
         23    2    1    2    0    0 -0.27534609090E+02 -0.82169986936E+01  0.25206123606E+03  0.26983227596E+03  0.91917988788E+02 0.  0.
         23    2    1    2    0    0  0.28380223441E+02  0.47680209522E+02  0.20795204918E+03  0.23372375130E+03  0.91125724692E+02 0.  0.
        -11    1    3    3    0    0 -0.32189511830E+02  0.33885554060E+02  0.18249191660E+03  0.18838178009E+03  0.00000000000E+00 0.  1.
         11    1    3    3    0    0  0.46549027401E+01 -0.42102552753E+02  0.69569319455E+02  0.81450495869E+02  0.00000000000E+00 0. -1.
        -13    1    4    4    0    0  0.61400086186E+02  0.24148122404E+02  0.13502611733E+03  0.15028358114E+03  0.00000000000E+00 0. -1.
         13    1    4    4    0    0 -0.33019862746E+02  0.23532087118E+02  0.72925931854E+02  0.83440170162E+02  0.00000000000E+00 0.  1.
          1    1    1    2  501    0 -0.84561435016E+00 -0.39463210828E+02 -0.10181576878E+03  0.10919940863E+03  0.00000000000E+00 0. -1.
<scales pt_clust_5="13000.00000" pt_clust_6="13000.00000" pt_clust_7="13000.00000" pt_clust_8="13000.00000" pt_clust_9="39.47227"></scales>
<clustering>
<clus scale="   39.472">  2  9  1 -1</clus>
<clus scale="   91.126">  7  8 -1 -1</clus>
<clus scale="   91.918">  5  6 -1 -1</clus>
<clus scale="   98.350">  2  7  1 -1</clus>
<clus scale="   39.472">  2  5  1 -1</clus>
</clustering>
</event>
<event>
 9    1  0.1445593E-005  0.9913533E+02  0.7546771E-02  0.1282518E+00
         21   -1    0    0  501  502  0.00000000000E+00  0.00000000000E+00  0.98842572237E+02  0.98842572237E+02  0.00000000000E+00 0.  1.
         -1   -1    0    0    0  501 -0.00000000000E+00 -0.00000000000E+00 -0.30420495015E+03  0.30420495015E+03  0.00000000000E+00 0.  1.
         23    2    1    2    0    0 -0.57197518149E+01  0.24767730678E+02 -0.17447630176E+03  0.19876079985E+03  0.91748131535E+02 0.  0.
         23    2    1    2    0    0  0.81124020432E+01 -0.65990004089E+02 -0.81438404302E+02  0.13901392207E+03  0.90951443784E+02 0.  0.
        -11    1    3    3    0    0 -0.12368940598E+02  0.52414509812E+02 -0.59206251290E+02  0.80035315468E+02  0.00000000000E+00 0. -1.
         11    1    3    3    0    0  0.66491887829E+01 -0.27646779134E+02 -0.11527005047E+03  0.11872548438E+03  0.00000000000E+00 0.  1.
        -13    1    4    4    0    0 -0.30000797714E+02 -0.48792007096E+01 -0.53953185831E+02  0.61925767854E+02  0.00000000000E+00 0.  1.
         13    1    4    4    0    0  0.38113199757E+02 -0.61110803379E+02 -0.27485218471E+02  0.77088154212E+02  0.00000000000E+00 0. -1.
         -1    1    1    2    0  502 -0.23926502283E+01  0.41222273411E+02  0.50552328143E+02  0.65272800469E+02  0.00000000000E+00 0.  1.
<scales pt_clust_5="13000.00000" pt_clust_6="13000.00000" pt_clust_7="13000.00000" pt_clust_8="13000.00000" pt_clust_9="41.29165"></scales>
<clustering>
<clus scale="   41.292">  1  9  2 -1</clus>
<clus scale="   90.951">  7  8 -1 -1</clus>
<clus scale="   91.748">  5  6 -1 -1</clus>
<clus scale="   98.398">  1  7  2 -1</clus>
<clus scale="   41.292">  1  5  2 -1</clus>
</clustering>
</event>
<event>
 9    1  0.1445593E-005  0.1417246E+03  0.7546771E-02  0.1211442E+00
          2   -1    0    0  502    0 -0.00000000000E+00  0.00000000000E+00  0.79831593658E+03  0.79831593658E+03  0.00000000000E+00 0. -1.
         21   -1    0    0  501  502  0.00000000000E+00 -0.00000000000E+00 -0.64390471579E+02  0.64390471579E+02  0.00000000000E+00 0.  1.
         23    2    1    2    0    0 -0.86188057600E+02 -0.88522648137E+02  0.35842434514E+03  0.39060791097E+03  0.94031316123E+02 0.  0.
         23    2    1    2    0    0  0.11791006466E+03 -0.34475861621E+02  0.25091201885E+03  0.29417333533E+03  0.92139793974E+02 0.  0.
        -13    1    3    3    0    0 -0.85094948836E+02 -0.37832069678E+02  0.29533630497E+03  0.30967071034E+03  0.00000000000E+00 0.  1.
         13    1    3    3    0    0 -0.10931087639E+01 -0.50690578459E+02  0.63088040177E+02  0.80937200623E+02  0.00000000000E+00 0. -1.
        -13    1    4    4    0    0  0.29418479174E+02 -0.60630004647E+01  0.39422601125E+01  0.30294360966E+02  0.00000000000E+00 0.  1.
         13    1    4    4    0    0  0.88491585482E+02 -0.28412861156E+02  0.24696975874E+03  0.26387897436E+03  0.00000000000E+00 0. -1.
          2    1    1    2  501    0 -0.31722007055E+02  0.12299850976E+03  0.12458910101E+03  0.17792516186E+03  0.00000000000E+00 0. -1.
<scales pt_clust_5="13000.00000" pt_clust_6="13000.00000" pt_clust_7="13000.00000" pt_clust_8="13000.00000" pt_clust_9="127.02330"></scales>
<clustering>
<clus scale="   92.140">  7  8 -1 -1</clus>
<clus scale="   94.031">  5  6 -1 -1</clus>
<clus scale="  127.023">  2  9  1 -1</clus>
<clus scale="  140.477">  2  7  1 -1</clus>
<clus scale="  127.023">  2  5  1 -1</clus>
</clustering>
</event>
<event>
 9    1  0.1445593E-005  0.1303249E+03  0.7546771E-02  0.1227006E+00
         -2   -1    0    0    0  501 -0.00000000000E+00  0.00000000000E+00  0.50511439957E+03  0.50511439957E+03  0.00000000000E+00 0.  1.
         21   -1    0    0  501  502  0.00000000000E+00 -0.00000000000E+00 -0.77706386639E+02  0.77706386639E+02  0.00000000000E+00 0. -1.
         23    2    1    2    0    0 -0.16060496790E+02  0.99829240248E+02  0.37809099929E+03  0.40184173175E+03  0.91105196707E+02 0.  0.
         23    2    1    2    0    0 -0.18330227525E+02 -0.59533662891E+02  0.28378950416E+01  0.11050378263E+03  0.91229261032E+02 0.  0.
        -11    1    4    4    0    0 -0.35906038323E+02 -0.41481723952E+02 -0.34976964604E+02  0.65064314820E+02  0.00000000000E+00 0. -1.
         11    1    4    4    0    0  0.17575810798E+02 -0.18051938939E+02  0.37814859645E+02  0.45439467808E+02  0.00000000000E+00 0.  1.
        -11    1    3    3    0    0 -0.41962564530E+02  0.18189422289E+02  0.85392142798E+02  0.96868622148E+02  0.00000000000E+00 0. -1.
         11    1    3    3    0    0  0.25902067740E+02  0.81639817959E+02  0.29269885649E+03  0.30497310960E+03  0.00000000000E+00 0.  1.
         -2    1    1    2    0  502  0.34390724315E+02 -0.40295577357E+02  0.46479118595E+02  0.70475271825E+02  0.00000000000E+00 0.  1.
<scales pt_clust_5="13000.00000" pt_clust_6="13000.00000" pt_clust_7="13000.00000" pt_clust_8="13000.00000" pt_clust_9="52.97599"></scales>
<clustering>
<clus scale="   52.976">  2  9  1 -1</clus>
<clus scale="   91.105">  7  8 -1 -1</clus>
<clus scale="   91.229">  5  6 -1 -1</clus>
<clus scale="  130.238">  1  7  2 -1</clus>
<clus scale="   52.976">  2  5  1 -1</clus>
</clustering>
</event>
<event>
 9    1  0.1445593E-005  0.9522157E+02  0.7546771E-02  0.1293190E+00
          2   -1    0    0  502    0 -0.00000000000E+00  0.00000000000E+00  0.47092692990E+03  0.47092692990E+03  0.00000000000E+00 0. -1.
         21   -1    0    0  501  502  0.00000000000E+00 -0.00000000000E+00 -0.27908111314E+02  0.27908111314E+02  0.00000000000E+00 0.  1.
         23    2    1    2    0    0 -0.19348233478E+02  0.27968991262E+02  0.21329938109E+03  0.23288382430E+03  0.87072561892E+02 0.  0.
         23    2    1    2    0    0 -0.10260938016E+02 -0.22872413420E+02  0.20865791948E+03  0.22925972358E+03  0.91615824773E+02 0.  0.
        -11    1    3    3    0    0 -0.40440741518E+02 -0.16490891855E+02  0.87277241319E+02  0.97594671683E+02  0.00000000000E+00 0. -1.
         11    1    3    3    0    0  0.21092508040E+02  0.44459883117E+02  0.12602213977E+03  0.13528915262E+03  0.00000000000E+00 0.  1.
        -13    1    4    4    0    0  0.33304197698E+02 -0.33992877842E+02  0.13290838405E+03  0.14117125727E+03  0.00000000000E+00 0. -1.
         13    1    4    4    0    0 -0.43565135715E+02  0.11120464422E+02  0.75749535434E+02  0.88088466313E+02  0.00000000000E+00 0.  1.
          2    1    1    2  501    0  0.29609171494E+02 -0.50965778422E+01  0.21061518014E+02  0.36691493338E+02  0.00000000000E+00 0. -1.
<scales pt_clust_5="13000.00000" pt_clust_6="13000.00000" pt_clust_7="13000.00000" pt_clust_8="13000.00000" pt_clust_9="30.04460"></scales>
<clustering>
<clus scale="   30.045">  2  9  1 -1</clus>
<clus scale="   87.073">  5  6 -1 -1</clus>
<clus scale="   90.859">  1  5  2 -1</clus>
<clus scale="   91.616">  7  8 -1 -1</clus>
<clus scale="   30.045">  2  5  1 -1</clus>
</clustering>
</event>
<event>
 9    1  0.1445593E-005  0.1123737E+03  0.7546771E-02  0.1256355E+00
          1   -1    0    0  502    0 -0.00000000000E+00  0.00000000000E+00  0.21866182106E+03  0.21866182106E+03  0.00000000000E+00 0. -1.
         21   -1    0    0  501  502  0.00000000000E+00 -0.00000000000E+00 -0.99381516559E+02  0.99381516559E+02  0.00000000000E+00 0.  1.
         23    2    1    2    0    0 -0.70433366330E+02 -0.20587968078E+02  0.12124260039E+03  0.16836607262E+03  0.90899079950E+02 0.  0.
         23    2    1    2    0    0  0.49460621211E+02  0.18487143348E+02  0.31605778732E+02  0.11004034866E+03  0.91224040500E+02 0.  0.
        -13    1    4    4    0    0  0.60537341649E+02 -0.10972879673E+02 -0.50449720392E+01  0.61730264580E+02  0.00000000000E+00 0.  1.
         13    1    4    4    0    0 -0.11076720438E+02  0.29460023021E+02  0.36650750772E+02  0.48310084084E+02  0.00000000000E+00 0. -1.
        -13    1    3    3    0    0 -0.29295980679E+02 -0.54920805368E+02  0.54150276288E+02  0.82503343982E+02  0.00000000000E+00 0.  1.
         13    1    3    3    0    0 -0.41137385650E+02  0.34332837290E+02  0.67092324106E+02  0.85862728634E+02  0.00000000000E+00 0. -1.
          1    1    1    2  501    0  0.20972745119E+02  0.21008247294E+01 -0.33568074628E+02  0.39636916336E+02  0.00000000000E+00 0. -1.
<scales pt_clust_5="13000.00000" pt_clust_6="13000.00000" pt_clust_7="13000.00000" pt_clust_8="13000.00000" pt_clust_9="21.07770"></scales>
<clustering>
<clus scale="   21.078">  2  9  1 -1</clus>
<clus scale="   90.899">  7  8 -1 -1</clus>
<clus scale="   91.224">  5  6 -1 -1</clus>
<clus scale="  112.110">  1  7  2 -1</clus>
<clus scale="   21.078">  2  5  1 -1</clus>
</clustering>
</event>
<event>
 9    1  0.1445593E-005  0.9735587E+02  0.7546771E-02  0.1286396E+00
         21   -1    0    0  501  502  0.00000000000E+00  0.00000000000E+00  0.56880509453E+02  0.56880509453E+02  0.00000000000E+00 0.  1.
          2   -1    0    0  502    0 -0.00000000000E+00 -0.00000000000E+00 -0.42828177773E+03  0.42828177773E+03  0.00000000000E+00 0. -1.
         23    2    1    2    0    0 -0.21560537105E+02  0.25920649131E+02 -0.32858749326E+03  0.34312824086E+03  0.92900549748E+02 0.  0.
         23    2    1    2    0    0 -0.23583038143E+00 -0.16692826654E+02 -0.61426328174E+02  0.11192322636E+03  0.92059267481E+02 0.  0.
        -11    1    4    4    0    0 -0.12230260615E+02 -0.35676530185E+02 -0.76214628201E+02  0.85035660947E+02  0.00000000000E+00 0. -1.
         11    1    4    4    0    0  0.11994430233E+02  0.18983703532E+02  0.14788300027E+02  0.26887565418E+02  0.00000000000E+00 0.  1.
        -13    1    3    3    0    0 -0.31281449383E+02  0.54179660242E+02 -0.15786027809E+03  0.16980527689E+03  0.00000000000E+00 0. -1.
         13    1    3    3    0    0  0.97209122779E+01 -0.28259011111E+02 -0.17072721516E+03  0.17332296398E+03  0.00000000000E+00 0.  1.
          2    1    1    2  501    0  0.21796367486E+02 -0.92278224770E+01  0.18612553154E+02  0.30110819952E+02  0.00000000000E+00 0. -1.
<scales pt_clust_5="13000.00000" pt_clust_6="13000.00000" pt_clust_7="13000.00000" pt_clust_8="13000.00000" pt_clust_9="23.66927"></scales>
<clustering>
<clus scale="   23.669">  1  9  2 -1</clus>
<clus scale="   92.059">  5  6 -1 -1</clus>
<clus scale="   92.901">  7  8 -1 -1</clus>
<clus scale="   96.553">  1  5  2 -1</clus>
<clus scale="   23.669">  1  5  2 -1</clus>
</clustering>
</event>
<event>
 9    1  0.1445593E-005  0.1226155E+03  0.7546771E-02  0.1241031E+00
         21   -1    0    0  501  502  0.00000000000E+00  0.00000000000E+00  0.53519881172E+03  0.53519881172E+03  0.00000000000E+00 0.  1.
          1   -1    0    0  502    0 -0.00000000000E+00 -0.00000000000E+00 -0.74687461247E+02  0.74687461247E+02  0.00000000000E+00 0. -1.
         23    2    1    2    0    0  0.82084080300E+02  0.11040089732E+02  0.11689533127E+02  0.12939030157E+03  0.98719426333E+02 0.  0.
         23    2    1    2    0    0 -0.25813233535E+02  0.21960645539E+02  0.33762434305E+03  0.35157609313E+03  0.92016081522E+02 0.  0.
        -11    1    4    4    0    0  0.31673125478E+01  0.51444776214E+02  0.24148836948E+03  0.24692757938E+03  0.00000000000E+00 0.  1.
         11    1    4    4    0    0 -0.28980546083E+02 -0.29484130676E+02  0.96135973575E+02  0.10464851374E+03  0.00000000000E+00 0. -1.
        -11    1    3    3    0    0 -0.10730536547E+02 -0.18621434961E+02 -0.17453736817E+02  0.27686371800E+02  0.00000000000E+00 0.  1.
         11    1    3    3    0    0  0.92814616846E+02  0.29661524693E+02  0.29143269944E+02  0.10170392977E+03  0.00000000000E+00 0. -1.
          1    1    1    2  501    0 -0.56270846765E+02 -0.33000735270E+02  0.11119747429E+03  0.12891987827E+03  0.00000000000E+00 0. -1.
<scales pt_clust_5="13000.00000" pt_clust_6="13000.00000" pt_clust_7="13000.00000" pt_clust_8="13000.00000" pt_clust_9="65.23386"></scales>
<clustering>
<clus scale="   65.234">  1  9  2 -1</clus>
<clus scale="   92.016">  5  6 -1 -1</clus>
<clus scale="   98.719">  7  8 -1 -1</clus>
<clus scale="  117.286">  1  5  2 -1</clus>
<clus scale="   65.234">  1  5  2 -1</clus>
</clustering>
</event>
<event>
 9    1  0.1445593E-005  0.2638035E+03  0.7546771E-02  0.1105144E+00
         21   -1    0    0  501  502  0.00000000000E+00  0.00000000000E+00  0.19642611495E+03  0.19642611495E+03  0.00000000000E+00 0.  1.
         -1   -1    0    0    0  501 -0.00000000000E+00 -0.00000000000E+00 -0.80968457206E+03  0.80968457206E+03  0.00000000000E+00 0.  1.
         23    2    1    2    0    0 -0.11034015447E+02  0.26645372138E+03 -0.34334571917E+03  0.44332358922E+03  0.86776648661E+02 0.  0.
         23    2    1    2    0    0  0.20123400544E+03 -0.17767467727E+03 -0.16205118407E+03  0.32679584865E+03  0.92040885203E+02 0.  0.
        -11    1    3    3    0    0  0.23661470308E+02  0.64647139131E+02 -0.13304434508E+03  0.14979958455E+03  0.00000000000E+00 0. -1.
         11    1    3    3    0    0 -0.34695485755E+02  0.20180658225E+03 -0.21030137409E+03  0.29352400467E+03  0.00000000000E+00 0.  1.
        -13    1    4    4    0    0  0.11063546899E+03 -0.13425729170E+03 -0.14150456664E+03  0.22425157692E+03  0.00000000000E+00 0. -1.
         13    1    4    4    0    0  0.90598536445E+02 -0.43417385570E+02 -0.20546617430E+02  0.10254427172E+03  0.00000000000E+00 0.  1.
         -1    1    1    2    0  502 -0.19019998999E+03 -0.88779044113E+02 -0.10786155388E+03  0.23599124914E+03  0.00000000000E+00 0.  1.
<scales pt_clust_5="13000.00000" pt_clust_6="13000.00000" pt_clust_7="13000.00000" pt_clust_8="13000.00000" pt_clust_9="209.89939"></scales>
<clustering>
<clus scale="   86.777">  5  6 -1 -1</clus>
<clus scale="   92.041">  7  8 -1 -1</clus>
<clus scale="  209.899">  1  9  2 -1</clus>
<clus scale="  262.013">  2  5  1 -1</clus>
<clus scale="  209.899">  1  5  2 -1</clus>
</clustering>
</event>
<event>
 9    1  0.1445593E-005  0.1018182E+03  0.7546771E-02  0.1276894E+00
          2   -1    0    0  502    0 -0.00000000000E+00  0.00000000000E+00  0.62426374413E+03  0.62426374413E+03  0.00000000000E+00 0. -1.
         21   -1    0    0  501  502  0.00000000000E+00 -0.00000000000E+00 -0.92354701476E+02  0.92354701476E+02  0.00000000000E+00 0. -1.
         23    2    1    2    0    0  0.37325700201E+02  0.50774984601E+01  0.27452705180E+03  0.29156844552E+03  0.90708695096E+02 0.  0.
         23    2    1    2    0    0 -0.32702595487E+02  0.79963681758E+02  0.30356320318E+03  0.32816821746E+03  0.89889434720E+02 0.  0.
        -11    1    4    4    0    0  0.62939660817E+01  0.72160025063E+02  0.25660342843E+03  0.26663083600E+03  0.00000000000E+00 0. -1.
         11    1    4    4    0    0 -0.38996561569E+02  0.78036566948E+01  0.46959774755E+02  0.61537381461E+02  0.00000000000E+00 0.  1.
        -13    1    3    3    0    0 -0.89983779523E+01 -0.31964424738E+02  0.55718073415E+02  0.64862924385E+02  0.00000000000E+00 0. -1.
         13    1    3    3    0    0  0.46324078153E+02  0.37041923198E+02  0.21880897839E+03  0.22670552114E+03  0.00000000000E+00 0.  1.
          2    1    1    2  501    0 -0.46231047131E+01 -0.85041180218E+02 -0.46181212337E+02  0.96881782616E+02  0.00000000000E+00 0. -1.
<scales pt_clust_5="13000.00000" pt_clust_6="13000.00000" pt_clust_7="13000.00000" pt_clust_8="13000.00000" pt_clust_9="85.16675"></scales>
<clustering>
<clus scale="   85.167">  2  9  1 -1</clus>
<clus scale="   89.889">  5  6 -1 -1</clus>
<clus scale="   90.709">  7  8 -1 -1</clus>
<clus scale="  101.089">  2  5  1 -1</clus>
<clus scale="   85.167">  2  5  1 -1</clus>
</clustering>
</event>
