<event>
 9    1  0.4067873E-005  0.1539875E+03  0.7546771E-02  0.1196896E+00
         21   -1    0    0  501  502  0.00000000000E+00  0.00000000000E+00  0.80238034663E+02  0.80238034663E+02  0.00000000000E+00 0. -1.
          1   -1    0    0  502    0 -0.00000000000E+00 -0.00000000000E+00 -0.58628557003E+03  0.58628557003E+03  0.00000000000E+00 0. -1.
        -24    2    1    2    0    0  0.64851552359E+02  0.87601767745E+02 -0.17907140707E+03  0.22575660389E+03  0.83783541417E+02 0.  0.
         23    2    1    2    0    0 -0.30881788732E+02 -0.16264281951E+03 -0.13589520594E+03  0.23268763330E+03  0.90937649429E+02 0.  0.
         11    1    3    3    0    0  0.56897942608E+01  0.62380178820E+02 -0.45220523655E+02  0.77256431629E+02  0.00000000000E+00 0. -1.
        -12    1    3    3    0    0  0.59161758098E+02  0.25221588925E+02 -0.13385088342E+03  0.14850017226E+03  0.00000000000E+00 0.  1.
        -13    1    4    4    0    0 -0.56667528137E+02 -0.12190485139E+03 -0.12431908382E+03  0.18310444052E+03  0.00000000000E+00 0. -1.
         13    1    4    4    0    0  0.25785739405E+02 -0.40737968117E+02 -0.11576122114E+02  0.49583192779E+02  0.00000000000E+00 0.  1.
          2    1    1    2  501    0 -0.33969763628E+02  0.75041051762E+02 -0.19108092236E+03  0.20807936750E+03  0.00000000000E+00 0. -1.
<scales pt_clust_5="13000.00000" pt_clust_6="13000.00000" pt_clust_7="13000.00000" pt_clust_8="13000.00000" pt_clust_9="82.37179"></scales>
<clustering>
<clus scale="   82.372">  1  9  2 -1</clus>
<clus scale="   83.784">  5  6 -1 -1</clus>
<clus scale="   90.938">  7  8 -1 -1</clus>
<clus scale="  149.874">  2  5  1 -1</clus>
<clus scale="   82.372">  1  5  2 -1</clus>
</clustering>
</event>
<event>
 9    1  0.4067873E-005  0.1021879E+03  0.7546771E-02  0.1278392E+00
         -4   -1    0    0    0  501 -0.00000000000E+00  0.00000000000E+00  0.53163023732E+02  0.53163023732E+02  0.00000000000E+00 0.  1.
         21   -1    0    0  501  502  0.00000000000E+00 -0.00000000000E+00 -0.44296182259E+03  0.44296182259E+03  0.00000000000E+00 0.  1.
        -24    2    1    2    0    0 -0.37923247187E+02  0.52329547407E+02 -0.68330440023E+02  0.12511188962E+03  0.82506858386E+02 0.  0.
         23    2    1    2    0    0  0.33826389246E+02  0.12806558925E+02 -0.27443211404E+03  0.29056480621E+03  0.88355468603E+02 0.  0.
         11    1    3    3    0    0  0.25458918271E+02  0.81577141637E+01 -0.24643610235E+02  0.36359487694E+02  0.00000000000E+00 0. -1.
        -12    1    3    3    0    0 -0.63382165458E+02  0.44171833244E+02 -0.43686829787E+02  0.88752401923E+02  0.00000000000E+00 0.  1.
        -13    1    4    4    0    0  0.11294285410E+02 -0.34524862742E+02 -0.62914809189E+02  0.72648470360E+02  0.00000000000E+00 0. -1.
         13    1    4    4    0    0  0.22532103836E+02  0.47331421667E+02 -0.21151730485E+03  0.21791633585E+03  0.00000000000E+00 0.  1.
         -3    1    1    2    0  502  0.40968579408E+01 -0.65136106332E+02 -0.47036244792E+02  0.80448150490E+02  0.00000000000E+00 0.  1.
<scales pt_clust_5="13000.00000" pt_clust_6="13000.00000" pt_clust_7="13000.00000" pt_clust_8="13000.00000" pt_clust_9="65.26485"></scales>
<clustering>
<clus scale="   65.265">  2  9  1 -1</clus>
<clus scale="   82.507">  5  6 -1 -1</clus>
<clus scale="   88.355">  7  8 -1 -1</clus>
<clus scale="   97.175">  1  5  2 -1</clus>
<clus scale="   65.265">  2  5  1 -1</clus>
</clustering>
</event>
<event>
 9    1  0.4067873E-005  0.1050044E+03  0.7546771E-02  0.1275853E+00
         21   -1    0    0  501  502  0.00000000000E+00  0.00000000000E+00  0.50126826399E+03  0.50126826399E+03  0.00000000000E+00 0.  1.
         -4   -1    0    0    0  501 -0.00000000000E+00 -0.00000000000E+00 -0.30229462933E+02  0.30229462933E+02  0.00000000000E+00 0.  1.
        -24    2    1    2    0    0 -0.42258393128E+02 -0.92487615417E+01  0.15700514206E+03  0.18129870851E+03  0.79669917115E+02 0.  0.
         23    2    1    2    0    0  0.63590565307E+02 -0.10195658857E+02  0.29463358385E+03  0.31542100855E+03  0.92378311548E+02 0.  0.
         13    1    3    3    0    0  0.20785313386E+02 -0.13982181729E+02  0.27583641830E+02  0.37261078287E+02  0.00000000000E+00 0. -1.
        -14    1    3    3    0    0 -0.63043706514E+02  0.47334201871E+01  0.12942150023E+03  0.14403763022E+03  0.00000000000E+00 0.  1.
        -11    1    4    4    0    0 -0.11894952002E+02  0.25191950429E+02  0.97041729000E+02  0.10096148482E+03  0.00000000000E+00 0. -1.
         11    1    4    4    0    0  0.75485517309E+02 -0.35387609286E+02  0.19759185485E+03  0.21445952373E+03  0.00000000000E+00 0.  1.
         -3    1    1    2    0  502 -0.21332172179E+02  0.19444420399E+02  0.19400075135E+02  0.34778009860E+02  0.00000000000E+00 0.  1.
<scales pt_clust_5="13000.00000" pt_clust_6="13000.00000" pt_clust_7="13000.00000" pt_clust_8="13000.00000" pt_clust_9="28.86430"></scales>
<clustering>
<clus scale="   28.864">  1  9  2 -1</clus>
<clus scale="   79.670">  5  6 -1 -1</clus>
<clus scale="   92.378">  7  8 -1 -1</clus>
<clus scale="   94.018">  2  5  1 -1</clus>
<clus scale="   28.864">  1  5  2 -1</clus>
</clustering>
</event>
<event>
 9    1  0.4067873E-005  0.1146249E+03  0.7546771E-02  0.1253951E+00
          1   -1    0    0  502    0 -0.00000000000E+00  0.00000000000E+00  0.48707432218E+03  0.48707432218E+03  0.00000000000E+00 0. -1.
         21   -1    0    0  501  502  0.00000000000E+00 -0.00000000000E+00 -0.57515126957E+02  0.57515126957E+02  0.00000000000E+00 0. -1.
        -24    2    1    2    0    0  0.22434547377E+02  0.64217992932E+02  0.10184862139E+03  0.14994664197E+03  0.86507769751E+02 0.  0.
         23    2    1    2    0    0 -0.58937729780E+02 -0.49203080454E+02  0.79699872608E+02  0.14351089393E+03  0.91371263894E+02 0.  0.
         13    1    3    3    0    0  0.41159169207E+02  0.14867631132E+02  0.11399204394E+02  0.45222400711E+02  0.00000000000E+00 0. -1.
        -14    1    3    3    0    0 -0.18724621830E+02  0.49350361800E+02  0.90449416996E+02  0.10472424126E+03  0.00000000000E+00 0.  1.
        -11    1    4    4    0    0  0.20086061909E+02 -0.30072991397E+02  0.36741593721E+02  0.51553655580E+02  0.00000000000E+00 0.  1.
         11    1    4    4    0    0 -0.79023791689E+02 -0.19130089057E+02  0.42958278887E+02  0.91957238351E+02  0.00000000000E+00 0. -1.
          2    1    1    2  501    0  0.36503182403E+02 -0.15014912478E+02  0.24801070122E+03  0.25113191323E+03  0.00000000000E+00 0. -1.
<scales pt_clust_5="13000.00000" pt_clust_6="13000.00000" pt_clust_7="13000.00000" pt_clust_8="13000.00000" pt_clust_9="39.47064"></scales>
<clustering>
<clus scale="   39.471">  2  9  1 -1</clus>
<clus scale="   86.508">  5  6 -1 -1</clus>
<clus scale="   91.371">  7  8 -1 -1</clus>
<clus scale="  110.787">  1  5  2 -1</clus>
<clus scale="   39.471">  2  5  1 -1</clus>
</clustering>
</event>
<event>
 9    1  0.4067873E-005  0.1082598E+03  0.7546771E-02  0.1267945E+00
         21   -1    0    0  501  502  0.00000000000E+00  0.00000000000E+00  0.35371598623E+02  0.35371598623E+02  0.00000000000E+00 0. -1.
          3   -1    0    0  502    0 -0.00000000000E+00 -0.00000000000E+00 -0.67603102859E+03  0.67603102859E+03  0.00000000000E+00 0. -1.
        -24    2    1    2    0    0 -0.17273079848E+02 -0.66745701274E+02 -0.35855421899E+03  0.37384367984E+03  0.80278397299E+02 0.  0.
         23    2    1    2    0    0  0.31494760568E+01  0.27657739815E+02 -0.61024160824E+02  0.11260522846E+03  0.90449541193E+02 0.  0.
         11    1    3    3    0    0 -0.41442987300E+02 -0.20832926922E+02 -0.23986547435E+03  0.24430918490E+03  0.00000000000E+00 0. -1.
        -12    1    3    3    0    0  0.24169907451E+02 -0.45912774352E+02 -0.11868874464E+03  0.12953449494E+03  0.00000000000E+00 0.  1.
        -11    1    4    4    0    0 -0.22418913606E+02  0.53117982257E+02 -0.29866947694E+02  0.64931982034E+02  0.00000000000E+00 0. -1.
         11    1    4    4    0    0  0.25568389663E+02 -0.25460242442E+02 -0.31157213130E+02  0.47673246430E+02  0.00000000000E+00 0.  1.
          4    1    1    2  501    0  0.14123603792E+02  0.39087961459E+02 -0.22108105015E+03  0.22495371891E+03  0.00000000000E+00 0. -1.
<scales pt_clust_5="13000.00000" pt_clust_6="13000.00000" pt_clust_7="13000.00000" pt_clust_8="13000.00000" pt_clust_9="41.56136"></scales>
<clustering>
<clus scale="   41.561">  1  9  2 -1</clus>
<clus scale="   80.278">  5  6 -1 -1</clus>
<clus scale="   90.450">  7  8 -1 -1</clus>
<clus scale="   99.918">  2  5  1 -1</clus>
<clus scale="   41.561">  1  5  2 -1</clus>
</clustering>
</event>
<event>
 9    1  0.4067873E-005  0.9839887E+02  0.7546771E-02  0.1289035E+00
         21   -1    0    0  501  502  0.00000000000E+00  0.00000000000E+00  0.32562898625E+02  0.32562898625E+02  0.00000000000E+00 0.  1.
          1   -1    0    0  502    0 -0.00000000000E+00 -0.00000000000E+00 -0.61910270562E+03  0.61910270562E+03  0.00000000000E+00 0. -1.
         23    2    1    2    0    0 -0.17909702692E+02  0.48229137548E+02 -0.22664337090E+03  0.24931128799E+03  0.90233550225E+02 0.  0.
        -24    2    1    2    0    0  0.20546173374E+02 -0.10054530558E+02 -0.66344070686E+02  0.10631843527E+03  0.79867610064E+02 0.  0.
         13    1    4    4    0    0  0.10527582033E+02  0.24846446330E+02 -0.64550299223E+02  0.69963683497E+02  0.00000000000E+00 0. -1.
        -14    1    4    4    0    0  0.10018591341E+02 -0.34900976888E+02 -0.17937714634E+01  0.36354751770E+02  0.00000000000E+00 0.  1.
        -13    1    3    3    0    0 -0.79217575208E+00  0.66906047500E+02 -0.20611557977E+03  0.21670412770E+03  0.00000000000E+00 0. -1.
         13    1    3    3    0    0 -0.17117526939E+02 -0.18676909953E+02 -0.20527791129E+02  0.32607160296E+02  0.00000000000E+00 0.  1.
          2    1    1    2  501    0 -0.26364706825E+01 -0.38174606990E+02 -0.29355236541E+03  0.29603588099E+03  0.00000000000E+00 0. -1.
<scales pt_clust_5="13000.00000" pt_clust_6="13000.00000" pt_clust_7="13000.00000" pt_clust_8="13000.00000" pt_clust_9="38.26556"></scales>
<clustering>
<clus scale="   38.266">  1  9  2 -1</clus>
<clus scale="   79.868">  5  6 -1 -1</clus>
<clus scale="   88.989">  1  5  2 -1</clus>
<clus scale="   90.234">  7  8 -1 -1</clus>
<clus scale="   38.266">  1  5  2 -1</clus>
</clustering>
</event>
<event>
 9    1  0.4067873E-005  0.1363828E+03  0.7546771E-02  0.1231406E+00
          1   -1    0    0  502    0 -0.00000000000E+00  0.00000000000E+00  0.35601768938E+03  0.35601768938E+03  0.00000000000E+00 0. -1.
         21   -1    0    0  501  502  0.00000000000E+00 -0.00000000000E+00 -0.94811760440E+02  0.94811760440E+02  0.00000000000E+00 0. -1.
         23    2    1    2    0    0 -0.24532921360E+02  0.35605447573E+02  0.27487312526E+02  0.10733997793E+03  0.94322353583E+02 0.  0.
        -24    2    1    2    0    0 -0.60191000885E+02  0.62717552263E+02  0.14398679345E+03  0.18570051362E+03  0.78714904067E+02 0.  0.
         13    1    4    4    0    0  0.38105204983E+01  0.36347777132E+02  0.15386209501E+02  0.39653706153E+02  0.00000000000E+00 0. -1.
        -14    1    4    4    0    0 -0.64001521384E+02  0.26369775131E+02  0.12860058395E+03  0.14604680747E+03  0.00000000000E+00 0.  1.
        -13    1    3    3    0    0  0.51674754670E+00 -0.31304617552E+02  0.15356093806E+02  0.34871990552E+02  0.00000000000E+00 0.  1.
         13    1    3    3    0    0 -0.25049668907E+02  0.66910065125E+02  0.12131218720E+02  0.72467987381E+02  0.00000000000E+00 0. -1.
          2    1    1    2  501    0  0.84723922246E+02 -0.98322999836E+02  0.89731822961E+02  0.15778895826E+03  0.00000000000E+00 0. -1.
<scales pt_clust_5="13000.00000" pt_clust_6="13000.00000" pt_clust_7="13000.00000" pt_clust_8="13000.00000" pt_clust_9="111.37428"></scales>
<clustering>
<clus scale="   78.715">  5  6 -1 -1</clus>
<clus scale="   94.322">  7  8 -1 -1</clus>
<clus scale="  103.761">  1  7  2 -1</clus>
<clus scale="  111.374">  2  9  1 -1</clus>
<clus scale="  111.374">  2  5  1 -1</clus>
</clustering>
</event>
<event>
 9    1  0.4067873E-005  0.1244766E+03  0.7546771E-02  0.1262984E+00
         21   -1    0    0  501  502  0.00000000000E+00  0.00000000000E+00  0.41471173229E+02  0.41471173229E+02  0.00000000000E+00 0.  1.
          1   -1    0    0  502    0 -0.00000000000E+00 -0.00000000000E+00 -0.63799606944E+03  0.63799606944E+03  0.00000000000E+00 0. -1.
        -24    2    1    2    0    0 -0.93311772223E+01  0.37331989398E+02 -0.59828885963E+02  0.93923865304E+02  0.61330649576E+02 0.  0.
         23    2    1    2    0    0  0.83639832564E+02 -0.70045785948E+02 -0.42279985260E+03  0.44567092307E+03  0.89223441938E+02 0.  0.
         11    1    3    3    0    0 -0.26219514434E+02  0.36839275674E+02 -0.17743931972E+02  0.48574090740E+02  0.00000000000E+00 0. -1.
        -12    1    3    3    0    0  0.16888337212E+02  0.49271372315E+00 -0.42084953991E+02  0.45349774564E+02  0.00000000000E+00 0.  1.
        -11    1    4    4    0    0  0.64873777292E+02 -0.56161394224E+02 -0.41032887223E+03  0.41920459512E+03  0.00000000000E+00 0. -1.
         11    1    4    4    0    0  0.18766055272E+02 -0.13884391724E+02 -0.12470980373E+02  0.26466327956E+02  0.00000000000E+00 0.  1.
          2    1    1    2  501    0 -0.74308655342E+02  0.32713796550E+02 -0.11389615764E+03  0.13987245429E+03  0.00000000000E+00 0. -1.
<scales pt_clust_5="13000.00000" pt_clust_6="13000.00000" pt_clust_7="13000.00000" pt_clust_8="13000.00000" pt_clust_9="86.79629"></scales>
<clustering>
<clus scale="   61.331">  5  6 -1 -1</clus>
<clus scale="   72.403">  2  5  1 -1</clus>
<clus scale="   86.796">  1  9  2 -1</clus>
<clus scale="   89.223">  7  8 -1 -1</clus>
<clus scale="   86.796">  1  5  2 -1</clus>
</clustering>
</event>
<event>
 9    1  0.4067873E-005  0.2324471E+03  0.7546771E-02  0.1150148E+00
          1   -1    0    0  502    0 -0.00000000000E+00  0.00000000000E+00  0.15828454010E+04  0.15828454010E+04  0.00000000000E+00 0. -1.
         21   -1    0    0  501  502  0.00000000000E+00 -0.00000000000E+00 -0.67615176437E+02  0.67615176437E+02  0.00000000000E+00 0. -1.
        -24    2    1    2    0    0 -0.11062307133E+02  0.95681261884E+02  0.94752733325E+02  0.15778376847E+03  0.81488395528E+02 0.  0.
         23    2    1    2    0    0  0.18620679928E+03  0.67834898992E+02  0.75695252835E+03  0.78721348293E+03  0.86333029162E+02 0.  0.
         11    1    3    3    0    0  0.12524674389E+02  0.80495502476E+02  0.29300471143E+02  0.86573154018E+02  0.00000000000E+00 0. -1.
        -12    1    3    3    0    0 -0.23586981522E+02  0.15185759408E+02  0.65452262183E+02  0.71210614454E+02  0.00000000000E+00 0.  1.
        -11    1    4    4    0    0  0.14618292818E+03  0.56167080801E+02  0.69577864577E+03  0.71318448761E+03  0.00000000000E+00 0. -1.
         11    1    4    4    0    0  0.40023871101E+02  0.11667818191E+02  0.61173882571E+02  0.74028995320E+02  0.00000000000E+00 0.  1.
          2    1    1    2  501    0 -0.17514449214E+03 -0.16351616088E+03  0.66352496289E+03  0.70546332603E+03  0.00000000000E+00 0. -1.
<scales pt_clust_5="13000.00000" pt_clust_6="13000.00000" pt_clust_7="13000.00000" pt_clust_8="13000.00000" pt_clust_9="215.82000"></scales>
<clustering>
<clus scale="   81.488">  5  6 -1 -1</clus>
<clus scale="   86.333">  7  8 -1 -1</clus>
<clus scale="  126.165">  1  5  2 -1</clus>
<clus scale="  215.820">  2  9  1 -1</clus>
<clus scale="  215.820">  2  5  1 -1</clus>
</clustering>
</event>
<event>
 9    1  0.4067873E-005  0.1148821E+03  0.7546771E-02  0.1255178E+00
          3   -1    0    0  502    0 -0.00000000000E+00  0.00000000000E+00  0.40975023396E+03  0.40975023396E+03  0.00000000000E+00 0. -1.
         21   -1    0    0  501  502  0.00000000000E+00 -0.00000000000E+00 -0.20770792954E+03  0.20770792954E+03  0.00000000000E+00 0. -1.
        -24    2    1    2    0    0 -0.52182374872E+02 -0.51098384378E+02  0.32930396010E+03  0.34716193018E+03  0.82135634785E+02 0.  0.
         23    2    1    2    0    0  0.35334916600E+02  0.38627646523E+02  0.31471570468E+02  0.11018504309E+03  0.91704048794E+02 0.  0.
         13    1    3    3    0    0 -0.43050344456E+02 -0.60910223904E+02  0.15162296991E+03  0.16897607091E+03  0.00000000000E+00 0. -1.
        -14    1    3    3    0    0 -0.91320304169E+01  0.98118395261E+01  0.17768099018E+03  0.17818585928E+03  0.00000000000E+00 0.  1.
        -13    1    4    4    0    0  0.66014254550E+02  0.22020063815E+02  0.13297982725E+02  0.70849145081E+02  0.00000000000E+00 0.  1.
         13    1    4    4    0    0 -0.30679337950E+02  0.16607582708E+02  0.18173587743E+02  0.39335898006E+02  0.00000000000E+00 0. -1.
          4    1    1    2  501    0  0.16847458273E+02  0.12470737854E+02 -0.15873322614E+03  0.16011119022E+03  0.00000000000E+00 0. -1.
<scales pt_clust_5="13000.00000" pt_clust_6="13000.00000" pt_clust_7="13000.00000" pt_clust_8="13000.00000" pt_clust_9="20.96082"></scales>
<clustering>
<clus scale="   20.961">  2  9  1 -1</clus>
<clus scale="   82.136">  5  6 -1 -1</clus>
<clus scale="   91.704">  7  8 -1 -1</clus>
<clus scale="  107.399">  1  5  2 -1</clus>
<clus scale="   20.961">  2  5  1 -1</clus>
</clustering>
</event>
<event>
 9    1  0.4067873E-005  0.9791017E+02  0.7546771E-02  0.1292339E+00
         -2   -1    0    0    0  501 -0.00000000000E+00  0.00000000000E+00  0.48623762828E+03  0.48623762828E+03  0.00000000000E+00 0.  1.
         21   -1    0    0  501  502  0.00000000000E+00 -0.00000000000E+00 -0.33583005633E+02  0.33583005633E+02  0.00000000000E+00 0. -1.
         23    2    1    2    0    0  0.11574315398E+02  0.34539796498E+02  0.33128078638E+03  0.34551515842E+03  0.91141664210E+02 0.  0.
        -24    2    1    2    0    0 -0.32070948733E+02 -0.22807222904E+02  0.51748360739E+02  0.10078355969E+03  0.77011154353E+02 0.  0.
         11    1    4    4    0    0 -0.54925144017E+02 -0.21817312702E+02  0.21565343758E+02  0.62911291754E+02  0.00000000000E+00 0. -1.
        -12    1    4    4    0    0  0.22854195284E+02 -0.98991020257E+00  0.30183016981E+02  0.37872267933E+02  0.00000000000E+00 0.  1.
        -11    1    3    3    0    0 -0.29021224214E+02  0.34720592837E+02  0.88861001396E+02  0.99719750255E+02  0.00000000000E+00 0.  1.
         11    1    3    3    0    0  0.40595539612E+02 -0.18079633852E+00  0.24241978499E+03  0.24579540817E+03  0.00000000000E+00 0. -1.
         -1    1    1    2    0  502  0.20496633335E+02 -0.11732573594E+02  0.69625475525E+02  0.73521915803E+02  0.00000000000E+00 0.  1.
<scales pt_clust_5="13000.00000" pt_clust_6="13000.00000" pt_clust_7="13000.00000" pt_clust_8="13000.00000" pt_clust_9="23.61707"></scales>
<clustering>
<clus scale="   23.617">  2  9  1 -1</clus>
<clus scale="   77.011">  5  6 -1 -1</clus>
<clus scale="   84.914">  2  5  1 -1</clus>
<clus scale="   91.142">  7  8 -1 -1</clus>
<clus scale="   23.617">  2  5  1 -1</clus>
</clustering>
</event>
<event>
 9    1  0.4067873E-005  0.1070116E+03  0.7546771E-02  0.1271083E+00
         -2   -1    0    0    0  501 -0.00000000000E+00  0.00000000000E+00  0.28469851359E+03  0.28469851359E+03  0.00000000000E+00 0.  1.
         21   -1    0    0  501  502  0.00000000000E+00 -0.00000000000E+00 -0.12218411119E+03  0.12218411119E+03  0.00000000000E+00 0. -1.
         23    2    1    2    0    0  0.53868581950E+02 -0.35810736077E+02  0.13956568032E+03  0.17912866808E+03  0.91783809384E+02 0.  0.
        -24    2    1    2    0    0  0.23303319088E+02  0.48963452511E+02 -0.59770604154E+02  0.11386373240E+03  0.80324093975E+02 0.  0.
         11    1    4    4    0    0  0.44218784565E+02  0.43792965057E+01 -0.43015610921E+02  0.61845144750E+02  0.00000000000E+00 0. -1.
        -12    1    4    4    0    0 -0.20915465478E+02  0.44584156005E+02 -0.16754993233E+02  0.52018587650E+02  0.00000000000E+00 0.  1.
        -13    1    3    3    0    0  0.25909275306E+02 -0.48187827502E+02  0.13807091130E+03  0.14851576958E+03  0.00000000000E+00 0.  1.
         13    1    3    3    0    0  0.27959306644E+02  0.12377091425E+02  0.14947690178E+01  0.30612898499E+02  0.00000000000E+00 0. -1.
         -1    1    1    2    0  502 -0.77171901037E+02 -0.13152716434E+02  0.82719326232E+02  0.11389022430E+03  0.00000000000E+00 0.  1.
<scales pt_clust_5="13000.00000" pt_clust_6="13000.00000" pt_clust_7="13000.00000" pt_clust_8="13000.00000" pt_clust_9="78.28475"></scales>
<clustering>
<clus scale="   78.285">  2  9  1 -1</clus>
<clus scale="   80.324">  5  6 -1 -1</clus>
<clus scale="   91.784">  7  8 -1 -1</clus>
<clus scale="   97.361">  2  5  1 -1</clus>
<clus scale="   78.285">  2  5  1 -1</clus>
</clustering>
</event>
<event>
 9    1  0.4067873E-005  0.1878971E+03  0.7546771E-02  0.1180320E+00
          1   -1    0    0  502    0 -0.00000000000E+00  0.00000000000E+00  0.98468650664E+03  0.98468650664E+03  0.00000000000E+00 0. -1.
         21   -1    0    0  501  502  0.00000000000E+00 -0.00000000000E+00 -0.62524135820E+02  0.62524135820E+02  0.00000000000E+00 0. -1.
        -24    2    1    2    0    0  0.69666148235E+02  0.53909547366E+02  0.14556356902E+03  0.18807012306E+03  0.80137426048E+02 0.  0.
         23    2    1    2    0    0  0.56164594113E+02 -0.16444012328E+03  0.48008583935E+03  0.51859636539E+03  0.90910732440E+02 0.  0.
         13    1    3    3    0    0  0.29707591758E+02  0.27736541562E+01  0.12807682156E+01  0.29864268493E+02  0.00000000000E+00 0. -1.
        -14    1    3    3    0    0  0.39958556477E+02  0.51135893210E+02  0.14428280080E+03  0.15820585456E+03  0.00000000000E+00 0.  1.
        -11    1    4    4    0    0  0.45135108024E+01 -0.13712404562E+03  0.35288979458E+03  0.37862195233E+03  0.00000000000E+00 0. -1.
         11    1    4    4    0    0  0.51651083310E+02 -0.27316077660E+02  0.12719604477E+03  0.13997441306E+03  0.00000000000E+00 0.  1.
          2    1    1    2  501    0 -0.12583074235E+03  0.11053057592E+03  0.29651296245E+03  0.34054415401E+03  0.00000000000E+00 0. -1.
<scales pt_clust_5="13000.00000" pt_clust_6="13000.00000" pt_clust_7="13000.00000" pt_clust_8="13000.00000" pt_clust_9="164.44010"></scales>
<clustering>
<clus scale="   80.137">  5  6 -1 -1</clus>
<clus scale="   90.911">  7  8 -1 -1</clus>
<clus scale="  119.087">  1  5  2 -1</clus>
<clus scale="  164.440">  2  9  1 -1</clus>
<clus scale="  164.440">  2  5  1 -1</clus>
</clustering>
</event>
<event>
 9    1  0.4067873E-005  0.1037133E+03  0.7546771E-02  0.1281330E+00
         21   -1    0    0  501  502  0.00000000000E+00  0.00000000000E+00  0.52975987492E+02  0.52975987492E+02  0.00000000000E+00 0.  1.
          1   -1    0    0  502    0 -0.00000000000E+00 -0.00000000000E+00 -0.37647024073E+03  0.37647024073E+03  0.00000000000E+00 0. -1.
        -24    2    1    2    0    0 -0.38777414721E+02  0.18972395939E+02 -0.23050549829E+03  0.24700922943E+03  0.77570193890E+02 0.  0.
         23    2    1    2    0    0  0.87426770846E+01 -0.49122374611E+02 -0.40340022431E+02  0.11473917228E+03  0.95122647967E+02 0.  0.
         13    1    3    3    0    0 -0.57774606532E+02  0.35642793603E+01 -0.11275510925E+03  0.12674511394E+03  0.00000000000E+00 0. -1.
        -14    1    3    3    0    0  0.18997191811E+02  0.15408116578E+02 -0.11775038905E+03  0.12026411549E+03  0.00000000000E+00 0.  1.
        -13    1    4    4    0    0 -0.14356524903E+02 -0.63575545199E+02  0.10503728898E+01  0.65184837484E+02  0.00000000000E+00 0.  1.
         13    1    4    4    0    0  0.23099201987E+02  0.14453170588E+02 -0.41390395321E+02  0.49554334799E+02  0.00000000000E+00 0. -1.
          2    1    1    2  501    0  0.30034737637E+02  0.30149978672E+02 -0.52648732518E+02  0.67697826513E+02  0.00000000000E+00 0. -1.
<scales pt_clust_5="13000.00000" pt_clust_6="13000.00000" pt_clust_7="13000.00000" pt_clust_8="13000.00000" pt_clust_9="42.55712"></scales>
<clustering>
<clus scale="   42.557">  1  9  2 -1</clus>
<clus scale="   77.570">  5  6 -1 -1</clus>
<clus scale="   87.894">  2  5  1 -1</clus>
<clus scale="   95.123">  7  8 -1 -1</clus>
<clus scale="   42.557">  1  5  2 -1</clus>
</clustering>
</event>
<event>
 9    1  0.4067873E-005  0.1291075E+03  0.7546771E-02  0.1230669E+00
         -2   -1    0    0    0  501 -0.00000000000E+00  0.00000000000E+00  0.53966877451E+03  0.53966877451E+03  0.00000000000E+00 0.  1.
         21   -1    0    0  501  502  0.00000000000E+00 -0.00000000000E+00 -0.14071050283E+03  0.14071050283E+03  0.00000000000E+00 0. -1.
        -24    2    1    2    0    0 -0.38563939435E+02 -0.61564532011E+02  0.31756774123E+02  0.11344210861E+03  0.81137231141E+02 0.  0.
         23    2    1    2    0    0  0.74424751471E+02  0.12390508218E+03 -0.22222376993E+02  0.17092795658E+03  0.88493046510E+02 0.  0.
         13    1    3    3    0    0 -0.83229006346E+01 -0.70049691144E+02  0.39832723623E+02  0.81011578034E+02  0.00000000000E+00 0. -1.
        -14    1    3    3    0    0 -0.30241038801E+02  0.84851591332E+01 -0.80759495000E+01  0.32430530578E+02  0.00000000000E+00 0.  1.
        -13    1    4    4    0    0 -0.84365368323E+01  0.19218412188E+02 -0.30653636025E+02  0.37150611332E+02  0.00000000000E+00 0.  1.
         13    1    4    4    0    0  0.82861288304E+02  0.10468666999E+03  0.84312590325E+01  0.13377734525E+03  0.00000000000E+00 0. -1.
         -1    1    1    2    0  502 -0.35860812036E+02 -0.62340550171E+02  0.38942387455E+03  0.39600921215E+03  0.00000000000E+00 0.  1.
<scales pt_clust_5="13000.00000" pt_clust_6="13000.00000" pt_clust_7="13000.00000" pt_clust_8="13000.00000" pt_clust_9="71.91903"></scales>
<clustering>
<clus scale="   71.919">  2  9  1 -1</clus>
<clus scale="   81.137">  5  6 -1 -1</clus>
<clus scale="   88.493">  7  8 -1 -1</clus>
<clus scale="  124.181">  1  5  2 -1</clus>
<clus scale="   71.919">  2  5  1 -1</clus>
</clustering>
</event>
<event>
 9    1  0.4067873E-005  0.1749643E+03  0.7546771E-02  0.1203777E+00
         -2   -1    0    0    0  501 -0.00000000000E+00  0.00000000000E+00  0.24245628592E+03  0.24245628592E+03  0.00000000000E+00 0.  1.
         21   -1    0    0  501  502  0.00000000000E+00 -0.00000000000E+00 -0.18437691637E+03  0.18437691637E+03  0.00000000000E+00 0.  1.
        -24    2    1    2    0    0 -0.79982485949E+01 -0.12991075485E+02  0.22402899592E+02  0.90802900478E+02  0.86663353283E+02 0.  0.
         23    2    1    2    0    0  0.35618102317E+02 -0.14008366488E+03 -0.16579337647E+02  0.17194068639E+03  0.91633197147E+02 0.  0.
         11    1    3    3    0    0  0.35083486456E+02 -0.24887595588E+02  0.14653635646E+02  0.45441968198E+02  0.00000000000E+00 0. -1.
        -12    1    3    3    0    0 -0.43081735051E+02  0.11896520103E+02  0.77492639456E+01  0.45360932280E+02  0.00000000000E+00 0.  1.
        -13    1    4    4    0    0 -0.28328661475E+02 -0.34103653520E+02  0.97483555605E+01  0.45393861705E+02  0.00000000000E+00 0. -1.
         13    1    4    4    0    0  0.63946763792E+02 -0.10598001137E+03 -0.26327693208E+02  0.12654682469E+03  0.00000000000E+00 0.  1.
         -1    1    1    2    0  502 -0.27619853722E+02  0.15307474037E+03  0.52255807609E+02  0.16408961542E+03  0.00000000000E+00 0.  1.
<scales pt_clust_5="13000.00000" pt_clust_6="13000.00000" pt_clust_7="13000.00000" pt_clust_8="13000.00000" pt_clust_9="149.04995"></scales>
<clustering>
<clus scale="   86.663">  5  6 -1 -1</clus>
<clus scale="   87.996">  1  5  2 -1</clus>
<clus scale="   91.633">  7  8 -1 -1</clus>
<clus scale="  149.050">  2  9  1 -1</clus>
<clus scale="  149.050">  2  5  1 -1</clus>
</clustering>
</event>
<event>
 9    1  0.4067873E-005  0.9230238E+02  0.7546771E-02  0.1303597E+00
         21   -1    0    0  501  502  0.00000000000E+00  0.00000000000E+00  0.11201331907E+03  0.11201331907E+03  0.00000000000E+00 0.  1.
          1   -1    0    0  502    0 -0.00000000000E+00 -0.00000000000E+00 -0.10751222509E+03  0.10751222509E+03  0.00000000000E+00 0. -1.
        -24    2    1    2    0    0  0.29254470994E+00 -0.21355724919E+02 -0.29617068493E+02  0.87911165608E+02  0.79969054785E+02 0.  0.
         23    2    1    2    0    0 -0.26510822810E+02  0.88527335069E+01  0.12241262001E+02  0.95250637338E+02  0.90231041229E+02 0.  0.
         13    1    3    3    0    0 -0.22339845952E+02 -0.15637116164E+02 -0.49979467643E+02  0.56934482565E+02  0.00000000000E+00 0. -1.
        -14    1    3    3    0    0  0.22632390662E+02 -0.57186087555E+01  0.20362399151E+02  0.30976683043E+02  0.00000000000E+00 0.  1.
        -13    1    4    4    0    0 -0.34183969214E+02  0.42583379396E+02  0.22662546792E+02  0.59122575883E+02  0.00000000000E+00 0.  1.
         13    1    4    4    0    0  0.76731464038E+01 -0.33730645889E+02 -0.10421284790E+02  0.36128061455E+02  0.00000000000E+00 0. -1.
          2    1    1    2  501    0  0.26218278100E+02  0.12502991412E+02  0.21876900468E+02  0.36363741211E+02  0.00000000000E+00 0. -1.
<scales pt_clust_5="13000.00000" pt_clust_6="13000.00000" pt_clust_7="13000.00000" pt_clust_8="13000.00000" pt_clust_9="29.04691"></scales>
<clustering>
<clus scale="   29.047">  1  9  2 -1</clus>
<clus scale="   79.969">  5  6 -1 -1</clus>
<clus scale="   82.299">  2  5  1 -1</clus>
<clus scale="   90.231">  7  8 -1 -1</clus>
<clus scale="   29.047">  1  5  2 -1</clus>
</clustering>
</event>
<event>
 9    1  0.4067873E-005  0.1401010E+03  0.7546771E-02  0.1219653E+00
          1   -1    0    0  502    0 -0.00000000000E+00  0.00000000000E+00  0.66482265849E+02  0.66482265849E+02  0.00000000000E+00 0. -1.
         21   -1    0    0  501  502  0.00000000000E+00 -0.00000000000E+00 -0.48403381857E+03  0.48403381857E+03  0.00000000000E+00 0.  1.
        -24    2    1    2    0    0  0.67070779455E+02  0.85872547695E+02 -0.79907465475E+02  0.15719608353E+03  0.80329457451E+02 0.  0.
         23    2    1    2    0    0 -0.73267112236E+02 -0.15057752212E+02 -0.19607140730E+03  0.23490297684E+03  0.10554906979E+03 0.  0.
         13    1    3    3    0    0  0.52794317654E+02  0.10135868920E+03 -0.68550552302E+02  0.13326665777E+03  0.00000000000E+00 0. -1.
        -14    1    3    3    0    0  0.14276461801E+02 -0.15486141505E+02 -0.11356913173E+02  0.23929425758E+02  0.00000000000E+00 0.  1.
        -13    1    4    4    0    0 -0.71664020490E+02  0.21591078156E+02 -0.17983137034E+03  0.19478508220E+03  0.00000000000E+00 0.  1.
         13    1    4    4    0    0 -0.16030917455E+01 -0.36648830367E+02 -0.16240036960E+02  0.40117894647E+02  0.00000000000E+00 0. -1.
          2    1    1    2  501    0  0.61963327803E+01 -0.70814795484E+02 -0.14157267995E+03  0.15841702405E+03  0.00000000000E+00 0. -1.
<scales pt_clust_5="13000.00000" pt_clust_6="13000.00000" pt_clust_7="13000.00000" pt_clust_8="13000.00000" pt_clust_9="71.08537"></scales>
<clustering>
<clus scale="   71.085">  2  9  1 -1</clus>
<clus scale="   80.329">  5  6 -1 -1</clus>
<clus scale="  105.549">  7  8 -1 -1</clus>
<clus scale="  122.231">  1  5  2 -1</clus>
<clus scale="   71.085">  2  5  1 -1</clus>
</clustering>
</event>
<event>
 9    1  0.4067873E-005  0.2219787E+03  0.7546771E-02  0.1169784E+00
         21   -1    0    0  501  502  0.00000000000E+00  0.00000000000E+00  0.55499415710E+02  0.55499415710E+02  0.00000000000E+00 0. -1.
          1   -1    0    0  502    0 -0.00000000000E+00 -0.00000000000E+00 -0.16799885733E+04  0.16799885733E+04  0.00000000000E+00 0. -1.
        -24    2    1    2    0    0  0.37837110962E+02 -0.20064662135E+02 -0.21448863529E+03  0.23327450030E+03  0.81101049243E+02 0.  0.
         23    2    1    2    0    0 -0.21653496619E+03  0.92950644858E+02 -0.11546396716E+04  0.11821284156E+04  0.93314553349E+02 0.  0.
         11    1    3    3    0    0 -0.94013030667E+01  0.24401419284E+02 -0.49353553882E+02  0.55853263496E+02  0.00000000000E+00 0. -1.
        -12    1    3    3    0    0  0.47238414029E+02 -0.44466081419E+02 -0.16513508141E+03  0.17742123680E+03  0.00000000000E+00 0.  1.
        -13    1    4    4    0    0 -0.29613307105E+02 -0.14802801531E+02 -0.91214093917E+02  0.97036497360E+02  0.00000000000E+00 0.  1.
         13    1    4    4    0    0 -0.18692165909E+03  0.10775344639E+03 -0.10634255777E+04  0.10850919183E+04  0.00000000000E+00 0. -1.
          2    1    1    2  501    0  0.17869785523E+03 -0.72885982723E+02 -0.25536085076E+03  0.32008507313E+03  0.00000000000E+00 0. -1.
<scales pt_clust_5="13000.00000" pt_clust_6="13000.00000" pt_clust_7="13000.00000" pt_clust_8="13000.00000" pt_clust_9="201.41233"></scales>
<clustering>
<clus scale="   81.101">  5  6 -1 -1</clus>
<clus scale="   91.715">  2  5  1 -1</clus>
<clus scale="   93.315">  7  8 -1 -1</clus>
<clus scale="  201.412">  1  9  2 -1</clus>
<clus scale="  201.412">  1  5  2 -1</clus>
</clustering>
</event>
<event>
 9    1  0.4067873E-005  0.3507193E+03  0.7546771E-02  0.1089164E+00
         21   -1    0    0  501  502  0.00000000000E+00  0.00000000000E+00  0.12316440474E+03  0.12316440474E+03  0.00000000000E+00 0. -1.
          3   -1    0    0  502    0 -0.00000000000E+00 -0.00000000000E+00 -0.15846035201E+04  0.15846035201E+04  0.00000000000E+00 0. -1.
        -24    2    1    2    0    0 -0.10909382687E+03  0.10121849538E+03 -0.29892433016E+03  0.34347346089E+03  0.80446356702E+02 0.  0.
         23    2    1    2    0    0 -0.20705680484E+03 -0.26485693974E+03 -0.47552233737E+03  0.59054554746E+03  0.97983831975E+02 0.  0.
         11    1    3    3    0    0 -0.60630201046E+02  0.60137144205E+02 -0.85692774583E+02  0.12097829974E+03  0.00000000000E+00 0. -1.
        -12    1    3    3    0    0 -0.48463625823E+02  0.41081351179E+02 -0.21323155558E+03  0.22249516115E+03  0.00000000000E+00 0.  1.
        -13    1    4    4    0    0 -0.18241988361E+03 -0.26518656724E+03 -0.41493622763E+03  0.52514093573E+03  0.00000000000E+00 0. -1.
         13    1    4    4    0    0 -0.24636921233E+02  0.32962749922E+00 -0.60586109746E+02  0.65404611735E+02  0.00000000000E+00 0.  1.
          4    1    1    2  501    0  0.31615063171E+03  0.16363844436E+03 -0.68699244784E+03  0.77374891650E+03  0.00000000000E+00 0. -1.
<scales pt_clust_5="13000.00000" pt_clust_6="13000.00000" pt_clust_7="13000.00000" pt_clust_8="13000.00000" pt_clust_9="336.75405"></scales>
<clustering>
<clus scale="   80.446">  5  6 -1 -1</clus>
<clus scale="   97.984">  7  8 -1 -1</clus>
<clus scale="  169.169">  2  5  1 -1</clus>
<clus scale="  336.754">  1  9  2 -1</clus>
<clus scale="  336.754">  1  5  2 -1</clus>
</clustering>
</event>
<event>
 9    1  0.4067873E-005  0.1112535E+03  0.7546771E-02  0.1262893E+00
         21   -1    0    0  501  502  0.00000000000E+00  0.00000000000E+00  0.31052051733E+03  0.31052051733E+03  0.00000000000E+00 0. -1.
          1   -1    0    0  502    0 -0.00000000000E+00 -0.00000000000E+00 -0.10025833517E+03  0.10025833517E+03  0.00000000000E+00 0. -1.
        -24    2    1    2    0    0 -0.51843232498E+02 -0.30768702759E+02 -0.27626393564E+02  0.10216400170E+03  0.77716354763E+02 0.  0.
         23    2    1    2    0    0  0.85605213018E+02  0.11840366617E+02  0.85148090614E+02  0.15104642429E+03  0.89979876518E+02 0.  0.
         13    1    3    3    0    0 -0.33194407340E+02 -0.21747677990E+02 -0.55008129415E+02  0.67828640546E+02  0.00000000000E+00 0. -1.
        -14    1    3    3    0    0 -0.18648825158E+02 -0.90210247689E+01  0.27381735851E+02  0.34335361158E+02  0.00000000000E+00 0.  1.
        -11    1    4    4    0    0  0.63542739591E+02 -0.33739345758E+02  0.63555268758E+02  0.95996330106E+02  0.00000000000E+00 0. -1.
         11    1    4    4    0    0  0.22062473427E+02  0.45579712376E+02  0.21592821856E+02  0.55050094184E+02  0.00000000000E+00 0.  1.
          2    1    1    2  501    0 -0.33761980520E+02  0.18928336142E+02  0.15274048511E+03  0.15756842650E+03  0.00000000000E+00 0. -1.
<scales pt_clust_5="13000.00000" pt_clust_6="13000.00000" pt_clust_7="13000.00000" pt_clust_8="13000.00000" pt_clust_9="38.70598"></scales>
<clustering>
<clus scale="   38.706">  1  9  2 -1</clus>
<clus scale="   77.716">  5  6 -1 -1</clus>
<clus scale="   89.980">  7  8 -1 -1</clus>
<clus scale="  101.591">  2  5  1 -1</clus>
<clus scale="   38.706">  1  5  2 -1</clus>
</clustering>
</event>
<event>
 9    1  0.4067873E-005  0.1013299E+03  0.7546771E-02  0.1283439E+00
         21   -1    0    0  501  502  0.00000000000E+00  0.00000000000E+00  0.35186958527E+02  0.35186958527E+02  0.00000000000E+00 0.  1.
          1   -1    0    0  502    0 -0.00000000000E+00 -0.00000000000E+00 -0.41017618309E+03  0.41017618309E+03  0.00000000000E+00 0. -1.
         23    2    1    2    0    0  0.37208059324E+02 -0.30865219142E+02 -0.23873723316E+03  0.26054430569E+03  0.92470359023E+02 0.  0.
        -24    2    1    2    0    0 -0.35790843721E+02 -0.21147423521E+01 -0.77191516291E+02  0.11715920187E+03  0.80512680782E+02 0.  0.
         11    1    4    4    0    0 -0.31052153871E+02 -0.26553640146E+02 -0.82174464551E+02  0.91771317356E+02  0.00000000000E+00 0. -1.
        -12    1    4    4    0    0 -0.47386898499E+01  0.24438897794E+02  0.49829482599E+01  0.25387884517E+02  0.00000000000E+00 0.  1.
        -11    1    3    3    0    0  0.87660755649E+01 -0.49233311488E+02 -0.57640718090E+02  0.76309995563E+02  0.00000000000E+00 0.  1.
         11    1    3    3    0    0  0.28441983759E+02  0.18368092345E+02 -0.18109651507E+03  0.18423431013E+03  0.00000000000E+00 0. -1.
          2    1    1    2  501    0 -0.14172156030E+01  0.32979961494E+02 -0.59060475106E+02  0.67659634051E+02  0.00000000000E+00 0. -1.
<scales pt_clust_5="13000.00000" pt_clust_6="13000.00000" pt_clust_7="13000.00000" pt_clust_8="13000.00000" pt_clust_9="33.01041"></scales>
<clustering>
<clus scale="   33.010">  1  9  2 -1</clus>
<clus scale="   80.513">  5  6 -1 -1</clus>
<clus scale="   90.550">  1  5  2 -1</clus>
<clus scale="   92.470">  7  8 -1 -1</clus>
<clus scale="   33.010">  1  5  2 -1</clus>
</clustering>
</event>
<event>
 9    1  0.4067873E-005  0.1891318E+03  0.7546771E-02  0.1188405E+00
         21   -1    0    0  501  502  0.00000000000E+00  0.00000000000E+00  0.45921318509E+03  0.45921318509E+03  0.00000000000E+00 0.  1.
         -4   -1    0    0    0  501 -0.00000000000E+00 -0.00000000000E+00 -0.18192146246E+03  0.18192146246E+03  0.00000000000E+00 0.  1.
        -24    2    1    2    0    0  0.44676527276E+02  0.31466111729E+02 -0.61710373991E+02  0.11538588074E+03  0.80744182076E+02 0.  0.
         23    2    1    2    0    0  0.14471261862E+03  0.42740208538E+02  0.24576582886E+03  0.30199035205E+03  0.89603921141E+02 0.  0.
         11    1    3    3    0    0  0.47214706769E+01 -0.25773482094E+02 -0.82809502383E+01  0.27479788963E+02  0.00000000000E+00 0. -1.
        -12    1    3    3    0    0  0.39955056599E+02  0.57239593823E+02 -0.53429423753E+02  0.87906091777E+02  0.00000000000E+00 0.  1.
        -13    1    4    4    0    0  0.98957304396E+01 -0.18433494976E+02  0.90590329923E+01  0.22798800335E+02  0.00000000000E+00 0. -1.
         13    1    4    4    0    0  0.13481688818E+03  0.61173703514E+02  0.23670679586E+03  0.27919155171E+03  0.00000000000E+00 0.  1.
         -3    1    1    2    0  502 -0.18938914590E+03 -0.74206320267E+02  0.93236267770E+02  0.22375841477E+03  0.00000000000E+00 0.  1.
<scales pt_clust_5="13000.00000" pt_clust_6="13000.00000" pt_clust_7="13000.00000" pt_clust_8="13000.00000" pt_clust_9="166.55936"></scales>
<clustering>
<clus scale="   80.744">  5  6 -1 -1</clus>
<clus scale="   89.604">  7  8 -1 -1</clus>
<clus scale="   97.497">  2  5  1 -1</clus>
<clus scale="  166.559">  1  9  2 -1</clus>
<clus scale="  166.559">  1  5  2 -1</clus>
</clustering>
</event>
<event>
 9    1  0.4067873E-005  0.9768400E+02  0.7546771E-02  0.1291016E+00
         -4   -1    0    0    0  501 -0.00000000000E+00  0.00000000000E+00  0.15175094963E+03  0.15175094963E+03  0.00000000000E+00 0.  1.
         21   -1    0    0  501  502  0.00000000000E+00 -0.00000000000E+00 -0.45777572766E+03  0.45777572766E+03  0.00000000000E+00 0.  1.
         23    2    1    2    0    0  0.31379413307E+02  0.14766964695E+02  0.12573904917E+03  0.15944459402E+03  0.91703540018E+02 0.  0.
        -24    2    1    2    0    0 -0.27914499788E+02  0.15597828625E+02 -0.22801442038E+03  0.24405333023E+03  0.80925524651E+02 0.  0.
         11    1    4    4    0    0 -0.25059969029E+01 -0.29329776187E+02 -0.44012364622E+02  0.52949070164E+02  0.00000000000E+00 0. -1.
        -12    1    4    4    0    0 -0.25408502885E+02  0.44927604812E+02 -0.18400205576E+03  0.19110426007E+03  0.00000000000E+00 0.  1.
        -11    1    3    3    0    0 -0.16638509876E+02 -0.27276207759E+02  0.26778705147E+02  0.41688494455E+02  0.00000000000E+00 0. -1.
         11    1    3    3    0    0  0.48017923183E+02  0.42043172454E+02  0.98960344021E+02  0.11775609957E+03  0.00000000000E+00 0.  1.
         -3    1    1    2    0  502 -0.34649135192E+01 -0.30364793320E+02 -0.20374940682E+03  0.20602875304E+03  0.00000000000E+00 0.  1.
<scales pt_clust_5="13000.00000" pt_clust_6="13000.00000" pt_clust_7="13000.00000" pt_clust_8="13000.00000" pt_clust_9="30.56184"></scales>
<clustering>
<clus scale="   30.562">  2  9  1 -1</clus>
<clus scale="   80.926">  5  6 -1 -1</clus>
<clus scale="   87.645">  2  5  1 -1</clus>
<clus scale="   91.704">  7  8 -1 -1</clus>
<clus scale="   30.562">  2  5  1 -1</clus>
</clustering>
</event>
<event>
 9    1  0.4067873E-005  0.1295334E+03  0.7546771E-02  0.1247646E+00
          1   -1    0    0  502    0 -0.00000000000E+00  0.00000000000E+00  0.29077588177E+03  0.29077588177E+03  0.00000000000E+00 0. -1.
         21   -1    0    0  501  502  0.00000000000E+00 -0.00000000000E+00 -0.38610182166E+03  0.38610182166E+03  0.00000000000E+00 0.  1.
        -24    2    1    2    0    0  0.46021056693E+02 -0.18242149654E+01 -0.38961824451E+02  0.95378949218E+02  0.73877295362E+02 0.  0.
         23    2    1    2    0    0  0.88121333865E+02  0.19192080099E+02 -0.28695423780E+03  0.31416445373E+03  0.90680008690E+02 0.  0.
         13    1    3    3    0    0  0.17458829165E+02 -0.35653438550E+02 -0.31059146651E+02  0.50404850828E+02  0.00000000000E+00 0. -1.
        -14    1    3    3    0    0  0.28562227528E+02  0.33829223584E+02 -0.79026777994E+01  0.44974098391E+02  0.00000000000E+00 0.  1.
        -11    1    4    4    0    0  0.33001151131E+02 -0.36563979675E+02 -0.10155543398E+03  0.11286942348E+03  0.00000000000E+00 0. -1.
         11    1    4    4    0    0  0.55120182734E+02  0.55756059775E+02 -0.18539880381E+03  0.20129503025E+03  0.00000000000E+00 0.  1.
          2    1    1    2  501    0 -0.13414239056E+03 -0.17367865134E+02  0.23059012236E+03  0.26733430048E+03  0.00000000000E+00 0. -1.
<scales pt_clust_5="13000.00000" pt_clust_6="13000.00000" pt_clust_7="13000.00000" pt_clust_8="13000.00000" pt_clust_9="92.49893"></scales>
<clustering>
<clus scale="   73.877">  5  6 -1 -1</clus>
<clus scale="   87.058">  1  5  2 -1</clus>
<clus scale="   90.680">  7  8 -1 -1</clus>
<clus scale="   92.499">  2  9  1 -1</clus>
<clus scale="   92.499">  2  5  1 -1</clus>
</clustering>
</event>
<event>
 9    1  0.4067873E-005  0.1624368E+03  0.7546771E-02  0.1204863E+00
         21   -1    0    0  501  502  0.00000000000E+00  0.00000000000E+00  0.97882087242E+02  0.97882087242E+02  0.00000000000E+00 0.  1.
          1   -1    0    0  502    0 -0.00000000000E+00 -0.00000000000E+00 -0.74519378926E+03  0.74519378926E+03  0.00000000000E+00 0. -1.
        -24    2    1    2    0    0  0.35679494356E+01 -0.69238708170E+02 -0.47455873609E+03  0.48656484737E+03  0.82052591237E+02 0.  0.
         23    2    1    2    0    0 -0.13748251045E+03  0.47697291807E+02 -0.12797155029E+03  0.21367364798E+03  0.90017986148E+02 0.  0.
         11    1    3    3    0    0 -0.21392195918E+02 -0.68875689571E+02 -0.23786300826E+03  0.24855642691E+03  0.00000000000E+00 0. -1.
        -12    1    3    3    0    0  0.24960145354E+02 -0.36301859914E+00 -0.23669572783E+03  0.23800842046E+03  0.00000000000E+00 0.  1.
        -11    1    4    4    0    0 -0.11397542270E+03  0.64713295179E+02 -0.12997487859E+03  0.18458514734E+03  0.00000000000E+00 0.  1.
         11    1    4    4    0    0 -0.23507087743E+02 -0.17016003372E+02  0.20033283002E+01  0.29088500634E+02  0.00000000000E+00 0. -1.
          2    1    1    2  501    0  0.13391456101E+03  0.21541416363E+02 -0.44781415640E+02  0.14283738116E+03  0.00000000000E+00 0. -1.
<scales pt_clust_5="13000.00000" pt_clust_6="13000.00000" pt_clust_7="13000.00000" pt_clust_8="13000.00000" pt_clust_9="135.21272"></scales>
<clustering>
<clus scale="   82.053">  5  6 -1 -1</clus>
<clus scale="   90.018">  7  8 -1 -1</clus>
<clus scale="  107.421">  2  5  1 -1</clus>
<clus scale="  135.213">  1  9  2 -1</clus>
<clus scale="  135.213">  1  5  2 -1</clus>
</clustering>
</event>
<event>
 9    1  0.4067873E-005  0.1033649E+03  0.7546771E-02  0.1277542E+00
         21   -1    0    0  501  502  0.00000000000E+00  0.00000000000E+00  0.33024054074E+03  0.33024054074E+03  0.00000000000E+00 0. -1.
          3   -1    0    0  502    0 -0.00000000000E+00 -0.00000000000E+00 -0.22485104847E+03  0.22485104847E+03  0.00000000000E+00 0. -1.
        -24    2    1    2    0    0  0.15292779280E+02 -0.49908732499E+02 -0.19707316519E+03  0.21963147236E+03  0.81703124386E+02 0.  0.
         23    2    1    2    0    0  0.12698522278E+02  0.90885638067E+01  0.16011686034E+03  0.18475469197E+03  0.90846203988E+02 0.  0.
         11    1    3    3    0    0  0.17537144257E+02 -0.44478805178E+02 -0.20458347188E+03  0.21009596023E+03  0.00000000000E+00 0. -1.
        -12    1    3    3    0    0 -0.22443649776E+01 -0.54299273213E+01  0.75103066928E+01  0.95355121251E+01  0.00000000000E+00 0.  1.
        -11    1    4    4    0    0  0.14383188313E+02 -0.24911972322E+02  0.14443926667E+03  0.14727587796E+03  0.00000000000E+00 0. -1.
         11    1    4    4    0    0 -0.16846660347E+01  0.34000536128E+02  0.15677593672E+02  0.37478814015E+02  0.00000000000E+00 0.  1.
          4    1    1    2  501    0 -0.27991301558E+02  0.40820168693E+02  0.14234579711E+03  0.15070542488E+03  0.00000000000E+00 0. -1.
<scales pt_clust_5="13000.00000" pt_clust_6="13000.00000" pt_clust_7="13000.00000" pt_clust_8="13000.00000" pt_clust_9="49.49545"></scales>
<clustering>
<clus scale="   49.495">  1  9  2 -1</clus>
<clus scale="   81.703">  5  6 -1 -1</clus>
<clus scale="   90.846">  7  8 -1 -1</clus>
<clus scale="   95.429">  2  5  1 -1</clus>
<clus scale="   49.495">  1  5  2 -1</clus>
</clustering>
</event>
<event>
 9    1  0.4067873E-005  0.1169580E+03  0.7546771E-02  0.1251511E+00
          1   -1    0    0  502    0 -0.00000000000E+00  0.00000000000E+00  0.82908188577E+03  0.82908188577E+03  0.00000000000E+00 0. -1.
         21   -1    0    0  501  502  0.00000000000E+00 -0.00000000000E+00 -0.21179130619E+02  0.21179130619E+02  0.00000000000E+00 0. -1.
         23    2    1    2    0    0 -0.75501583182E+02  0.30895558146E+02  0.42391774248E+03  0.44126746194E+03  0.91409496202E+02 0.  0.
        -24    2    1    2    0    0  0.47659525062E+02 -0.47699268997E+02  0.32259925575E+03  0.33952589255E+03  0.81614344969E+02 0.  0.
         11    1    4    4    0    0  0.53463835586E+02 -0.66221399681E+02  0.23897050008E+03  0.25367411260E+03  0.00000000000E+00 0. -1.
        -12    1    4    4    0    0 -0.58043105234E+01  0.18522130684E+02  0.83628755670E+02  0.85851779951E+02  0.00000000000E+00 0.  1.
        -13    1    3    3    0    0  0.93850107104E+01  0.36016405026E+02  0.11621837814E+03  0.12203266479E+03  0.00000000000E+00 0.  1.
         13    1    3    3    0    0 -0.84886593893E+02 -0.51208468792E+01  0.30769936434E+03  0.31923479715E+03  0.00000000000E+00 0. -1.
          2    1    1    2  501    0  0.27842058120E+02  0.16803710850E+02  0.61385756913E+02  0.69467661905E+02  0.00000000000E+00 0. -1.
<scales pt_clust_5="13000.00000" pt_clust_6="13000.00000" pt_clust_7="13000.00000" pt_clust_8="13000.00000" pt_clust_9="32.51992"></scales>
<clustering>
<clus scale="   32.520">  2  9  1 -1</clus>
<clus scale="   81.614">  5  6 -1 -1</clus>
<clus scale="   91.409">  7  8 -1 -1</clus>
<clus scale="  109.473">  2  5  1 -1</clus>
<clus scale="   32.520">  2  5  1 -1</clus>
</clustering>
</event>
<event>
 9    1  0.4067873E-005  0.1239524E+03  0.7546771E-02  0.1240082E+00
         21   -1    0    0  501  502  0.00000000000E+00  0.00000000000E+00  0.19788662787E+03  0.19788662787E+03  0.00000000000E+00 0. -1.
          1   -1    0    0  502    0 -0.00000000000E+00 -0.00000000000E+00 -0.29874527054E+03  0.29874527054E+03  0.00000000000E+00 0. -1.
        -24    2    1    2    0    0 -0.18597903440E+02 -0.10773272683E+03 -0.18570083700E+03  0.22983883918E+03  0.79930399033E+02 0.  0.
         23    2    1    2    0    0 -0.56870043855E+02  0.33236895536E+02 -0.23597568682E+02  0.11512163098E+03  0.91418004560E+02 0.  0.
         13    1    3    3    0    0  0.27859066020E+02 -0.70759178955E+02 -0.10295499068E+03  0.12799499627E+03  0.00000000000E+00 0. -1.
        -14    1    3    3    0    0 -0.46456969459E+02 -0.36973547878E+02 -0.82745846319E+02  0.10184384290E+03  0.00000000000E+00 0.  1.
        -13    1    4    4    0    0 -0.13152646298E+02  0.43537875505E+02 -0.46208713876E+02  0.64836594190E+02  0.00000000000E+00 0.  1.
         13    1    4    4    0    0 -0.43717397557E+02 -0.10300979969E+02  0.22611145194E+02  0.50285036785E+02  0.00000000000E+00 0. -1.
          2    1    1    2  501    0  0.75467947295E+02  0.74495831297E+02  0.10843976300E+03  0.15167142826E+03  0.00000000000E+00 0. -1.
<scales pt_clust_5="13000.00000" pt_clust_6="13000.00000" pt_clust_7="13000.00000" pt_clust_8="13000.00000" pt_clust_9="106.04263"></scales>
<clustering>
<clus scale="   79.930">  5  6 -1 -1</clus>
<clus scale="   91.418">  7  8 -1 -1</clus>
<clus scale="  106.043">  1  9  2 -1</clus>
<clus scale="  115.740">  2  5  1 -1</clus>
<clus scale="  106.043">  1  5  2 -1</clus>
</clustering>
</event>
<event>
 9    1  0.4067873E-005  0.9416488E+02  0.7546771E-02  0.1298054E+00
         21   -1    0    0  501  502  0.00000000000E+00  0.00000000000E+00  0.16282089108E+03  0.16282089108E+03  0.00000000000E+00 0. -1.
          1   -1    0    0  502    0 -0.00000000000E+00 -0.00000000000E+00 -0.22942391809E+03  0.22942391809E+03  0.00000000000E+00 0. -1.
        -24    2    1    2    0    0 -0.22600360581E+02  0.50141887003E+00 -0.14671920979E+03  0.16917024558E+03  0.81123472225E+02 0.  0.
         23    2    1    2    0    0  0.87928523262E+02 -0.10671957944E+02  0.91647143294E+02  0.15596143705E+03  0.89885789102E+02 0.  0.
         11    1    3    3    0    0 -0.39390566295E+02 -0.29506606374E+02 -0.96203860183E+02  0.10806220082E+03  0.00000000000E+00 0. -1.
        -12    1    3    3    0    0  0.16790205714E+02  0.30008025244E+02 -0.50515349611E+02  0.61108044751E+02  0.00000000000E+00 0.  1.
        -13    1    4    4    0    0  0.58986447493E+02  0.27758888767E+02  0.85412934499E+02  0.10744917996E+03  0.00000000000E+00 0.  1.
         13    1    4    4    0    0  0.28942075769E+02 -0.38430846711E+02  0.62342087942E+01  0.48512257091E+02  0.00000000000E+00 0. -1.
          2    1    1    2  501    0 -0.65328162681E+02  0.10170539074E+02 -0.11530960507E+02  0.67113126544E+02  0.00000000000E+00 0. -1.
<scales pt_clust_5="13000.00000" pt_clust_6="13000.00000" pt_clust_7="13000.00000" pt_clust_8="13000.00000" pt_clust_9="66.11515"></scales>
<clustering>
<clus scale="   66.115">  1  9  2 -1</clus>
<clus scale="   81.123">  5  6 -1 -1</clus>
<clus scale="   85.840">  2  5  1 -1</clus>
<clus scale="   89.886">  7  8 -1 -1</clus>
<clus scale="   66.115">  1  5  2 -1</clus>
</clustering>
</event>
<event>
 9    1  0.4067873E-005  0.9888603E+02  0.7546771E-02  0.1286434E+00
          1   -1    0    0  502    0 -0.00000000000E+00  0.00000000000E+00  0.17618142490E+03  0.17618142490E+03  0.00000000000E+00 0. -1.
         21   -1    0    0  501  502  0.00000000000E+00 -0.00000000000E+00 -0.10425521772E+03  0.10425521772E+03  0.00000000000E+00 0. -1.
         23    2    1    2    0    0  0.59799384602E+02  0.46841050251E+02  0.62240382735E+02  0.13223760888E+03  0.88559977261E+02 0.  0.
        -24    2    1    2    0    0 -0.41572136629E+01 -0.14399614249E+02  0.14825437746E+02  0.83585462548E+02  0.80883277809E+02 0.  0.
         13    1    4    4    0    0  0.15976619663E+02 -0.43690097092E+02  0.55307122692E+01  0.46847259663E+02  0.00000000000E+00 0. -1.
        -14    1    4    4    0    0 -0.20133833326E+02  0.29290482843E+02  0.92947254772E+01  0.36738202885E+02  0.00000000000E+00 0.  1.
        -13    1    3    3    0    0  0.32582463123E+02 -0.23307522103E+02  0.12212960898E+02  0.41880949173E+02  0.00000000000E+00 0.  1.
         13    1    3    3    0    0  0.27216921479E+02  0.70148572354E+02  0.50027421837E+02  0.90356659709E+02  0.00000000000E+00 0. -1.
          2    1    1    2  501    0 -0.55642170939E+02 -0.32441436002E+02 -0.51396132963E+01  0.64613571187E+02  0.00000000000E+00 0. -1.
<scales pt_clust_5="13000.00000" pt_clust_6="13000.00000" pt_clust_7="13000.00000" pt_clust_8="13000.00000" pt_clust_9="64.40883"></scales>
<clustering>
<clus scale="   64.409">  2  9  1 -1</clus>
<clus scale="   80.883">  5  6 -1 -1</clus>
<clus scale="   88.560">  7  8 -1 -1</clus>
<clus scale="   92.074">  2  5  1 -1</clus>
<clus scale="   64.409">  2  5  1 -1</clus>
</clustering>
</event>
<event>
 9    1  0.4067873E-005  0.1054217E+03  0.7546771E-02  0.1273236E+00
          3   -1    0    0  502    0 -0.00000000000E+00  0.00000000000E+00  0.15710078602E+03  0.15710078602E+03  0.00000000000E+00 0. -1.
         21   -1    0    0  501  502  0.00000000000E+00 -0.00000000000E+00 -0.20998890967E+03  0.20998890967E+03  0.00000000000E+00 0.  1.
        -24    2    1    2    0    0  0.51124210093E+02  0.30708620406E+02  0.93196533511E+02  0.13683902203E+03  0.80514718320E+02 0.  0.
         23    2    1    2    0    0  0.59272730179E+01 -0.55414900246E+02 -0.12705669693E+03  0.16523271261E+03  0.89735730599E+02 0.  0.
         13    1    3    3    0    0  0.27847233537E+02  0.57915092019E+02  0.63144752053E+02  0.90093762331E+02  0.00000000000E+00 0. -1.
        -14    1    3    3    0    0  0.23276976556E+02 -0.27206471613E+02  0.30051781458E+02  0.46745259696E+02  0.00000000000E+00 0.  1.
        -11    1    4    4    0    0  0.21686968598E+02  0.94988264225E+01 -0.23885945839E+01  0.23796169743E+02  0.00000000000E+00 0. -1.
         11    1    4    4    0    0 -0.15759695580E+02 -0.64913726669E+02 -0.12466810234E+03  0.14143654286E+03  0.00000000000E+00 0.  1.
          4    1    1    2  501    0 -0.57051483111E+02  0.24706279841E+02 -0.19027960236E+02  0.65017961053E+02  0.00000000000E+00 0. -1.
<scales pt_clust_5="13000.00000" pt_clust_6="13000.00000" pt_clust_7="13000.00000" pt_clust_8="13000.00000" pt_clust_9="62.17131"></scales>
<clustering>
<clus scale="   62.171">  2  9  1 -1</clus>
<clus scale="   80.515">  5  6 -1 -1</clus>
<clus scale="   89.736">  7  8 -1 -1</clus>
<clus scale="   97.693">  1  5  2 -1</clus>
<clus scale="   62.171">  2  5  1 -1</clus>
</clustering>
</event>
<event>
 9    1  0.4067873E-005  0.8969871E+02  0.7546771E-02  0.1309312E+00
         21   -1    0    0  501  502  0.00000000000E+00  0.00000000000E+00  0.11302129157E+03  0.11302129157E+03  0.00000000000E+00 0.  1.
          1   -1    0    0  502    0 -0.00000000000E+00 -0.00000000000E+00 -0.20908934209E+03  0.20908934209E+03  0.00000000000E+00 0. -1.
        -24    2    1    2    0    0  0.96893809062E+01  0.19629177826E+02 -0.15134866480E+03  0.17213008454E+03  0.79013663011E+02 0.  0.
         23    2    1    2    0    0  0.29523672600E+02  0.37111798575E+01  0.29429891172E+02  0.97533473443E+02  0.88097899224E+02 0.  0.
         13    1    3    3    0    0  0.42974412381E+02  0.22620743866E+02 -0.88598712520E+02  0.10103578590E+03  0.00000000000E+00 0. -1.
        -14    1    3    3    0    0 -0.33285031475E+02 -0.29915660399E+01 -0.62749952278E+02  0.71094298636E+02  0.00000000000E+00 0.  1.
        -11    1    4    4    0    0 -0.21985118243E+02 -0.53780105373E+01 -0.16432570476E+02  0.27969586946E+02  0.00000000000E+00 0. -1.
         11    1    4    4    0    0  0.51508790843E+02  0.90891903948E+01  0.45862461648E+02  0.69563886497E+02  0.00000000000E+00 0.  1.
          2    1    1    2  501    0 -0.39213053506E+02 -0.23340357684E+02  0.25850723109E+02  0.52447075680E+02  0.00000000000E+00 0. -1.
<scales pt_clust_5="13000.00000" pt_clust_6="13000.00000" pt_clust_7="13000.00000" pt_clust_8="13000.00000" pt_clust_9="45.63371"></scales>
<clustering>
<clus scale="   45.634">  1  9  2 -1</clus>
<clus scale="   79.014">  5  6 -1 -1</clus>
<clus scale="   80.795">  2  5  1 -1</clus>
<clus scale="   88.098">  7  8 -1 -1</clus>
<clus scale="   45.634">  1  5  2 -1</clus>
</clustering>
</event>
<event>
 9    1  0.4067873E-005  0.1321542E+03  0.7546771E-02  0.1226473E+00
          1   -1    0    0  502    0 -0.00000000000E+00  0.00000000000E+00  0.69314060844E+03  0.69314060844E+03  0.00000000000E+00 0. -1.
         21   -1    0    0  501  502  0.00000000000E+00 -0.00000000000E+00 -0.69644484526E+02  0.69644484526E+02  0.00000000000E+00 0. -1.
        -24    2    1    2    0    0  0.33712334684E+02 -0.63474234816E+02  0.19239452455E+03  0.22054404793E+03  0.80364942624E+02 0.  0.
         23    2    1    2    0    0 -0.73432309306E+02  0.16297181194E+03  0.17877743752E+03  0.26811529490E+03  0.89287869604E+02 0.  0.
         11    1    3    3    0    0 -0.87897001503E+01 -0.42502835191E+02  0.33775357052E+02  0.54995677758E+02  0.00000000000E+00 0. -1.
        -12    1    3    3    0    0  0.42502034834E+02 -0.20971399624E+02  0.15861916750E+03  0.16554837017E+03  0.00000000000E+00 0.  1.
        -11    1    4    4    0    0  0.89486813847E+01  0.30284760040E+02  0.72852528364E+02  0.79402370734E+02  0.00000000000E+00 0.  1.
         11    1    4    4    0    0 -0.82380990691E+02  0.13268705190E+03  0.10592490916E+03  0.18871292417E+03  0.00000000000E+00 0. -1.
          2    1    1    2  501    0  0.39719974622E+02 -0.99497577124E+02  0.25232416184E+03  0.27412575013E+03  0.00000000000E+00 0. -1.
<scales pt_clust_5="13000.00000" pt_clust_6="13000.00000" pt_clust_7="13000.00000" pt_clust_8="13000.00000" pt_clust_9="107.13289"></scales>
<clustering>
<clus scale="   80.365">  5  6 -1 -1</clus>
<clus scale="   89.288">  7  8 -1 -1</clus>
<clus scale="  107.133">  2  9  1 -1</clus>
<clus scale="  126.297">  1  5  2 -1</clus>
<clus scale="  107.133">  2  5  1 -1</clus>
</clustering>
</event>
<event>
 9    1  0.4067873E-005  0.1081040E+03  0.7546771E-02  0.1269323E+00
         21   -1    0    0  501  502  0.00000000000E+00  0.00000000000E+00  0.18647290894E+03  0.18647290894E+03  0.00000000000E+00 0.  1.
          1   -1    0    0  502    0 -0.00000000000E+00 -0.00000000000E+00 -0.84978144012E+02  0.84978144012E+02  0.00000000000E+00 0. -1.
         23    2    1    2    0    0 -0.63025917928E+02  0.18037775148E+02  0.21256905767E+01  0.11326058343E+03  0.92335332000E+02 0.  0.
        -24    2    1    2    0    0  0.42371764114E+02 -0.11270136361E+02  0.49347225981E+02  0.10365075630E+03  0.79912127996E+02 0.  0.
         11    1    4    4    0    0  0.22984187679E+02 -0.41333804047E+02  0.48680596692E+02  0.67871619507E+02  0.00000000000E+00 0. -1.
        -12    1    4    4    0    0  0.19387576435E+02  0.30063667685E+02  0.66662928894E+00  0.35779136788E+02  0.00000000000E+00 0.  1.
        -11    1    3    3    0    0 -0.31806897462E+02  0.55579642127E+02  0.57799343282E+01  0.64297612599E+02  0.00000000000E+00 0.  1.
         11    1    3    3    0    0 -0.31219020467E+02 -0.37541866979E+02 -0.36542437515E+01  0.48962970831E+02  0.00000000000E+00 0. -1.
          2    1    1    2  501    0  0.20654153814E+02 -0.67676387865E+01  0.50021848371E+02  0.54539713228E+02  0.00000000000E+00 0. -1.
<scales pt_clust_5="13000.00000" pt_clust_6="13000.00000" pt_clust_7="13000.00000" pt_clust_8="13000.00000" pt_clust_9="21.73465"></scales>
<clustering>
<clus scale="   21.735">  1  9  2 -1</clus>
<clus scale="   79.912">  5  6 -1 -1</clus>
<clus scale="   92.335">  7  8 -1 -1</clus>
<clus scale="   97.707">  1  5  2 -1</clus>
<clus scale="   21.735">  1  5  2 -1</clus>
</clustering>
</event>
<event>
 9    1  0.4067873E-005  0.1470006E+03  0.7546771E-02  0.1206145E+00
         21   -1    0    0  501  502  0.00000000000E+00  0.00000000000E+00  0.12686306572E+03  0.12686306572E+03  0.00000000000E+00 0. -1.
          1   -1    0    0  502    0 -0.00000000000E+00 -0.00000000000E+00 -0.22604445518E+03  0.22604445518E+03  0.00000000000E+00 0. -1.
         23    2    1    2    0    0  0.94295911023E+02 -0.94304294161E+02 -0.75047741785E+02  0.17780968985E+03  0.90548901295E+02 0.  0.
        -24    2    1    2    0    0 -0.62625708788E+02  0.69304227607E+02  0.79854562290E+01  0.12352611522E+03  0.80435553488E+02 0.  0.
         13    1    4    4    0    0 -0.21507522789E+02  0.78151912268E+02  0.81540229449E+01  0.81466453328E+02  0.00000000000E+00 0. -1.
        -14    1    4    4    0    0 -0.41118185999E+02 -0.88476846615E+01 -0.16856671587E+00  0.42059661892E+02  0.00000000000E+00 0.  1.
        -13    1    3    3    0    0  0.70805835816E+02 -0.86305484598E+02 -0.94514421869E+02  0.14627056778E+03  0.00000000000E+00 0. -1.
         13    1    3    3    0    0  0.23490075207E+02 -0.79988095624E+01  0.19466680084E+02  0.31539122073E+02  0.00000000000E+00 0.  1.
          2    1    1    2  501    0 -0.31670202235E+02  0.25000066554E+02 -0.32119103907E+02  0.51571715824E+02  0.00000000000E+00 0. -1.
<scales pt_clust_5="13000.00000" pt_clust_6="13000.00000" pt_clust_7="13000.00000" pt_clust_8="13000.00000" pt_clust_9="40.34856"></scales>
<clustering>
<clus scale="   40.349">  1  9  2 -1</clus>
<clus scale="   80.436">  5  6 -1 -1</clus>
<clus scale="   90.549">  7  8 -1 -1</clus>
<clus scale="  140.996">  1  5  2 -1</clus>
<clus scale="   40.349">  1  5  2 -1</clus>
</clustering>
</event>
<event>
 9    1  0.4067873E-005  0.1257705E+03  0.7546771E-02  0.1239067E+00
         -2   -1    0    0    0  501 -0.00000000000E+00  0.00000000000E+00  0.13153423176E+03  0.13153423176E+03  0.00000000000E+00 0.  1.
         21   -1    0    0  501  502  0.00000000000E+00 -0.00000000000E+00 -0.35481083104E+03  0.35481083104E+03  0.00000000000E+00 0.  1.
        -24    2    1    2    0    0  0.91734087480E+02 -0.98294159443E+00  0.59601666645E+02  0.13200536364E+03  0.73871160696E+02 0.  0.
         23    2    1    2    0    0 -0.52774674726E+02 -0.71679914856E+02 -0.14305234345E+03  0.19201590194E+03  0.92102970338E+02 0.  0.
         11    1    3    3    0    0  0.98402088499E+01  0.20393133127E+02 -0.76516647780E+01  0.23900995017E+02  0.00000000000E+00 0. -1.
        -12    1    3    3    0    0  0.81893878630E+02 -0.21376074721E+02  0.67253331423E+02  0.10810436862E+03  0.00000000000E+00 0.  1.
        -13    1    4    4    0    0  0.20307702526E+02 -0.18498921611E+02 -0.64473099062E+01  0.28216673930E+02  0.00000000000E+00 0.  1.
         13    1    4    4    0    0 -0.73082377251E+02 -0.53180993245E+02 -0.13660503354E+03  0.16379922801E+03  0.00000000000E+00 0. -1.
         -1    1    1    2    0  502 -0.38959412754E+02  0.72662856450E+02 -0.13982592247E+03  0.16232379722E+03  0.00000000000E+00 0.  1.
<scales pt_clust_5="13000.00000" pt_clust_6="13000.00000" pt_clust_7="13000.00000" pt_clust_8="13000.00000" pt_clust_9="82.44833"></scales>
<clustering>
<clus scale="   73.871">  5  6 -1 -1</clus>
<clus scale="   82.448">  2  9  1 -1</clus>
<clus scale="   92.103">  7  8 -1 -1</clus>
<clus scale="  113.103">  1  5  2 -1</clus>
<clus scale="   82.448">  2  5  1 -1</clus>
</clustering>
</event>
<event>
 9    1  0.4067873E-005  0.1133796E+03  0.7546771E-02  0.1258083E+00
         21   -1    0    0  501  502  0.00000000000E+00  0.00000000000E+00  0.48366871952E+03  0.48366871952E+03  0.00000000000E+00 0.  1.
          3   -1    0    0  502    0 -0.00000000000E+00 -0.00000000000E+00 -0.49374591996E+02  0.49374591996E+02  0.00000000000E+00 0. -1.
        -24    2    1    2    0    0  0.58051939065E+02  0.45121087753E+02  0.42643092746E+02  0.11719017769E+03  0.80679391418E+02 0.  0.
         23    2    1    2    0    0 -0.47249361296E+02 -0.21409558390E+02  0.23707817271E+03  0.25909949910E+03  0.90750311979E+02 0.  0.
         13    1    3    3    0    0  0.45910594625E+01  0.45605799859E+02 -0.43069093051E+01  0.46038204521E+02  0.00000000000E+00 0. -1.
        -14    1    3    3    0    0  0.53460879603E+02 -0.48471210634E+00  0.46950002051E+02  0.71151973172E+02  0.00000000000E+00 0.  1.
        -11    1    4    4    0    0 -0.47267316417E+02  0.25509830891E+02  0.90977173364E+02  0.10564940486E+03  0.00000000000E+00 0. -1.
         11    1    4    4    0    0  0.17955121104E-01 -0.46919389281E+02  0.14610099934E+03  0.15345009424E+03  0.00000000000E+00 0.  1.
          4    1    1    2  501    0 -0.10802577770E+02 -0.23711529363E+02  0.15457286207E+03  0.15675363473E+03  0.00000000000E+00 0. -1.
<scales pt_clust_5="13000.00000" pt_clust_6="13000.00000" pt_clust_7="13000.00000" pt_clust_8="13000.00000" pt_clust_9="26.05633"></scales>
<clustering>
<clus scale="   26.056">  1  9  2 -1</clus>
<clus scale="   80.679">  5  6 -1 -1</clus>
<clus scale="   90.750">  7  8 -1 -1</clus>
<clus scale="  105.492">  2  5  1 -1</clus>
<clus scale="   26.056">  1  5  2 -1</clus>
</clustering>
</event>
<event>
 9    1  0.4067873E-005  0.9695968E+02  0.7546771E-02  0.1288183E+00
          1   -1    0    0  502    0 -0.00000000000E+00  0.00000000000E+00  0.28719365337E+03  0.28719365337E+03  0.00000000000E+00 0. -1.
         21   -1    0    0  501  502  0.00000000000E+00 -0.00000000000E+00 -0.45567839328E+02  0.45567839328E+02  0.00000000000E+00 0.  1.
        -24    2    1    2    0    0  0.72368432571E+01 -0.22025865293E+02  0.11937906592E+03  0.15301338825E+03  0.92866705343E+02 0.  0.
         23    2    1    2    0    0 -0.36524417116E+02  0.14194406913E+02  0.10836988974E+03  0.14640652499E+03  0.90306828767E+02 0.  0.
         13    1    3    3    0    0  0.35443226918E+02 -0.27639608645E+02  0.11557030702E+03  0.12400268612E+03  0.00000000000E+00 0. -1.
        -14    1    3    3    0    0 -0.28206383661E+02  0.56137433524E+01  0.38087589002E+01  0.29010702129E+02  0.00000000000E+00 0.  1.
        -13    1    4    4    0    0 -0.31125262134E+02 -0.83147922448E+01  0.11726391106E+03  0.12160897397E+03  0.00000000000E+00 0.  1.
         13    1    4    4    0    0 -0.53991549823E+01  0.22509199158E+02 -0.88940213149E+01  0.24797551016E+02  0.00000000000E+00 0. -1.
          2    1    1    2  501    0  0.29287573859E+02  0.78314583798E+01  0.13876858385E+02  0.33341579470E+02  0.00000000000E+00 0. -1.
<scales pt_clust_5="13000.00000" pt_clust_6="13000.00000" pt_clust_7="13000.00000" pt_clust_8="13000.00000" pt_clust_9="30.31656"></scales>
<clustering>
<clus scale="   30.317">  2  9  1 -1</clus>
<clus scale="   90.307">  7  8 -1 -1</clus>
<clus scale="   92.867">  5  6 -1 -1</clus>
<clus scale="   94.511">  2  7  1 -1</clus>
<clus scale="   30.317">  2  5  1 -1</clus>
</clustering>
</event>
<event>
 9    1  0.4067873E-005  0.3313875E+03  0.7546771E-02  0.1070734E+00
          1   -1    0    0  502    0 -0.00000000000E+00  0.00000000000E+00  0.27921406218E+04  0.27921406218E+04  0.00000000000E+00 0. -1.
         21   -1    0    0  501  502  0.00000000000E+00 -0.00000000000E+00 -0.72225801673E+02  0.72225801673E+02  0.00000000000E+00 0. -1.
        -24    2    1    2    0    0 -0.33799232616E+03 -0.16687022436E+03  0.19334963021E+04  0.19715538942E+04  0.80822788408E+02 0.  0.
         23    2    1    2    0    0  0.17627591309E+03  0.16329211588E+03  0.54625859114E+03  0.60325805842E+03  0.88228816205E+02 0.  0.
         13    1    3    3    0    0 -0.19921591998E+03 -0.11644910760E+03  0.13552276439E+04  0.13747324628E+04  0.00000000000E+00 0. -1.
        -14    1    3    3    0    0 -0.13877640618E+03 -0.50421116754E+02  0.57826865817E+03  0.59682143137E+03  0.00000000000E+00 0.  1.
        -13    1    4    4    0    0  0.16302892148E+03  0.12899092184E+03  0.38168645213E+03  0.43462815704E+03  0.00000000000E+00 0.  1.
         13    1    4    4    0    0  0.13246991608E+02  0.34301194043E+02  0.16457213901E+03  0.16862990137E+03  0.00000000000E+00 0. -1.
          2    1    1    2  501    0  0.16171641307E+03  0.35781084762E+01  0.24015992687E+03  0.28955447085E+03  0.00000000000E+00 0. -1.
<scales pt_clust_5="13000.00000" pt_clust_6="13000.00000" pt_clust_7="13000.00000" pt_clust_8="13000.00000" pt_clust_9="161.75599"></scales>
<clustering>
<clus scale="   80.823">  5  6 -1 -1</clus>
<clus scale="   88.229">  7  8 -1 -1</clus>
<clus scale="  161.756">  2  9  1 -1</clus>
<clus scale="  329.493">  1  5  2 -1</clus>
<clus scale="  161.756">  2  5  1 -1</clus>
</clustering>
</event>
<event>
 9    1  0.4067873E-005  0.1411133E+03  0.7546771E-02  0.1235628E+00
         -2   -1    0    0    0  501 -0.00000000000E+00  0.00000000000E+00  0.37898784511E+03  0.37898784511E+03  0.00000000000E+00 0.  1.
         21   -1    0    0  501  502  0.00000000000E+00 -0.00000000000E+00 -0.76570730585E+02  0.76570730585E+02  0.00000000000E+00 0.  1.
        -24    2    1    2    0    0  0.23238878012E+02 -0.21520545568E+02  0.89896849613E+02  0.12433636726E+03  0.79843029254E+02 0.  0.
         23    2    1    2    0    0 -0.28339826776E+02  0.12072654973E+03  0.14165275887E+03  0.20919739804E+03  0.91214043109E+02 0.  0.
         13    1    3    3    0    0 -0.13738500528E+02  0.15743933124E+02  0.78444639936E+00  0.20910121547E+02  0.00000000000E+00 0. -1.
        -14    1    3    3    0    0  0.36977378539E+02 -0.37264478692E+02  0.89112403214E+02  0.10342624571E+03  0.00000000000E+00 0.  1.
        -13    1    4    4    0    0 -0.17788926260E+02  0.16496210053E+02  0.88415632460E+02  0.91683667613E+02  0.00000000000E+00 0. -1.
         13    1    4    4    0    0 -0.10550900515E+02  0.10423033968E+03  0.53237126410E+02  0.11751373043E+03  0.00000000000E+00 0.  1.
         -1    1    1    2    0  502  0.51009487636E+01 -0.99206004161E+02  0.70867506046E+02  0.12202481040E+03  0.00000000000E+00 0.  1.
<scales pt_clust_5="13000.00000" pt_clust_6="13000.00000" pt_clust_7="13000.00000" pt_clust_8="13000.00000" pt_clust_9="107.67060"></scales>
<clustering>
<clus scale="   79.843">  5  6 -1 -1</clus>
<clus scale="   85.896">  1  5  2 -1</clus>
<clus scale="   91.214">  7  8 -1 -1</clus>
<clus scale="  107.671">  2  9  1 -1</clus>
<clus scale="  107.671">  2  5  1 -1</clus>
</clustering>
</event>
<event>
 9    1  0.4067873E-005  0.9843192E+02  0.7546771E-02  0.1289256E+00
          1   -1    0    0  502    0 -0.00000000000E+00  0.00000000000E+00  0.14297685437E+03  0.14297685437E+03  0.00000000000E+00 0. -1.
         21   -1    0    0  501  502  0.00000000000E+00 -0.00000000000E+00 -0.12077566993E+03  0.12077566993E+03  0.00000000000E+00 0. -1.
        -24    2    1    2    0    0 -0.11979044951E+02  0.22221968378E+02  0.41242820856E+02  0.94099231150E+02  0.80724108136E+02 0.  0.
         23    2    1    2    0    0  0.92510274508E-01 -0.56903911312E+02  0.26743497199E+02  0.11099832463E+03  0.91473218750E+02 0.  0.
         13    1    3    3    0    0 -0.28744600665E+02  0.28451199817E+02  0.57251323359E+02  0.70095911898E+02  0.00000000000E+00 0. -1.
        -14    1    3    3    0    0  0.16765555715E+02 -0.62292314380E+01 -0.16008502503E+02  0.24003319252E+02  0.00000000000E+00 0.  1.
        -13    1    4    4    0    0 -0.35502418056E+02 -0.24201168714E+02  0.42225825281E+02  0.60242332090E+02  0.00000000000E+00 0.  1.
         13    1    4    4    0    0  0.35594928331E+02 -0.32702742598E+02 -0.15482328082E+02  0.50755992545E+02  0.00000000000E+00 0. -1.
          2    1    1    2  501    0  0.11886534676E+02  0.34681942934E+02 -0.45785133609E+02  0.58654968518E+02  0.00000000000E+00 0. -1.
<scales pt_clust_5="13000.00000" pt_clust_6="13000.00000" pt_clust_7="13000.00000" pt_clust_8="13000.00000" pt_clust_9="36.66234"></scales>
<clustering>
<clus scale="   36.662">  2  9  1 -1</clus>
<clus scale="   80.724">  5  6 -1 -1</clus>
<clus scale="   88.532">  1  5  2 -1</clus>
<clus scale="   91.473">  7  8 -1 -1</clus>
<clus scale="   36.662">  2  5  1 -1</clus>
</clustering>
</event>
<event>
 9    1  0.4067873E-005  0.1000595E+03  0.7546771E-02  0.1285670E+00
          3   -1    0    0  502    0 -0.00000000000E+00  0.00000000000E+00  0.60846294241E+03  0.60846294241E+03  0.00000000000E+00 0. -1.
         21   -1    0    0  501  502  0.00000000000E+00 -0.00000000000E+00 -0.23999218399E+02  0.23999218399E+02  0.00000000000E+00 0.  1.
        -24    2    1    2    0    0  0.32539257942E+02 -0.16011379106E+02  0.27004855187E+03  0.28412424874E+03  0.80530744363E+02 0.  0.
         23    2    1    2    0    0 -0.53449878823E+02  0.32566542995E+00  0.16114524704E+03  0.19285490457E+03  0.91478019053E+02 0.  0.
         13    1    3    3    0    0  0.50210167919E+02  0.12423008215E+02  0.19853885316E+03  0.20516595310E+03  0.00000000000E+00 0. -1.
        -14    1    3    3    0    0 -0.17670909977E+02 -0.28434387321E+02  0.71509698711E+02  0.78958295647E+02  0.00000000000E+00 0.  1.
        -13    1    4    4    0    0 -0.53921589993E+02 -0.36706876830E+02  0.12556560363E+03  0.14149789217E+03  0.00000000000E+00 0. -1.
         13    1    4    4    0    0  0.47171116923E+00  0.37032542260E+02  0.35579643413E+02  0.51357012404E+02  0.00000000000E+00 0.  1.
          4    1    1    2  501    0  0.20910620881E+02  0.15685713676E+02  0.15326992509E+03  0.15548300749E+03  0.00000000000E+00 0. -1.
<scales pt_clust_5="13000.00000" pt_clust_6="13000.00000" pt_clust_7="13000.00000" pt_clust_8="13000.00000" pt_clust_9="26.13994"></scales>
<clustering>
<clus scale="   26.140">  2  9  1 -1</clus>
<clus scale="   80.531">  5  6 -1 -1</clus>
<clus scale="   90.160">  1  5  2 -1</clus>
<clus scale="   91.478">  7  8 -1 -1</clus>
<clus scale="   26.140">  2  5  1 -1</clus>
</clustering>
</event>
<event>
 9    1  0.4067873E-005  0.9099487E+02  0.7546771E-02  0.1308274E+00
          1   -1    0    0  502    0 -0.00000000000E+00  0.00000000000E+00  0.32595515781E+03  0.32595515781E+03  0.00000000000E+00 0. -1.
         21   -1    0    0  501  502  0.00000000000E+00 -0.00000000000E+00 -0.49009351499E+02  0.49009351499E+02  0.00000000000E+00 0. -1.
        -24    2    1    2    0    0 -0.24967646245E+02 -0.68258464756E+01  0.16988108655E+03  0.18855404359E+03  0.77608428984E+02 0.  0.
         23    2    1    2    0    0 -0.16650691615E+02 -0.30789097043E+02  0.69064212680E+02  0.11865348408E+03  0.89908674681E+02 0.  0.
         13    1    3    3    0    0  0.43205873656E+01  0.25601404848E+02  0.11752897271E+03  0.12036261393E+03  0.00000000000E+00 0. -1.
        -14    1    3    3    0    0 -0.29288233610E+02 -0.32427251323E+02  0.52352113838E+02  0.68191429665E+02  0.00000000000E+00 0.  1.
        -13    1    4    4    0    0 -0.20675720864E+02  0.18072099307E+02  0.63659495889E+02  0.69329774437E+02  0.00000000000E+00 0.  1.
         13    1    4    4    0    0  0.40250292498E+01 -0.48861196350E+02  0.54047167906E+01  0.49323709641E+02  0.00000000000E+00 0. -1.
          2    1    1    2  501    0  0.41618337859E+02  0.37614943519E+02  0.38000507084E+02  0.67756981638E+02  0.00000000000E+00 0. -1.
<scales pt_clust_5="13000.00000" pt_clust_6="13000.00000" pt_clust_7="13000.00000" pt_clust_8="13000.00000" pt_clust_9="56.09786"></scales>
<clustering>
<clus scale="   56.098">  2  9  1 -1</clus>
<clus scale="   77.608">  5  6 -1 -1</clus>
<clus scale="   78.864">  1  5  2 -1</clus>
<clus scale="   89.909">  7  8 -1 -1</clus>
<clus scale="   56.098">  2  5  1 -1</clus>
</clustering>
</event>
<event>
 9    1  0.4067873E-005  0.1498244E+03  0.7546771E-02  0.1206164E+00
         -4   -1    0    0    0  501 -0.00000000000E+00  0.00000000000E+00  0.43185858451E+03  0.43185858451E+03  0.00000000000E+00 0.  1.
         21   -1    0    0  501  502  0.00000000000E+00 -0.00000000000E+00 -0.10718246821E+03  0.10718246821E+03  0.00000000000E+00 0.  1.
         23    2    1    2    0    0  0.75087831376E+02  0.76002623987E+02  0.87233270017E+02  0.15915401428E+03  0.79408913790E+02 0.  0.
        -24    2    1    2    0    0  0.63428973937E+02 -0.11361672912E+03  0.13166920479E+03  0.20159012458E+03  0.79811045396E+02 0.  0.
         11    1    4    4    0    0 -0.81909642336E+01 -0.65578883805E+02  0.63653857649E+02  0.91757808876E+02  0.00000000000E+00 0. -1.
        -12    1    4    4    0    0  0.71619938170E+02 -0.48037845318E+02  0.68015347143E+02  0.10983231571E+03  0.00000000000E+00 0.  1.
        -13    1    3    3    0    0 -0.13865303363E+01  0.52434674028E+02  0.26994369915E+02  0.58991639356E+02  0.00000000000E+00 0.  1.
         13    1    3    3    0    0  0.76474361712E+02  0.23567949959E+02  0.60238900102E+02  0.10016237492E+03  0.00000000000E+00 0. -1.
         -3    1    1    2    0  502 -0.13851680531E+03  0.37614105136E+02  0.10577364149E+03  0.17829691386E+03  0.00000000000E+00 0.  1.
<scales pt_clust_5="13000.00000" pt_clust_6="13000.00000" pt_clust_7="13000.00000" pt_clust_8="13000.00000" pt_clust_9="126.79728"></scales>
<clustering>
<clus scale="   79.409">  7  8 -1 -1</clus>
<clus scale="   79.811">  5  6 -1 -1</clus>
<clus scale="  133.118">  1  7  2 -1</clus>
<clus scale="  126.797">  2  9  1 -1</clus>
<clus scale="  126.797">  2  5  1 -1</clus>
</clustering>
</event>
<event>
 9    1  0.4067873E-005  0.1753725E+03  0.7546771E-02  0.1187811E+00
          1   -1    0    0  502    0 -0.00000000000E+00  0.00000000000E+00  0.26864218408E+03  0.26864218408E+03  0.00000000000E+00 0. -1.
         21   -1    0    0  501  502  0.00000000000E+00 -0.00000000000E+00 -0.21603648993E+03  0.21603648993E+03  0.00000000000E+00 0. -1.
        -24    2    1    2    0    0 -0.39436848626E+02  0.85035728310E+02  0.86601005199E+01  0.12421636705E+03  0.81045471081E+02 0.  0.
         23    2    1    2    0    0 -0.69997871946E+02 -0.17330376650E+03  0.65929864067E+02  0.21815801054E+03  0.91171667899E+02 0.  0.
         13    1    3    3    0    0 -0.20197038331E+02  0.92868970226E+02  0.24436893571E+02  0.98131176267E+02  0.00000000000E+00 0. -1.
        -14    1    3    3    0    0 -0.19239810295E+02 -0.78332419154E+01 -0.15776793051E+02  0.26085190781E+02  0.00000000000E+00 0.  1.
        -11    1    4    4    0    0 -0.31040142382E+02 -0.15969416975E+03  0.69142716666E+02  0.17676660759E+03  0.00000000000E+00 0. -1.
         11    1    4    4    0    0 -0.38957729564E+02 -0.13609596752E+02 -0.32128525996E+01  0.41391402952E+02  0.00000000000E+00 0.  1.
          2    1    1    2  501    0  0.10943472057E+03  0.88268038190E+02 -0.21984270439E+02  0.14230429642E+03  0.00000000000E+00 0. -1.
<scales pt_clust_5="13000.00000" pt_clust_6="13000.00000" pt_clust_7="13000.00000" pt_clust_8="13000.00000" pt_clust_9="149.81073"></scales>
<clustering>
<clus scale="   81.045">  5  6 -1 -1</clus>
<clus scale="   91.172">  7  8 -1 -1</clus>
<clus scale="  123.914">  1  5  2 -1</clus>
<clus scale="  149.811">  2  9  1 -1</clus>
<clus scale="  149.811">  2  5  1 -1</clus>
</clustering>
</event>
<event>
 9    1  0.4067873E-005  0.1420507E+03  0.7546771E-02  0.1211635E+00
         21   -1    0    0  501  502  0.00000000000E+00  0.00000000000E+00  0.59118047243E+02  0.59118047243E+02  0.00000000000E+00 0.  1.
          1   -1    0    0  502    0 -0.00000000000E+00 -0.00000000000E+00 -0.61743218371E+03  0.61743218371E+03  0.00000000000E+00 0. -1.
         23    2    1    2    0    0 -0.78320401608E+02 -0.80716044310E+02 -0.47290552387E+03  0.49461342547E+03  0.91398255041E+02 0.  0.
        -24    2    1    2    0    0  0.79962419104E+02  0.52835524879E+02 -0.54066416051E+02  0.13995641876E+03  0.86481446856E+02 0.  0.
         11    1    4    4    0    0 -0.10625591602E+02  0.29841972072E+02 -0.29581286164E+02  0.43341654158E+02  0.00000000000E+00 0. -1.
        -12    1    4    4    0    0  0.90588010706E+02  0.22993552808E+02 -0.24485129887E+02  0.96614764606E+02  0.00000000000E+00 0.  1.
        -13    1    3    3    0    0 -0.27935862617E+02 -0.80946533173E+02 -0.37322484896E+03  0.38292237011E+03  0.00000000000E+00 0. -1.
         13    1    3    3    0    0 -0.50384538991E+02  0.23048886305E+00 -0.99680674915E+02  0.11169105535E+03  0.00000000000E+00 0.  1.
          2    1    1    2  501    0 -0.16420174954E+01  0.27880519431E+02 -0.31342196536E+02  0.41980386717E+02  0.00000000000E+00 0. -1.
<scales pt_clust_5="13000.00000" pt_clust_6="13000.00000" pt_clust_7="13000.00000" pt_clust_8="13000.00000" pt_clust_9="27.92883"></scales>
<clustering>
<clus scale="   27.929">  1  9  2 -1</clus>
<clus scale="   86.481">  5  6 -1 -1</clus>
<clus scale="   91.398">  7  8 -1 -1</clus>
<clus scale="  138.938">  1  5  2 -1</clus>
<clus scale="   27.929">  1  5  2 -1</clus>
</clustering>
</event>
<event>
 9    1  0.4067873E-005  0.1145573E+03  0.7546771E-02  0.1257543E+00
         21   -1    0    0  501  502  0.00000000000E+00  0.00000000000E+00  0.44840751573E+02  0.44840751573E+02  0.00000000000E+00 0.  1.
          1   -1    0    0  502    0 -0.00000000000E+00 -0.00000000000E+00 -0.43115449439E+03  0.43115449439E+03  0.00000000000E+00 0. -1.
         23    2    1    2    0    0  0.45194022911E+02  0.65882491257E+02 -0.25667514954E+03  0.28505638140E+03  0.94826187459E+02 0.  0.
        -24    2    1    2    0    0 -0.22804318546E+02 -0.41566009238E+02 -0.12684309592E+03  0.15776651214E+03  0.80952648526E+02 0.  0.
         13    1    4    4    0    0 -0.45016052655E+02 -0.36994979487E+02 -0.47285137867E+02  0.75039707935E+02  0.00000000000E+00 0. -1.
        -14    1    4    4    0    0  0.22211734109E+02 -0.45710297503E+01 -0.79557958053E+02  0.82726804209E+02  0.00000000000E+00 0.  1.
        -11    1    3    3    0    0  0.17089765996E+02  0.19918449428E+02 -0.38154878981E+01  0.26520985603E+02  0.00000000000E+00 0.  1.
         11    1    3    3    0    0  0.28104256914E+02  0.45964041829E+02 -0.25285966164E+03  0.25853539580E+03  0.00000000000E+00 0. -1.
          2    1    1    2  501    0 -0.22389704365E+02 -0.24316482019E+02 -0.27954973616E+01  0.33172352416E+02  0.00000000000E+00 0. -1.
<scales pt_clust_5="13000.00000" pt_clust_6="13000.00000" pt_clust_7="13000.00000" pt_clust_8="13000.00000" pt_clust_9="33.05435"></scales>
<clustering>
<clus scale="   33.054">  1  9  2 -1</clus>
<clus scale="   80.953">  5  6 -1 -1</clus>
<clus scale="   94.826">  7  8 -1 -1</clus>
<clus scale="  103.367">  1  5  2 -1</clus>
<clus scale="   33.054">  1  5  2 -1</clus>
</clustering>
</event>
<event>
 9    1  0.4067873E-005  0.9532234E+02  0.7546771E-02  0.1295988E+00
         21   -1    0    0  501  502  0.00000000000E+00  0.00000000000E+00  0.13663841508E+03  0.13663841508E+03  0.00000000000E+00 0.  1.
         -2   -1    0    0    0  501 -0.00000000000E+00 -0.00000000000E+00 -0.24908616991E+03  0.24908616991E+03  0.00000000000E+00 0.  1.
        -24    2    1    2    0    0 -0.35763685015E+02  0.42113273034E+01 -0.19109493565E+03  0.21056016691E+03  0.80756009149E+02 0.  0.
         23    2    1    2    0    0 -0.15916516921E+01  0.76741693071E+01  0.42558861857E+01  0.91076660779E+02  0.90638950467E+02 0.  0.
         13    1    3    3    0    0  0.52288588182E+01  0.31898245569E+02 -0.39171272960E+02  0.50786097115E+02  0.00000000000E+00 0. -1.
        -14    1    3    3    0    0 -0.40992543833E+02 -0.27686918265E+02 -0.15192366269E+03  0.15977406979E+03  0.00000000000E+00 0.  1.
        -11    1    4    4    0    0  0.20253442411E+02  0.40470581753E+02 -0.14381525274E+02  0.47485768249E+02  0.00000000000E+00 0. -1.
         11    1    4    4    0    0 -0.21845094103E+02 -0.32796412446E+02  0.18637411460E+02  0.43590892531E+02  0.00000000000E+00 0.  1.
         -1    1    1    2    0  502  0.37355336707E+02 -0.11885496610E+02  0.74391294639E+02  0.84087757303E+02  0.00000000000E+00 0.  1.
<scales pt_clust_5="13000.00000" pt_clust_6="13000.00000" pt_clust_7="13000.00000" pt_clust_8="13000.00000" pt_clust_9="39.20059"></scales>
<clustering>
<clus scale="   39.201">  1  9  2 -1</clus>
<clus scale="   80.756">  5  6 -1 -1</clus>
<clus scale="   85.979">  2  5  1 -1</clus>
<clus scale="   90.639">  7  8 -1 -1</clus>
<clus scale="   39.201">  1  5  2 -1</clus>
</clustering>
</event>
<event>
 9    1  0.4067873E-005  0.1433929E+03  0.7546771E-02  0.1230078E+00
         21   -1    0    0  501  502  0.00000000000E+00  0.00000000000E+00  0.38507430536E+03  0.38507430536E+03  0.00000000000E+00 0. -1.
          1   -1    0    0  502    0 -0.00000000000E+00 -0.00000000000E+00 -0.50174377409E+03  0.50174377409E+03  0.00000000000E+00 0. -1.
        -24    2    1    2    0    0 -0.44354198393E+02 -0.67244411335E+01  0.38462538987E+02  0.99490444392E+02  0.80040418517E+02 0.  0.
         23    2    1    2    0    0  0.15074695158E+03  0.15817029988E+02 -0.44439491519E+03  0.47898509381E+03  0.94683988040E+02 0.  0.
         13    1    3    3    0    0 -0.29756203913E+02 -0.30714291856E+02 -0.95966979736E+01  0.43828027648E+02  0.00000000000E+00 0. -1.
        -14    1    3    3    0    0 -0.14597994480E+02  0.23989850723E+02  0.48059236960E+02  0.55662416744E+02  0.00000000000E+00 0.  1.
        -11    1    4    4    0    0  0.57059444783E+02  0.45078282114E+02 -0.12248383877E+03  0.14244340110E+03  0.00000000000E+00 0. -1.
         11    1    4    4    0    0  0.93687506798E+02 -0.29261252126E+02 -0.32191107642E+03  0.33654169270E+03  0.00000000000E+00 0.  1.
          2    1    1    2  501    0 -0.10639275319E+03 -0.90925888549E+01  0.28926290748E+03  0.30834254125E+03  0.00000000000E+00 0. -1.
<scales pt_clust_5="13000.00000" pt_clust_6="13000.00000" pt_clust_7="13000.00000" pt_clust_8="13000.00000" pt_clust_9="107.68686"></scales>
<clustering>
<clus scale="   80.040">  5  6 -1 -1</clus>
<clus scale="   91.755">  2  5  1 -1</clus>
<clus scale="   94.684">  7  8 -1 -1</clus>
<clus scale="  107.687">  1  9  2 -1</clus>
<clus scale="  107.687">  1  5  2 -1</clus>
</clustering>
</event>
<event>
 9    1  0.4067873E-005  0.1267024E+03  0.7546771E-02  0.1237119E+00
          1   -1    0    0  502    0 -0.00000000000E+00  0.00000000000E+00  0.51919957749E+03  0.51919957749E+03  0.00000000000E+00 0. -1.
         21   -1    0    0  501  502  0.00000000000E+00 -0.00000000000E+00 -0.11639548995E+03  0.11639548995E+03  0.00000000000E+00 0. -1.
         23    2    1    2    0    0  0.35816605430E+02 -0.72089254773E+02  0.41290746914E+03  0.43102841184E+03  0.93878772146E+02 0.  0.
        -24    2    1    2    0    0 -0.62163194103E+02  0.91933906251E+02  0.43017211723E+02  0.14203865897E+03  0.77513833075E+02 0.  0.
         13    1    4    4    0    0 -0.46250603187E+02  0.76616416616E+02  0.65207068381E+02  0.11073010140E+03  0.00000000000E+00 0. -1.
        -14    1    4    4    0    0 -0.15912590916E+02  0.15317489635E+02 -0.22189856658E+02  0.31308557566E+02  0.00000000000E+00 0.  1.
        -13    1    3    3    0    0  0.60244217760E+02 -0.31087240003E+02  0.16184301138E+03  0.17546778222E+03  0.00000000000E+00 0. -1.
         13    1    3    3    0    0 -0.24427612331E+02 -0.41002014770E+02  0.25106445776E+03  0.25556062962E+03  0.00000000000E+00 0.  1.
          2    1    1    2  501    0  0.26346588674E+02 -0.19844651478E+02 -0.53120593327E+02  0.62527996629E+02  0.00000000000E+00 0. -1.
<scales pt_clust_5="13000.00000" pt_clust_6="13000.00000" pt_clust_7="13000.00000" pt_clust_8="13000.00000" pt_clust_9="32.98413"></scales>
<clustering>
<clus scale="   32.984">  2  9  1 -1</clus>
<clus scale="   77.514">  5  6 -1 -1</clus>
<clus scale="   93.879">  7  8 -1 -1</clus>
<clus scale="  115.103">  2  5  1 -1</clus>
<clus scale="   32.984">  2  5  1 -1</clus>
</clustering>
</event>
<event>
 9    1  0.4067873E-005  0.1044599E+03  0.7546771E-02  0.1278682E+00
          3   -1    0    0  502    0 -0.00000000000E+00  0.00000000000E+00  0.37024394231E+03  0.37024394231E+03  0.00000000000E+00 0. -1.
         21   -1    0    0  501  502  0.00000000000E+00 -0.00000000000E+00 -0.38323658424E+02  0.38323658424E+02  0.00000000000E+00 0.  1.
         23    2    1    2    0    0  0.49409651977E+02 -0.37795334390E+02  0.19437527320E+03  0.22350132610E+03  0.91111442349E+02 0.  0.
        -24    2    1    2    0    0 -0.41061431856E+02  0.31390553685E+01  0.77425732448E+02  0.11517294111E+03  0.74660347337E+02 0.  0.
         11    1    4    4    0    0  0.14162657769E+02  0.17618840769E+02  0.53573442432E+01  0.23231563927E+02  0.00000000000E+00 0. -1.
        -12    1    4    4    0    0 -0.55224089625E+02 -0.14479785401E+02  0.72068388205E+02  0.91941377185E+02  0.00000000000E+00 0.  1.
        -11    1    3    3    0    0 -0.17220821876E+02 -0.34025521010E+02  0.10674093026E+03  0.11334866112E+03  0.00000000000E+00 0. -1.
         11    1    3    3    0    0  0.66630473853E+02 -0.37698133803E+01  0.87634342944E+02  0.11015266498E+03  0.00000000000E+00 0.  1.
          4    1    1    2  501    0 -0.83482201215E+01  0.34656279022E+02  0.60119278239E+02  0.69893333522E+02  0.00000000000E+00 0. -1.
<scales pt_clust_5="13000.00000" pt_clust_6="13000.00000" pt_clust_7="13000.00000" pt_clust_8="13000.00000" pt_clust_9="35.64760"></scales>
<clustering>
<clus scale="   35.648">  2  9  1 -1</clus>
<clus scale="   74.660">  5  6 -1 -1</clus>
<clus scale="   90.470">  2  5  1 -1</clus>
<clus scale="   91.111">  7  8 -1 -1</clus>
<clus scale="   35.648">  2  5  1 -1</clus>
</clustering>
</event>
<event>
 9    1  0.4067873E-005  0.1714539E+03  0.7546771E-02  0.1177732E+00
         21   -1    0    0  501  502  0.00000000000E+00  0.00000000000E+00  0.25927347197E+03  0.25927347197E+03  0.00000000000E+00 0. -1.
         -4   -1    0    0    0  501 -0.00000000000E+00 -0.00000000000E+00 -0.56743889735E+03  0.56743889735E+03  0.00000000000E+00 0.  1.
        -24    2    1    2    0    0 -0.14542420999E+03  0.34239693920E+02 -0.43000595614E+03  0.46231640077E+03  0.80689371167E+02 0.  0.
         23    2    1    2    0    0  0.75680321255E+02 -0.15388315072E+03  0.25877270614E+02  0.19590942882E+03  0.91122643006E+02 0.  0.
         11    1    3    3    0    0 -0.32163546369E+02 -0.24690904554E+02 -0.78739657349E+02  0.88566743884E+02  0.00000000000E+00 0. -1.
        -12    1    3    3    0    0 -0.11326066362E+03  0.58930598475E+02 -0.35126629879E+03  0.37374965689E+03  0.00000000000E+00 0.  1.
        -11    1    4    4    0    0  0.94619243284E+02 -0.12363175938E+03  0.77450867753E+01  0.15587687287E+03  0.00000000000E+00 0.  1.
         11    1    4    4    0    0 -0.18938922029E+02 -0.30251391339E+02  0.18132183839E+02  0.40032555956E+02  0.00000000000E+00 0. -1.
         -3    1    1    2    0  502  0.69743888737E+02  0.11964345680E+03  0.95963260138E+02  0.16848653972E+03  0.00000000000E+00 0.  1.
<scales pt_clust_5="13000.00000" pt_clust_6="13000.00000" pt_clust_7="13000.00000" pt_clust_8="13000.00000" pt_clust_9="138.48742"></scales>
<clustering>
<clus scale="   80.689">  5  6 -1 -1</clus>
<clus scale="   91.123">  7  8 -1 -1</clus>
<clus scale="  138.487">  1  9  2 -1</clus>
<clus scale="  166.144">  2  5  1 -1</clus>
<clus scale="  138.487">  1  5  2 -1</clus>
</clustering>
</event>
<event>
 9    1  0.4067873E-005  0.2244734E+03  0.7546771E-02  0.1153392E+00
          1   -1    0    0  502    0 -0.00000000000E+00  0.00000000000E+00  0.88344511041E+03  0.88344511041E+03  0.00000000000E+00 0. -1.
         21   -1    0    0  501  502  0.00000000000E+00 -0.00000000000E+00 -0.21286881727E+03  0.21286881727E+03  0.00000000000E+00 0. -1.
        -24    2    1    2    0    0 -0.94965520470E+02  0.36299208517E+02  0.55427522282E+03  0.56926118673E+03  0.80629978720E+02 0.  0.
         23    2    1    2    0    0 -0.76606050392E+02 -0.16795994368E+03  0.20764357526E+03  0.29228731265E+03  0.90757860007E+02 0.  0.
         13    1    3    3    0    0 -0.92690459442E+02  0.31621726039E+02  0.55537564097E+03  0.56394464038E+03  0.00000000000E+00 0. -1.
        -14    1    3    3    0    0 -0.22750610285E+01  0.46774824787E+01 -0.11004181485E+01  0.53165463530E+01  0.00000000000E+00 0.  1.
        -13    1    4    4    0    0 -0.23298480609E+02 -0.30522945627E+01  0.23409192918E+01  0.23613885829E+02  0.00000000000E+00 0.  1.
         13    1    4    4    0    0 -0.53307569783E+02 -0.16490764912E+03  0.20530265597E+03  0.26867342682E+03  0.00000000000E+00 0. -1.
          2    1    1    2  501    0  0.17157157086E+03  0.13166073516E+03 -0.91342504944E+02  0.23476542829E+03  0.00000000000E+00 0. -1.
<scales pt_clust_5="13000.00000" pt_clust_6="13000.00000" pt_clust_7="13000.00000" pt_clust_8="13000.00000" pt_clust_9="205.30784"></scales>
<clustering>
<clus scale="   80.630">  5  6 -1 -1</clus>
<clus scale="   90.758">  7  8 -1 -1</clus>
<clus scale="  129.759">  1  5  2 -1</clus>
<clus scale="  205.308">  2  9  1 -1</clus>
<clus scale="  205.308">  2  5  1 -1</clus>
</clustering>
</event>
<event>
 9    1  0.4067873E-005  0.1355070E+03  0.7546771E-02  0.1222626E+00
         21   -1    0    0  501  502  0.00000000000E+00  0.00000000000E+00  0.24080991442E+03  0.24080991442E+03  0.00000000000E+00 0. -1.
         -2   -1    0    0    0  501 -0.00000000000E+00 -0.00000000000E+00 -0.26297678787E+03  0.26297678787E+03  0.00000000000E+00 0.  1.
         23    2    1    2    0    0  0.10065738163E+03  0.27073189458E+02 -0.21796943410E+03  0.25896547108E+03  0.93207161464E+02 0.  0.
        -24    2    1    2    0    0 -0.57628495497E+02 -0.17960483121E+02  0.11372792708E+03  0.15170425137E+03  0.80227900626E+02 0.  0.
         13    1    4    4    0    0  0.71215241442E+01 -0.23097753854E+02  0.68273756141E+02  0.72426018231E+02  0.00000000000E+00 0. -1.
        -14    1    4    4    0    0 -0.64750019641E+02  0.51372707326E+01  0.45454170944E+02  0.79278233143E+02  0.00000000000E+00 0.  1.
        -13    1    3    3    0    0  0.24518343724E+02  0.24345580458E+02 -0.78123183715E+01  0.35424409453E+02  0.00000000000E+00 0. -1.
         13    1    3    3    0    0  0.76139037904E+02  0.27276090002E+01 -0.21015711572E+03  0.22354106163E+03  0.00000000000E+00 0.  1.
         -1    1    1    2    0  502 -0.43028886131E+02 -0.91127063366E+01  0.82074633563E+02  0.93116979832E+02  0.00000000000E+00 0.  1.
<scales pt_clust_5="13000.00000" pt_clust_6="13000.00000" pt_clust_7="13000.00000" pt_clust_8="13000.00000" pt_clust_9="43.98325"></scales>
<clustering>
<clus scale="   43.983">  1  9  2 -1</clus>
<clus scale="   80.228">  5  6 -1 -1</clus>
<clus scale="   93.207">  7  8 -1 -1</clus>
<clus scale="  126.929">  1  5  2 -1</clus>
<clus scale="   43.983">  1  5  2 -1</clus>
</clustering>
</event>
<event>
 9    1  0.4067873E-005  0.9471614E+02  0.7546771E-02  0.1300467E+00
         21   -1    0    0  501  502  0.00000000000E+00  0.00000000000E+00  0.31578704467E+02  0.31578704467E+02  0.00000000000E+00 0.  1.
          3   -1    0    0  502    0 -0.00000000000E+00 -0.00000000000E+00 -0.41008426681E+03  0.41008426681E+03  0.00000000000E+00 0. -1.
        -24    2    1    2    0    0 -0.29220873234E+01 -0.24602402674E+01 -0.11276900451E+03  0.13745531304E+03  0.78501740929E+02 0.  0.
         23    2    1    2    0    0 -0.20860003280E+02  0.35663738568E+02 -0.14763485388E+03  0.17924337290E+03  0.92871387751E+02 0.  0.
         13    1    3    3    0    0  0.35664092883E+02  0.61859467204E+01 -0.72410145606E+02  0.80953212689E+02  0.00000000000E+00 0. -1.
        -14    1    3    3    0    0 -0.38586180206E+02 -0.86461869878E+01 -0.40358858903E+02  0.56502100352E+02  0.00000000000E+00 0.  1.
        -13    1    4    4    0    0  0.10028019165E+02 -0.24818334237E+02 -0.75801997682E+02  0.80389388200E+02  0.00000000000E+00 0. -1.
         13    1    4    4    0    0 -0.30888022445E+02  0.60482072805E+02 -0.71832856203E+02  0.98853984703E+02  0.00000000000E+00 0.  1.
          4    1    1    2  501    0  0.23782090603E+02 -0.33203498301E+02 -0.11810170395E+03  0.12496428534E+03  0.00000000000E+00 0. -1.
<scales pt_clust_5="13000.00000" pt_clust_6="13000.00000" pt_clust_7="13000.00000" pt_clust_8="13000.00000" pt_clust_9="40.84191"></scales>
<clustering>
<clus scale="   40.842">  1  9  2 -1</clus>
<clus scale="   78.502">  5  6 -1 -1</clus>
<clus scale="   80.676">  2  5  1 -1</clus>
<clus scale="   92.871">  7  8 -1 -1</clus>
<clus scale="   40.842">  1  5  2 -1</clus>
</clustering>
</event>
<event>
 9    1  0.4067873E-005  0.1064821E+03  0.7546771E-02  0.1271618E+00
         -2   -1    0    0    0  501 -0.00000000000E+00  0.00000000000E+00  0.63584708413E+03  0.63584708413E+03  0.00000000000E+00 0.  1.
         21   -1    0    0  501  502  0.00000000000E+00 -0.00000000000E+00 -0.26361534416E+02  0.26361534416E+02  0.00000000000E+00 0. -1.
        -24    2    1    2    0    0  0.49590776093E+02  0.37296741728E+02  0.38904163737E+03  0.40286226800E+03  0.84227782529E+02 0.  0.
         23    2    1    2    0    0 -0.21042706529E+02 -0.19018480379E+02  0.18926461404E+03  0.21328947531E+03  0.94163730055E+02 0.  0.
         13    1    3    3    0    0  0.54785335195E+02 -0.10705167863E+02  0.18860067887E+03  0.19668820413E+03  0.00000000000E+00 0. -1.
        -14    1    3    3    0    0 -0.51945591028E+01  0.48001909591E+02  0.20044095850E+03  0.20617406387E+03  0.00000000000E+00 0.  1.
        -13    1    4    4    0    0 -0.28408412724E+02 -0.45603379209E+02  0.17325378291E+03  0.18139343815E+03  0.00000000000E+00 0.  1.
         13    1    4    4    0    0  0.73657061951E+01  0.26584898830E+02  0.16010831125E+02  0.31896037165E+02  0.00000000000E+00 0. -1.
         -1    1    1    2    0  502 -0.28548069564E+02 -0.18278261349E+02  0.31179298296E+02  0.46056875231E+02  0.00000000000E+00 0.  1.
<scales pt_clust_5="13000.00000" pt_clust_6="13000.00000" pt_clust_7="13000.00000" pt_clust_8="13000.00000" pt_clust_9="33.89819"></scales>
<clustering>
<clus scale="   33.898">  2  9  1 -1</clus>
<clus scale="   84.228">  5  6 -1 -1</clus>
<clus scale="   94.164">  7  8 -1 -1</clus>
<clus scale="   97.806">  1  5  2 -1</clus>
<clus scale="   33.898">  2  5  1 -1</clus>
</clustering>
</event>
<event>
 9    1  0.4067873E-005  0.9386475E+02  0.7546771E-02  0.1303413E+00
         21   -1    0    0  501  502  0.00000000000E+00  0.00000000000E+00  0.28900354909E+03  0.28900354909E+03  0.00000000000E+00 0. -1.
          3   -1    0    0  502    0 -0.00000000000E+00 -0.00000000000E+00 -0.18649927978E+03  0.18649927978E+03  0.00000000000E+00 0. -1.
        -24    2    1    2    0    0 -0.97255858672E+01  0.19202281387E+02 -0.11748446578E+03  0.14059781088E+03  0.74174322334E+02 0.  0.
         23    2    1    2    0    0 -0.23668206773E+01 -0.46481642117E+02 -0.10863932984E+02  0.10213185764E+03  0.90259328667E+02 0.  0.
         13    1    3    3    0    0 -0.20906633013E+02  0.44650793531E+02 -0.71081246071E+02  0.86506209083E+02  0.00000000000E+00 0. -1.
        -14    1    3    3    0    0  0.11181047146E+02 -0.25448512144E+02 -0.46403219709E+02  0.54091601797E+02  0.00000000000E+00 0.  1.
        -11    1    4    4    0    0 -0.24462611386E+02  0.18708729946E+02  0.57336215938E+01  0.31325873469E+02  0.00000000000E+00 0.  1.
         11    1    4    4    0    0  0.22095790708E+02 -0.65190372063E+02 -0.16597554578E+02  0.70805984173E+02  0.00000000000E+00 0. -1.
          4    1    1    2  501    0  0.12092406544E+02  0.27279360730E+02  0.23085266807E+03  0.23277316034E+03  0.00000000000E+00 0. -1.
<scales pt_clust_5="13000.00000" pt_clust_6="13000.00000" pt_clust_7="13000.00000" pt_clust_8="13000.00000" pt_clust_9="29.83940"></scales>
<clustering>
<clus scale="   29.839">  1  9  2 -1</clus>
<clus scale="   74.174">  5  6 -1 -1</clus>
<clus scale="   78.522">  2  5  1 -1</clus>
<clus scale="   90.259">  7  8 -1 -1</clus>
<clus scale="   29.839">  1  5  2 -1</clus>
</clustering>
</event>
<event>
 9    1  0.4067873E-005  0.9926890E+02  0.7546771E-02  0.1290775E+00
         -2   -1    0    0    0  501 -0.00000000000E+00  0.00000000000E+00  0.37191027321E+03  0.37191027321E+03  0.00000000000E+00 0.  1.
         21   -1    0    0  501  502  0.00000000000E+00 -0.00000000000E+00 -0.26731376054E+03  0.26731376054E+03  0.00000000000E+00 0.  1.
        -24    2    1    2    0    0  0.29630454021E+02 -0.70648925307E+01  0.32741189333E+03  0.33825209735E+03  0.79297269547E+02 0.  0.
         23    2    1    2    0    0  0.97802850600E+01  0.60145631680E+01 -0.25054880450E+02  0.99319946604E+02  0.95419472924E+02 0.  0.
         13    1    3    3    0    0  0.39062711133E+02 -0.27040453107E+02  0.11131955899E+03  0.12103357270E+03  0.00000000000E+00 0. -1.
        -14    1    3    3    0    0 -0.94322571118E+01  0.19975560576E+02  0.21609233434E+03  0.21721852466E+03  0.00000000000E+00 0.  1.
        -11    1    4    4    0    0  0.34203057276E+02  0.26654165411E+02 -0.44307306659E+02  0.61995411799E+02  0.00000000000E+00 0.  1.
         11    1    4    4    0    0 -0.24422772216E+02 -0.20639602243E+02  0.19252426209E+02  0.37324534805E+02  0.00000000000E+00 0. -1.
         -1    1    1    2    0  502 -0.39410739081E+02  0.10503293628E+01 -0.19776050020E+03  0.20165198979E+03  0.00000000000E+00 0.  1.
<scales pt_clust_5="13000.00000" pt_clust_6="13000.00000" pt_clust_7="13000.00000" pt_clust_8="13000.00000" pt_clust_9="39.42473"></scales>
<clustering>
<clus scale="   39.425">  2  9  1 -1</clus>
<clus scale="   79.297">  5  6 -1 -1</clus>
<clus scale="   83.890">  1  5  2 -1</clus>
<clus scale="   95.419">  7  8 -1 -1</clus>
<clus scale="   39.425">  2  5  1 -1</clus>
</clustering>
</event>
<event>
 9    1  0.4067873E-005  0.1082264E+03  0.7546771E-02  0.1268639E+00
         21   -1    0    0  501  502  0.00000000000E+00  0.00000000000E+00  0.55080265742E+03  0.55080265742E+03  0.00000000000E+00 0. -1.
          3   -1    0    0  502    0 -0.00000000000E+00 -0.00000000000E+00 -0.19773011929E+03  0.19773011929E+03  0.00000000000E+00 0. -1.
        -24    2    1    2    0    0 -0.40230041931E+02 -0.60614294592E+02 -0.96294582559E+02  0.14475541563E+03  0.79930812206E+02 0.  0.
         23    2    1    2    0    0  0.69738645917E+02 -0.35381694018E+02 -0.21567420851E+02  0.12225339496E+03  0.91462538397E+02 0.  0.
         13    1    3    3    0    0  0.73571411724E+01 -0.53829760617E+02 -0.73910422857E+02  0.91730699667E+02  0.00000000000E+00 0. -1.
        -14    1    3    3    0    0 -0.47587183103E+02 -0.67845339749E+01 -0.22384159702E+02  0.53024715959E+02  0.00000000000E+00 0.  1.
        -11    1    4    4    0    0  0.12198896664E+02 -0.52009930806E+02 -0.30780710060E+02  0.61654668064E+02  0.00000000000E+00 0. -1.
         11    1    4    4    0    0  0.57539749253E+02  0.16628236788E+02  0.92132892094E+01  0.60598726891E+02  0.00000000000E+00 0.  1.
          4    1    1    2  501    0 -0.29508603986E+02  0.95995988610E+02  0.47093454154E+03  0.48152396613E+03  0.00000000000E+00 0. -1.
<scales pt_clust_5="13000.00000" pt_clust_6="13000.00000" pt_clust_7="13000.00000" pt_clust_8="13000.00000" pt_clust_9="100.42902"></scales>
<clustering>
<clus scale="   79.931">  5  6 -1 -1</clus>
<clus scale="   91.463">  7  8 -1 -1</clus>
<clus scale="  100.429">  1  9  2 -1</clus>
<clus scale="   98.674">  2  5  1 -1</clus>
<clus scale="  100.429">  1  5  2 -1</clus>
</clustering>
</event>
<event>
 9    1  0.4067873E-005  0.1376596E+03  0.7546771E-02  0.1225749E+00
         -4   -1    0    0    0  501 -0.00000000000E+00  0.00000000000E+00  0.70426849178E+03  0.70426849178E+03  0.00000000000E+00 0.  1.
         21   -1    0    0  501  502  0.00000000000E+00 -0.00000000000E+00 -0.14208544428E+03  0.14208544428E+03  0.00000000000E+00 0.  1.
        -24    2    1    2    0    0  0.82765802701E+02 -0.15187719736E-02  0.58070270962E+03  0.59167824771E+03  0.77571475060E+02 0.  0.
         23    2    1    2    0    0  0.21935584211E+02 -0.76618303307E+02  0.86304173744E+01  0.12212341801E+03  0.92130944126E+02 0.  0.
         13    1    3    3    0    0  0.10156282638E+02 -0.22975660666E+02  0.54718173936E+02  0.60208883223E+02  0.00000000000E+00 0. -1.
        -14    1    3    3    0    0  0.72609520063E+02  0.22974141894E+02  0.52598453569E+03  0.53146936448E+03  0.00000000000E+00 0.  1.
        -11    1    4    4    0    0 -0.12276382148E+02 -0.69592568755E+02  0.34520503510E+02  0.78647951958E+02  0.00000000000E+00 0.  1.
         11    1    4    4    0    0  0.34211966359E+02 -0.70257345517E+01 -0.25890086136E+02  0.43475466050E+02  0.00000000000E+00 0. -1.
         -3    1    1    2    0  502 -0.10470138691E+03  0.76619822079E+02 -0.27150079494E+02  0.13255227034E+03  0.00000000000E+00 0.  1.
<scales pt_clust_5="13000.00000" pt_clust_6="13000.00000" pt_clust_7="13000.00000" pt_clust_8="13000.00000" pt_clust_9="102.28419"></scales>
<clustering>
<clus scale="   77.571">  5  6 -1 -1</clus>
<clus scale="   92.131">  7  8 -1 -1</clus>
<clus scale="  113.435">  1  5  2 -1</clus>
<clus scale="  102.284">  2  9  1 -1</clus>
<clus scale="  102.284">  2  5  1 -1</clus>
</clustering>
</event>
<event>
 9    1  0.4067873E-005  0.1029394E+03  0.7546771E-02  0.1280028E+00
         21   -1    0    0  501  502  0.00000000000E+00  0.00000000000E+00  0.69460043888E+02  0.69460043888E+02  0.00000000000E+00 0. -1.
         -4   -1    0    0    0  501 -0.00000000000E+00 -0.00000000000E+00 -0.28277747436E+03  0.28277747436E+03  0.00000000000E+00 0.  1.
         23    2    1    2    0    0 -0.20813967193E+02  0.45456773028E+02 -0.22031681940E+03  0.24407154180E+03  0.92368160964E+02 0.  0.
        -24    2    1    2    0    0  0.13873783274E+02 -0.23695641769E+02  0.91336895910E+01  0.85225439716E+02  0.80162247898E+02 0.  0.
         11    1    4    4    0    0  0.39101655006E+02 -0.25633143927E+01  0.27183513368E+02  0.47691229842E+02  0.00000000000E+00 0. -1.
        -12    1    4    4    0    0 -0.25227871732E+02 -0.21132327377E+02 -0.18049823777E+02  0.37534209874E+02  0.00000000000E+00 0.  1.
        -11    1    3    3    0    0  0.69621890748E+00 -0.24069644181E+02 -0.21239611477E+02  0.32108465978E+02  0.00000000000E+00 0. -1.
         11    1    3    3    0    0 -0.21510186100E+02  0.69526417208E+02 -0.19907720793E+03  0.21196307582E+03  0.00000000000E+00 0.  1.
         -3    1    1    2    0  502  0.69401839191E+01 -0.21761131258E+02 -0.21343006648E+01  0.22940536737E+02  0.00000000000E+00 0.  1.
<scales pt_clust_5="13000.00000" pt_clust_6="13000.00000" pt_clust_7="13000.00000" pt_clust_8="13000.00000" pt_clust_9="22.84104"></scales>
<clustering>
<clus scale="   22.841">  1  9  2 -1</clus>
<clus scale="   80.162">  5  6 -1 -1</clus>
<clus scale="   92.145">  1  5  2 -1</clus>
<clus scale="   92.368">  7  8 -1 -1</clus>
<clus scale="   22.841">  1  5  2 -1</clus>
</clustering>
</event>
<event>
 9    1  0.4067873E-005  0.9368632E+02  0.7546771E-02  0.1300332E+00
         21   -1    0    0  501  502  0.00000000000E+00  0.00000000000E+00  0.77005643116E+02  0.77005643116E+02  0.00000000000E+00 0. -1.
         -2   -1    0    0    0  501 -0.00000000000E+00 -0.00000000000E+00 -0.20137764228E+03  0.20137764228E+03  0.00000000000E+00 0.  1.
        -24    2    1    2    0    0  0.73595894901E+01 -0.13350275360E+02 -0.71712971503E+02  0.10901141872E+03  0.80674318843E+02 0.  0.
         23    2    1    2    0    0 -0.49418618976E+02  0.54260291846E+01 -0.30282766735E+01  0.10383586830E+03  0.91110237582E+02 0.  0.
         11    1    3    3    0    0 -0.19804946014E+02 -0.38793524666E+02 -0.48307620721E+02  0.65044597488E+02  0.00000000000E+00 0. -1.
        -12    1    3    3    0    0  0.27164535504E+02  0.25443249305E+02 -0.23405350782E+02  0.43966821236E+02  0.00000000000E+00 0.  1.
        -13    1    4    4    0    0 -0.46036104286E+02  0.41568408673E+02 -0.17975764477E+02  0.64578507307E+02  0.00000000000E+00 0.  1.
         13    1    4    4    0    0 -0.33825146905E+01 -0.36142379488E+02  0.14947487803E+02  0.39257360996E+02  0.00000000000E+00 0. -1.
         -1    1    1    2    0  502  0.42059029486E+02  0.79242461758E+01 -0.49630750988E+02  0.65535998371E+02  0.00000000000E+00 0.  1.
<scales pt_clust_5="13000.00000" pt_clust_6="13000.00000" pt_clust_7="13000.00000" pt_clust_8="13000.00000" pt_clust_9="42.79904"></scales>
<clustering>
<clus scale="   42.799">  1  9  2 -1</clus>
<clus scale="   80.674">  5  6 -1 -1</clus>
<clus scale="   83.573">  2  5  1 -1</clus>
<clus scale="   91.110">  7  8 -1 -1</clus>
<clus scale="   42.799">  1  5  2 -1</clus>
</clustering>
</event>
<event>
 9    1  0.4067873E-005  0.9496125E+02  0.7546771E-02  0.1293001E+00
         21   -1    0    0  501  502  0.00000000000E+00  0.00000000000E+00  0.83285896314E+02  0.83285896314E+02  0.00000000000E+00 0. -1.
          1   -1    0    0  502    0 -0.00000000000E+00 -0.00000000000E+00 -0.30629220038E+03  0.30629220038E+03  0.00000000000E+00 0. -1.
        -24    2    1    2    0    0  0.28584657975E+02  0.26542189541E+02 -0.18576454841E+03  0.21118205597E+03  0.92562534647E+02 0.  0.
         23    2    1    2    0    0  0.34297189921E+02 -0.26754192261E+01 -0.52716510010E+02  0.10937997345E+03  0.89451065165E+02 0.  0.
         13    1    3    3    0    0  0.58098787520E+02  0.63001671170E+01 -0.14816290136E+03  0.15927148695E+03  0.00000000000E+00 0. -1.
        -14    1    3    3    0    0 -0.29514129545E+02  0.20242022424E+02 -0.37601647047E+02  0.51910569013E+02  0.00000000000E+00 0.  1.
        -11    1    4    4    0    0 -0.13831020219E+02  0.33096558324E+02 -0.19434356049E+02  0.40796733793E+02  0.00000000000E+00 0. -1.
         11    1    4    4    0    0  0.48128210140E+02 -0.35771977550E+02 -0.33282153961E+02  0.68583239654E+02  0.00000000000E+00 0.  1.
          2    1    1    2  501    0 -0.62881847896E+02 -0.23866770315E+02  0.15474754355E+02  0.69016067277E+02  0.00000000000E+00 0. -1.
<scales pt_clust_5="13000.00000" pt_clust_6="13000.00000" pt_clust_7="13000.00000" pt_clust_8="13000.00000" pt_clust_9="67.25882"></scales>
<clustering>
<clus scale="   67.259">  1  9  2 -1</clus>
<clus scale="   89.451">  7  8 -1 -1</clus>
<clus scale="   91.931">  1  7  2 -1</clus>
<clus scale="   92.563">  5  6 -1 -1</clus>
<clus scale="   67.259">  1  5  2 -1</clus>
</clustering>
</event>
<event>
 9    1  0.4067873E-005  0.1309821E+03  0.7546771E-02  0.1244906E+00
         21   -1    0    0  501  502  0.00000000000E+00  0.00000000000E+00  0.64961511218E+02  0.64961511218E+02  0.00000000000E+00 0. -1.
          1   -1    0    0  502    0 -0.00000000000E+00 -0.00000000000E+00 -0.59284080321E+03  0.59284080321E+03  0.00000000000E+00 0. -1.
        -24    2    1    2    0    0  0.26914117697E+02 -0.32341976910E+02 -0.35569680281E+03  0.36665482608E+03  0.78391152288E+02 0.  0.
         23    2    1    2    0    0  0.51253647543E+02 -0.44594949145E+02 -0.60550324430E+02  0.13465074614E+03  0.99241300737E+02 0.  0.
         11    1    3    3    0    0  0.50810207804E+02 -0.35353500693E+02 -0.29352531975E+03  0.29998110035E+03  0.00000000000E+00 0. -1.
        -12    1    3    3    0    0 -0.23896090107E+02  0.30115237829E+01 -0.62171483058E+02  0.66673725737E+02  0.00000000000E+00 0.  1.
        -11    1    4    4    0    0  0.75203459853E+02 -0.55968955324E+02 -0.46471974134E+02  0.10463139449E+03  0.00000000000E+00 0. -1.
         11    1    4    4    0    0 -0.23949812309E+02  0.11374006180E+02 -0.14078350296E+02  0.30019351647E+02  0.00000000000E+00 0.  1.
          2    1    1    2  501    0 -0.78167765240E+02  0.76936926055E+02 -0.11163216474E+03  0.15649674220E+03  0.00000000000E+00 0. -1.
<scales pt_clust_5="13000.00000" pt_clust_6="13000.00000" pt_clust_7="13000.00000" pt_clust_8="13000.00000" pt_clust_9="85.48380"></scales>
<clustering>
<clus scale="   78.391">  5  6 -1 -1</clus>
<clus scale="   88.969">  2  5  1 -1</clus>
<clus scale="   85.484">  1  9  2 -1</clus>
<clus scale="   99.241">  7  8 -1 -1</clus>
<clus scale="   85.484">  1  5  2 -1</clus>
</clustering>
</event>
<event>
 9    1  0.4067873E-005  0.9702543E+02  0.7546771E-02  0.1295654E+00
         21   -1    0    0  501  502  0.00000000000E+00  0.00000000000E+00  0.22409747420E+03  0.22409747420E+03  0.00000000000E+00 0.  1.
         -4   -1    0    0    0  501 -0.00000000000E+00 -0.00000000000E+00 -0.11398156207E+03  0.11398156207E+03  0.00000000000E+00 0.  1.
         23    2    1    2    0    0  0.15221916238E+02 -0.20858333974E+02 -0.52025080688E+02  0.11140328815E+03  0.95064750349E+02 0.  0.
        -24    2    1    2    0    0  0.10571815724E+02  0.14070235677E+02  0.22726536621E+02  0.84732852967E+02  0.79708381525E+02 0.  0.
         13    1    4    4    0    0 -0.33397153186E+02  0.12662089738E+02  0.19325633257E+02  0.40610078284E+02  0.00000000000E+00 0. -1.
        -14    1    4    4    0    0  0.43968968910E+02  0.14081459389E+01  0.34009033647E+01  0.44122774682E+02  0.00000000000E+00 0.  1.
        -11    1    3    3    0    0  0.40186515396E+02  0.12008542444E+02  0.36471399590E+01  0.42100626376E+02  0.00000000000E+00 0. -1.
         11    1    3    3    0    0 -0.24964599158E+02 -0.32866876418E+02 -0.55672220647E+02  0.69302661770E+02  0.00000000000E+00 0.  1.
         -3    1    1    2    0  502 -0.25793731962E+02  0.67880982974E+01  0.13941445620E+03  0.14194289515E+03  0.00000000000E+00 0.  1.
<scales pt_clust_5="13000.00000" pt_clust_6="13000.00000" pt_clust_7="13000.00000" pt_clust_8="13000.00000" pt_clust_9="26.67199"></scales>
<clustering>
<clus scale="   26.672">  1  9  2 -1</clus>
<clus scale="   79.708">  5  6 -1 -1</clus>
<clus scale="   82.037">  1  5  2 -1</clus>
<clus scale="   95.065">  7  8 -1 -1</clus>
<clus scale="   26.672">  1  5  2 -1</clus>
</clustering>
</event>
<event>
 9    1  0.4067873E-005  0.1153953E+03  0.7546771E-02  0.1255809E+00
         -2   -1    0    0    0  501 -0.00000000000E+00  0.00000000000E+00  0.17987162206E+03  0.17987162206E+03  0.00000000000E+00 0.  1.
         21   -1    0    0  501  502  0.00000000000E+00 -0.00000000000E+00 -0.32338401481E+03  0.32338401481E+03  0.00000000000E+00 0.  1.
        -24    2    1    2    0    0  0.25354548788E+02  0.67732792762E+02  0.12463519348E+03  0.16385050754E+03  0.77990210978E+02 0.  0.
         23    2    1    2    0    0 -0.85860930864E+02 -0.13925715680E+02 -0.15119340644E+03  0.19715709249E+03  0.91899118391E+02 0.  0.
         13    1    3    3    0    0  0.30037046997E+02  0.13664419350E+02  0.62047138992E+01  0.33577358786E+02  0.00000000000E+00 0. -1.
        -14    1    3    3    0    0 -0.46824982094E+01  0.54068373412E+02  0.11843047958E+03  0.13027314876E+03  0.00000000000E+00 0.  1.
        -13    1    4    4    0    0 -0.60843083014E+02  0.35232930620E+02 -0.97270061218E+02  0.12001960240E+03  0.00000000000E+00 0.  1.
         13    1    4    4    0    0 -0.25017847850E+02 -0.49158646300E+02 -0.53923345220E+02  0.77137490086E+02  0.00000000000E+00 0. -1.
         -1    1    1    2    0  502  0.60506382076E+02 -0.53807077082E+02 -0.11695417979E+03  0.14224803685E+03  0.00000000000E+00 0.  1.
<scales pt_clust_5="13000.00000" pt_clust_6="13000.00000" pt_clust_7="13000.00000" pt_clust_8="13000.00000" pt_clust_9="80.97051"></scales>
<clustering>
<clus scale="   77.990">  5  6 -1 -1</clus>
<clus scale="   80.971">  2  9  1 -1</clus>
<clus scale="   91.899">  7  8 -1 -1</clus>
<clus scale="  104.657">  1  5  2 -1</clus>
<clus scale="   80.971">  2  5  1 -1</clus>
</clustering>
</event>
<event>
 9    1  0.4067873E-005  0.9670992E+02  0.7546771E-02  0.1293318E+00
         21   -1    0    0  501  502  0.00000000000E+00  0.00000000000E+00  0.75805927241E+02  0.75805927241E+02  0.00000000000E+00 0. -1.
         -4   -1    0    0    0  501 -0.00000000000E+00 -0.00000000000E+00 -0.26999882977E+03  0.26999882977E+03  0.00000000000E+00 0.  1.
         23    2    1    2    0    0  0.88719920016E+01  0.85705039421E+01 -0.70231633558E+02  0.11594830642E+03  0.91429544624E+02 0.  0.
        -24    2    1    2    0    0 -0.47657453023E+02 -0.51149207747E+02 -0.16514844335E+02  0.10794667997E+03  0.80574632186E+02 0.  0.
         13    1    4    4    0    0 -0.47691690342E+02  0.43483015541E+01 -0.20951544767E+02  0.52272098506E+02  0.00000000000E+00 0. -1.
        -14    1    4    4    0    0  0.34237318876E-01 -0.55497509301E+02  0.44367004325E+01  0.55674581467E+02  0.00000000000E+00 0.  1.
        -11    1    3    3    0    0  0.27982543250E+02  0.43889112681E+02 -0.37751231892E+02  0.64299552472E+02  0.00000000000E+00 0. -1.
         11    1    3    3    0    0 -0.19110551249E+02 -0.35318608739E+02 -0.32480401666E+02  0.51648753951E+02  0.00000000000E+00 0.  1.
         -3    1    1    2    0  502  0.38785461021E+02  0.42578703805E+02 -0.10744642463E+03  0.12190977061E+03  0.00000000000E+00 0.  1.
<scales pt_clust_5="13000.00000" pt_clust_6="13000.00000" pt_clust_7="13000.00000" pt_clust_8="13000.00000" pt_clust_9="57.59567"></scales>
<clustering>
<clus scale="   57.596">  1  9  2 -1</clus>
<clus scale="   80.575">  5  6 -1 -1</clus>
<clus scale="   86.520">  1  5  2 -1</clus>
<clus scale="   91.430">  7  8 -1 -1</clus>
<clus scale="   57.596">  1  5  2 -1</clus>
</clustering>
</event>
<event>
 9    1  0.4067873E-005  0.1267453E+03  0.7546771E-02  0.1253657E+00
         21   -1    0    0  501  502  0.00000000000E+00  0.00000000000E+00  0.20651987713E+02  0.20651987713E+02  0.00000000000E+00 0. -1.
          1   -1    0    0  502    0 -0.00000000000E+00 -0.00000000000E+00 -0.11039620026E+04  0.11039620026E+04  0.00000000000E+00 0. -1.
        -24    2    1    2    0    0 -0.30854352278E+02 -0.39069166232E+01 -0.32915808586E+03  0.33932157974E+03  0.76333701186E+02 0.  0.
         23    2    1    2    0    0  0.56759397655E+02 -0.75191474352E+02 -0.52410760867E+03  0.54065386873E+03  0.93500980019E+02 0.  0.
         11    1    3    3    0    0 -0.20728228059E+02 -0.30427721338E+02 -0.74652306476E+02  0.83237446660E+02  0.00000000000E+00 0. -1.
        -12    1    3    3    0    0 -0.10126124219E+02  0.26520804715E+02 -0.25450577938E+03  0.25608413308E+03  0.00000000000E+00 0.  1.
        -11    1    4    4    0    0 -0.22294800889E+02  0.72809714696E+00 -0.68163992687E+02  0.71721113845E+02  0.00000000000E+00 0.  1.
         11    1    4    4    0    0  0.79054198544E+02 -0.75919571499E+02 -0.45594361599E+03  0.46893275488E+03  0.00000000000E+00 0. -1.
          2    1    1    2  501    0 -0.25905045377E+02  0.79098390975E+02 -0.23004432039E+03  0.24463854188E+03  0.00000000000E+00 0. -1.
<scales pt_clust_5="13000.00000" pt_clust_6="13000.00000" pt_clust_7="13000.00000" pt_clust_8="13000.00000" pt_clust_9="85.56826"></scales>
<clustering>
<clus scale="   76.334">  5  6 -1 -1</clus>
<clus scale="   82.426">  2  5  1 -1</clus>
<clus scale="   85.568">  1  9  2 -1</clus>
<clus scale="   93.501">  7  8 -1 -1</clus>
<clus scale="   85.568">  1  5  2 -1</clus>
</clustering>
</event>
<event>
 9    1  0.4067873E-005  0.1041480E+03  0.7546771E-02  0.1277413E+00
         21   -1    0    0  501  502  0.00000000000E+00  0.00000000000E+00  0.10389220694E+03  0.10389220694E+03  0.00000000000E+00 0.  1.
         -2   -1    0    0    0  501 -0.00000000000E+00 -0.00000000000E+00 -0.17569885095E+03  0.17569885095E+03  0.00000000000E+00 0.  1.
         23    2    1    2    0    0  0.20025190101E+02 -0.76901537797E+02 -0.20704781458E+02  0.10465179190E+03  0.64872604528E+02 0.  0.
        -24    2    1    2    0    0 -0.18349817552E+02  0.47156499907E+02  0.21381461341E+02  0.96572140258E+02  0.79426444572E+02 0.  0.
         13    1    4    4    0    0  0.12158779441E+02 -0.16717536214E+02  0.14916530542E+02  0.25491465591E+02  0.00000000000E+00 0. -1.
        -14    1    4    4    0    0 -0.30508596993E+02  0.63874036121E+02  0.64649307988E+01  0.71080674667E+02  0.00000000000E+00 0.  1.
        -13    1    3    3    0    0 -0.19802610749E+02 -0.47006440679E+02 -0.20167518099E+02  0.54849591102E+02  0.00000000000E+00 0.  1.
         13    1    3    3    0    0  0.39827800850E+02 -0.29895097118E+02 -0.53726335884E+00  0.49802200796E+02  0.00000000000E+00 0. -1.
         -1    1    1    2    0  502 -0.16753725496E+01  0.29745037891E+02 -0.72483323900E+02  0.78367125734E+02  0.00000000000E+00 0.  1.
<scales pt_clust_5="13000.00000" pt_clust_6="13000.00000" pt_clust_7="13000.00000" pt_clust_8="13000.00000" pt_clust_9="29.79220"></scales>
<clustering>
<clus scale="   29.792">  1  9  2 -1</clus>
<clus scale="   64.873">  7  8 -1 -1</clus>
<clus scale="   79.426">  5  6 -1 -1</clus>
<clus scale="   93.524">  2  7  1 -1</clus>
<clus scale="   29.792">  1  5  2 -1</clus>
</clustering>
</event>
<event>
 9    1  0.4067873E-005  0.9598310E+02  0.7546771E-02  0.1296888E+00
          1   -1    0    0  502    0 -0.00000000000E+00  0.00000000000E+00  0.67857209058E+03  0.67857209058E+03  0.00000000000E+00 0. -1.
         21   -1    0    0  501  502  0.00000000000E+00 -0.00000000000E+00 -0.33616978793E+02  0.33616978793E+02  0.00000000000E+00 0.  1.
        -24    2    1    2    0    0 -0.72926593918E+00 -0.85575927274E+01  0.10812675154E+03  0.13283640774E+03  0.76683457151E+02 0.  0.
         23    2    1    2    0    0 -0.48981263436E+02  0.49122617520E+02  0.15704594461E+03  0.19418861711E+03  0.90739156797E+02 0.  0.
         13    1    3    3    0    0  0.83390799753E+00 -0.41110936599E+02  0.79296541173E+02  0.89323826344E+02  0.00000000000E+00 0. -1.
        -14    1    3    3    0    0 -0.15631739367E+01  0.32553343872E+02  0.28830210365E+02  0.43512581395E+02  0.00000000000E+00 0.  1.
        -13    1    4    4    0    0 -0.28871190164E+02 -0.24102959612E+00  0.56428006048E+00  0.28877709894E+02  0.00000000000E+00 0.  1.
         13    1    4    4    0    0 -0.20110073272E+02  0.49363647116E+02  0.15648166455E+03  0.16531090722E+03  0.00000000000E+00 0. -1.
          2    1    1    2  501    0  0.49710529375E+02 -0.40565024793E+02  0.37978241564E+03  0.38516404452E+03  0.00000000000E+00 0. -1.
<scales pt_clust_5="13000.00000" pt_clust_6="13000.00000" pt_clust_7="13000.00000" pt_clust_8="13000.00000" pt_clust_9="64.16122"></scales>
<clustering>
<clus scale="   64.161">  2  9  1 -1</clus>
<clus scale="   76.683">  5  6 -1 -1</clus>
<clus scale="   82.822">  1  5  2 -1</clus>
<clus scale="   90.739">  7  8 -1 -1</clus>
<clus scale="   64.161">  2  5  1 -1</clus>
</clustering>
</event>
<event>
 9    1  0.4067873E-005  0.1187005E+03  0.7546771E-02  0.1249958E+00
         21   -1    0    0  501  502  0.00000000000E+00  0.00000000000E+00  0.37454692219E+02  0.37454692219E+02  0.00000000000E+00 0.  1.
         -2   -1    0    0    0  501 -0.00000000000E+00 -0.00000000000E+00 -0.63998007152E+03  0.63998007152E+03  0.00000000000E+00 0.  1.
        -24    2    1    2    0    0 -0.68501537699E+02 -0.18381875118E+02 -0.37091219038E+03  0.38546807116E+03  0.77326754155E+02 0.  0.
         23    2    1    2    0    0  0.74911781778E+02  0.45752178140E+02 -0.23132820249E+03  0.26385431214E+03  0.91658736167E+02 0.  0.
         11    1    3    3    0    0 -0.26070284252E+02  0.50736954526E+01 -0.26007457119E+02  0.37172435114E+02  0.00000000000E+00 0. -1.
        -12    1    3    3    0    0 -0.42431253447E+02 -0.23455570571E+02 -0.34490473326E+03  0.34829563604E+03  0.00000000000E+00 0.  1.
        -13    1    4    4    0    0  0.28770346589E+02 -0.89157575535E+01 -0.10775038309E+02  0.31989451796E+02  0.00000000000E+00 0. -1.
         13    1    4    4    0    0  0.46141435189E+02  0.54667935694E+02 -0.22055316418E+03  0.23186486034E+03  0.00000000000E+00 0.  1.
         -1    1    1    2    0  502 -0.64102440790E+01 -0.27370303022E+02 -0.28498643179E+00  0.28112380439E+02  0.00000000000E+00 0.  1.
<scales pt_clust_5="13000.00000" pt_clust_6="13000.00000" pt_clust_7="13000.00000" pt_clust_8="13000.00000" pt_clust_9="28.11094"></scales>
<clustering>
<clus scale="   28.111">  1  9  2 -1</clus>
<clus scale="   77.327">  5  6 -1 -1</clus>
<clus scale="   91.659">  7  8 -1 -1</clus>
<clus scale="  108.018">  2  5  1 -1</clus>
<clus scale="   28.111">  1  5  2 -1</clus>
</clustering>
</event>
<event>
 9    1  0.4067873E-005  0.9690828E+02  0.7546771E-02  0.1293459E+00
         21   -1    0    0  501  502  0.00000000000E+00  0.00000000000E+00  0.91719836327E+02  0.91719836327E+02  0.00000000000E+00 0.  1.
          1   -1    0    0  502    0 -0.00000000000E+00 -0.00000000000E+00 -0.24605500586E+03  0.24605500586E+03  0.00000000000E+00 0. -1.
         23    2    1    2    0    0 -0.14599341238E+02 -0.22329106886E+02 -0.10302213664E+03  0.14063700088E+03  0.91942784372E+02 0.  0.
        -24    2    1    2    0    0 -0.40315865703E+02  0.56627121047E+02  0.11801381521E+02  0.10671957416E+03  0.80111141777E+02 0.  0.
         11    1    4    4    0    0  0.23900933327E+02  0.12509849693E+02  0.10052352783E+02  0.28788899766E+02  0.00000000000E+00 0. -1.
        -12    1    4    4    0    0 -0.64216799030E+02  0.44117271354E+02  0.17490287384E+01  0.77930674390E+02  0.00000000000E+00 0.  1.
        -11    1    3    3    0    0  0.23037588484E+02  0.21416623419E+02 -0.13731836848E+02  0.34321503246E+02  0.00000000000E+00 0.  1.
         11    1    3    3    0    0 -0.37636929722E+02 -0.43745730305E+02 -0.89290299794E+02  0.10631549763E+03  0.00000000000E+00 0. -1.
          2    1    1    2  501    0  0.54915206941E+02 -0.34298014161E+02 -0.63114414409E+02  0.90418267153E+02  0.00000000000E+00 0. -1.
<scales pt_clust_5="13000.00000" pt_clust_6="13000.00000" pt_clust_7="13000.00000" pt_clust_8="13000.00000" pt_clust_9="64.74595"></scales>
<clustering>
<clus scale="   64.746">  1  9  2 -1</clus>
<clus scale="   80.111">  5  6 -1 -1</clus>
<clus scale="   85.764">  1  5  2 -1</clus>
<clus scale="   91.943">  7  8 -1 -1</clus>
<clus scale="   64.746">  1  5  2 -1</clus>
</clustering>
</event>
<event>
 9    1  0.4067873E-005  0.9661486E+02  0.7546771E-02  0.1294797E+00
         -2   -1    0    0    0  501 -0.00000000000E+00  0.00000000000E+00  0.22716507657E+03  0.22716507657E+03  0.00000000000E+00 0.  1.
         21   -1    0    0  501  502  0.00000000000E+00 -0.00000000000E+00 -0.28573224061E+03  0.28573224061E+03  0.00000000000E+00 0. -1.
        -24    2    1    2    0    0  0.25251522903E+02 -0.93635432110E+01  0.19699522333E+03  0.21419269704E+03  0.79662275260E+02 0.  0.
         23    2    1    2    0    0 -0.51993685944E+02 -0.12233034458E+02 -0.12857317123E+03  0.16714544535E+03  0.92485399019E+02 0.  0.
         11    1    3    3    0    0  0.30974110671E+02 -0.37968155513E+01  0.20103505740E+02  0.37120914364E+02  0.00000000000E+00 0. -1.
        -12    1    3    3    0    0 -0.57225877681E+01 -0.55667276597E+01  0.17689171759E+03  0.17707178268E+03  0.00000000000E+00 0.  1.
        -13    1    4    4    0    0 -0.15900532938E+01 -0.30955625253E+02 -0.10307987709E+03  0.10763939829E+03  0.00000000000E+00 0. -1.
         13    1    4    4    0    0 -0.50403632650E+02  0.18722590796E+02 -0.25493294143E+02  0.59506047060E+02  0.00000000000E+00 0.  1.
         -1    1    1    2    0  502  0.26742163042E+02  0.21596577669E+02 -0.12698921614E+03  0.13155917477E+03  0.00000000000E+00 0.  1.
<scales pt_clust_5="13000.00000" pt_clust_6="13000.00000" pt_clust_7="13000.00000" pt_clust_8="13000.00000" pt_clust_9="34.37376"></scales>
<clustering>
<clus scale="   34.374">  2  9  1 -1</clus>
<clus scale="   79.662">  5  6 -1 -1</clus>
<clus scale="   84.421">  1  5  2 -1</clus>
<clus scale="   92.485">  7  8 -1 -1</clus>
<clus scale="   34.374">  2  5  1 -1</clus>
</clustering>
</event>
<event>
 9    1  0.4337394E-005  0.1492219E+03  0.7546771E-02  0.1203978E+00
          3   -1    0    0  502    0 -0.00000000000E+00  0.00000000000E+00  0.18822093777E+03  0.18822093777E+03  0.00000000000E+00 0. -1.
         21   -1    0    0  501  502  0.00000000000E+00 -0.00000000000E+00 -0.31282474264E+03  0.31282474264E+03  0.00000000000E+00 0. -1.
         23    2    1    2    0    0  0.13295647701E+02 -0.11984631216E+03  0.13175756756E+03  0.20160020476E+03  0.93502262890E+02 0.  0.
        -24    2    1    2    0    0 -0.23261167349E+02  0.87557596412E+02 -0.19980199729E+03  0.23356045715E+03  0.80138844680E+02 0.  0.
         13    1    4    4    0    0 -0.38610927843E+02  0.19059550596E+02 -0.11886207606E+03  0.12642097667E+03  0.00000000000E+00 0. -1.
        -14    1    4    4    0    0  0.15349760494E+02  0.68498045816E+02 -0.80939921232E+02  0.10713948048E+03  0.00000000000E+00 0.  1.
        -11    1    3    3    0    0  0.28269323525E+02 -0.52072174209E+01  0.35500450075E+01  0.28963297212E+02  0.00000000000E+00 0.  1.
         11    1    3    3    0    0 -0.14973675824E+02 -0.11463909474E+03  0.12820752255E+03  0.17263690755E+03  0.00000000000E+00 0. -1.
          4    1    1    2  501    0  0.99655196474E+01  0.32288715750E+02 -0.56559375134E+02  0.65885018496E+02  0.00000000000E+00 0. -1.
<scales pt_clust_5="13000.00000" pt_clust_6="13000.00000" pt_clust_7="13000.00000" pt_clust_8="13000.00000" pt_clust_9="33.79161"></scales>
<clustering>
<clus scale="   33.792">  2  9  1 -1</clus>
<clus scale="   80.139">  5  6 -1 -1</clus>
<clus scale="   93.502">  7  8 -1 -1</clus>
<clus scale="  141.233">  2  5  1 -1</clus>
<clus scale="   33.792">  2  5  1 -1</clus>
</clustering>
</event>
<event>
 9    1  0.4067873E-005  0.1039166E+03  0.7546771E-02  0.1275967E+00
          3   -1    0    0  502    0 -0.00000000000E+00  0.00000000000E+00  0.84159836952E+03  0.84159836952E+03  0.00000000000E+00 0. -1.
         21   -1    0    0  501  502  0.00000000000E+00 -0.00000000000E+00 -0.24224971185E+02  0.24224971185E+02  0.00000000000E+00 0. -1.
        -24    2    1    2    0    0 -0.81716653954E+01  0.68959301722E+02  0.50198229375E+03  0.51375923468E+03  0.84499506298E+02 0.  0.
         23    2    1    2    0    0  0.91660689093E+01 -0.12848882387E+02  0.24266060677E+03  0.26019956821E+03  0.92577181970E+02 0.  0.
         13    1    3    3    0    0  0.26490320901E+02  0.74118696888E+01  0.57993899068E+02  0.64186955395E+02  0.00000000000E+00 0. -1.
        -14    1    3    3    0    0 -0.34661986296E+02  0.61547432033E+02  0.44398839468E+03  0.44957227928E+03  0.00000000000E+00 0.  1.
        -11    1    4    4    0    0  0.45819091053E+02 -0.21177220641E+02  0.92175689808E+02  0.10509149143E+03  0.00000000000E+00 0.  1.
         11    1    4    4    0    0 -0.36653022144E+02  0.83283382537E+01  0.15048491696E+03  0.15510807679E+03  0.00000000000E+00 0. -1.
          4    1    1    2  501    0 -0.99440351383E+00 -0.56110419335E+02  0.72730497811E+02  0.91864537816E+02  0.00000000000E+00 0. -1.
<scales pt_clust_5="13000.00000" pt_clust_6="13000.00000" pt_clust_7="13000.00000" pt_clust_8="13000.00000" pt_clust_9="56.11923"></scales>
<clustering>
<clus scale="   56.119">  2  9  1 -1</clus>
<clus scale="   84.500">  5  6 -1 -1</clus>
<clus scale="   92.577">  7  8 -1 -1</clus>
<clus scale="   96.790">  1  5  2 -1</clus>
<clus scale="   56.119">  2  5  1 -1</clus>
</clustering>
</event>
<event>
 9    1  0.4067873E-005  0.1000971E+03  0.7546771E-02  0.1284596E+00
         21   -1    0    0  501  502  0.00000000000E+00  0.00000000000E+00  0.23897909493E+03  0.23897909493E+03  0.00000000000E+00 0.  1.
         -4   -1    0    0    0  501 -0.00000000000E+00 -0.00000000000E+00 -0.10808440636E+03  0.10808440636E+03  0.00000000000E+00 0.  1.
        -24    2    1    2    0    0  0.28963575146E+02 -0.31794222067E+02 -0.64664117119E+02  0.11296317722E+03  0.82033347629E+02 0.  0.
         23    2    1    2    0    0 -0.69138330132E+01  0.31786568569E+02  0.18681182162E+03  0.21037900629E+03  0.91117959607E+02 0.  0.
         11    1    3    3    0    0  0.56404256444E+02 -0.14784695081E+02 -0.29932394489E+02  0.65543692248E+02  0.00000000000E+00 0. -1.
        -12    1    3    3    0    0 -0.27440681298E+02 -0.17009526986E+02 -0.34731722630E+02  0.47419484974E+02  0.00000000000E+00 0.  1.
        -13    1    4    4    0    0  0.46557764070E+01  0.61592814187E+02  0.14604179973E+03  0.15856720431E+03  0.00000000000E+00 0.  1.
         13    1    4    4    0    0 -0.11569609420E+02 -0.29806245618E+02  0.40770021892E+02  0.51811801986E+02  0.00000000000E+00 0. -1.
         -3    1    1    2    0  502 -0.22049742133E+02  0.76534983892E-02  0.87469840755E+01  0.23721317778E+02  0.00000000000E+00 0.  1.
<scales pt_clust_5="13000.00000" pt_clust_6="13000.00000" pt_clust_7="13000.00000" pt_clust_8="13000.00000" pt_clust_9="22.04975"></scales>
<clustering>
<clus scale="   22.050">  1  9  2 -1</clus>
<clus scale="   82.033">  5  6 -1 -1</clus>
<clus scale="   91.118">  7  8 -1 -1</clus>
<clus scale="   91.904">  2  5  1 -1</clus>
<clus scale="   22.050">  1  5  2 -1</clus>
</clustering>
</event>
<event>
 9    1  0.4067873E-005  0.1023021E+03  0.7546771E-02  0.1278799E+00
          1   -1    0    0  502    0 -0.00000000000E+00  0.00000000000E+00  0.27465868942E+03  0.27465868942E+03  0.00000000000E+00 0. -1.
         21   -1    0    0  501  502  0.00000000000E+00 -0.00000000000E+00 -0.25608622909E+03  0.25608622909E+03  0.00000000000E+00 0. -1.
         23    2    1    2    0    0 -0.68299107951E+01 -0.48854763538E+02  0.23688377109E+03  0.25793959895E+03  0.89361513530E+02 0.  0.
        -24    2    1    2    0    0  0.32816643202E+02  0.49516087905E+02 -0.72415207823E+02  0.12461145848E+03  0.82190499615E+02 0.  0.
         11    1    4    4    0    0  0.18248519875E+02 -0.18472133241E+02 -0.26287570079E+01  0.26098631143E+02  0.00000000000E+00 0. -1.
        -12    1    4    4    0    0  0.14568123327E+02  0.67988221145E+02 -0.69786450815E+02  0.98512827333E+02  0.00000000000E+00 0.  1.
        -13    1    3    3    0    0  0.27545692318E+02 -0.51168705866E+02  0.90463772829E+02  0.10752067624E+03  0.00000000000E+00 0.  1.
         13    1    3    3    0    0 -0.34375603113E+02  0.23139423281E+01  0.14641999826E+03  0.15041892271E+03  0.00000000000E+00 0. -1.
          2    1    1    2  501    0 -0.25986732407E+02 -0.66132436705E+00 -0.14589610293E+03  0.14819386108E+03  0.00000000000E+00 0. -1.
<scales pt_clust_5="13000.00000" pt_clust_6="13000.00000" pt_clust_7="13000.00000" pt_clust_8="13000.00000" pt_clust_9="25.99515"></scales>
<clustering>
<clus scale="   25.995">  2  9  1 -1</clus>
<clus scale="   82.190">  5  6 -1 -1</clus>
<clus scale="   89.362">  7  8 -1 -1</clus>
<clus scale="   96.102">  2  5  1 -1</clus>
<clus scale="   25.995">  2  5  1 -1</clus>
</clustering>
</event>
<event>
 9    1  0.4067873E-005  0.1464235E+03  0.7546771E-02  0.1221262E+00
         21   -1    0    0  501  502  0.00000000000E+00  0.00000000000E+00  0.34014483731E+03  0.34014483731E+03  0.00000000000E+00 0. -1.
         -4   -1    0    0    0  501 -0.00000000000E+00 -0.00000000000E+00 -0.11016666037E+03  0.11016666037E+03  0.00000000000E+00 0.  1.
        -24    2    1    2    0    0  0.99191223075E+01  0.65852268171E+02  0.16949633677E+02  0.10489454330E+03  0.79250646185E+02 0.  0.
         23    2    1    2    0    0 -0.11014794360E+03  0.69019685559E+01  0.81302165382E+02  0.16461088643E+03  0.91139975791E+02 0.  0.
         11    1    3    3    0    0  0.13446411447E+02  0.47399659063E+02 -0.27650951760E+02  0.56498750370E+02  0.00000000000E+00 0. -1.
        -12    1    3    3    0    0 -0.35272891396E+01  0.18452609108E+02  0.44600585437E+02  0.48395792925E+02  0.00000000000E+00 0.  1.
        -13    1    4    4    0    0 -0.98973597964E+02  0.26925056314E+02  0.93366014662E+02  0.13870091725E+03  0.00000000000E+00 0. -1.
         13    1    4    4    0    0 -0.11174345638E+02 -0.20023087758E+02 -0.12063849280E+02  0.25909969187E+02  0.00000000000E+00 0.  1.
         -3    1    1    2    0  502  0.10022882130E+03 -0.72754236727E+02  0.13172637787E+03  0.18080606795E+03  0.00000000000E+00 0.  1.
<scales pt_clust_5="13000.00000" pt_clust_6="13000.00000" pt_clust_7="13000.00000" pt_clust_8="13000.00000" pt_clust_9="114.60080"></scales>
<clustering>
<clus scale="   79.251">  5  6 -1 -1</clus>
<clus scale="   91.140">  7  8 -1 -1</clus>
<clus scale="  103.516">  2  5  1 -1</clus>
<clus scale="  114.601">  1  9  2 -1</clus>
<clus scale="  114.601">  1  5  2 -1</clus>
</clustering>
</event>
<event>
 9    1  0.4067873E-005  0.9193453E+02  0.7546771E-02  0.1303215E+00
          3   -1    0    0  502    0 -0.00000000000E+00  0.00000000000E+00  0.42375325228E+03  0.42375325228E+03  0.00000000000E+00 0. -1.
         21   -1    0    0  501  502  0.00000000000E+00 -0.00000000000E+00 -0.47274810822E+02  0.47274810822E+02  0.00000000000E+00 0. -1.
        -24    2    1    2    0    0 -0.34877826402E+02  0.65507532150E+01  0.13031083699E+03  0.15833913840E+03  0.82649823778E+02 0.  0.
         23    2    1    2    0    0 -0.26643230247E+02  0.16671628550E+02  0.55446851900E+02  0.11095017065E+03  0.90817300473E+02 0.  0.
         13    1    3    3    0    0 -0.46967709099E+02 -0.26763763157E+02  0.70852658860E+02  0.89119941561E+02  0.00000000000E+00 0. -1.
        -14    1    3    3    0    0  0.12089882697E+02  0.33314516372E+02  0.59458178132E+02  0.69219196842E+02  0.00000000000E+00 0.  1.
        -11    1    4    4    0    0 -0.45276697950E+02  0.40290052903E+02  0.18631890001E+02  0.63406743058E+02  0.00000000000E+00 0.  1.
         11    1    4    4    0    0  0.18633467704E+02 -0.23618424354E+02  0.36814961898E+02  0.47543427592E+02  0.00000000000E+00 0. -1.
          4    1    1    2  501    0  0.61521056648E+02 -0.23222381765E+02  0.19072075256E+03  0.20173875405E+03  0.00000000000E+00 0. -1.
<scales pt_clust_5="13000.00000" pt_clust_6="13000.00000" pt_clust_7="13000.00000" pt_clust_8="13000.00000" pt_clust_9="65.75807"></scales>
<clustering>
<clus scale="   65.758">  2  9  1 -1</clus>
<clus scale="   82.650">  5  6 -1 -1</clus>
<clus scale="   83.876">  1  5  2 -1</clus>
<clus scale="   90.817">  7  8 -1 -1</clus>
<clus scale="   65.758">  2  5  1 -1</clus>
</clustering>
</event>
<event>
 9    1  0.4067873E-005  0.2201966E+03  0.7546771E-02  0.1134476E+00
         21   -1    0    0  501  502  0.00000000000E+00  0.00000000000E+00  0.15573662031E+03  0.15573662031E+03  0.00000000000E+00 0.  1.
         -2   -1    0    0    0  501 -0.00000000000E+00 -0.00000000000E+00 -0.47772118633E+03  0.47772118633E+03  0.00000000000E+00 0.  1.
        -24    2    1    2    0    0 -0.30506511122E+02 -0.15214920070E+03 -0.52258064918E+02  0.18255571130E+03  0.80719612772E+02 0.  0.
         23    2    1    2    0    0  0.78467614799E+02  0.23588545557E+03 -0.19101409891E+03  0.32637229928E+03  0.90737958059E+02 0.  0.
         11    1    3    3    0    0 -0.41645628697E+02 -0.36346625933E+02 -0.63559114774E+00  0.55279648899E+02  0.00000000000E+00 0. -1.
        -12    1    3    3    0    0  0.11139117575E+02 -0.11580257477E+03 -0.51622473770E+02  0.12727606241E+03  0.00000000000E+00 0.  1.
        -11    1    4    4    0    0 -0.16609289189E+02  0.82149204659E+02 -0.63873936190E+02  0.10537665794E+03  0.00000000000E+00 0. -1.
         11    1    4    4    0    0  0.95076903988E+02  0.15373625091E+03 -0.12714016272E+03  0.22099564134E+03  0.00000000000E+00 0.  1.
         -1    1    1    2    0  502 -0.47961103677E+02 -0.83736254869E+02 -0.78712402189E+02  0.12452979605E+03  0.00000000000E+00 0.  1.
<scales pt_clust_5="13000.00000" pt_clust_6="13000.00000" pt_clust_7="13000.00000" pt_clust_8="13000.00000" pt_clust_9="96.49890"></scales>
<clustering>
<clus scale="   80.720">  5  6 -1 -1</clus>
<clus scale="   90.738">  7  8 -1 -1</clus>
<clus scale="   96.499">  1  9  2 -1</clus>
<clus scale="  216.261">  2  5  1 -1</clus>
<clus scale="   96.499">  1  5  2 -1</clus>
</clustering>
</event>
<event>
 9    1  0.4067873E-005  0.2353056E+03  0.7546771E-02  0.1122960E+00
         21   -1    0    0  501  502  0.00000000000E+00  0.00000000000E+00  0.10639559997E+03  0.10639559997E+03  0.00000000000E+00 0. -1.
          1   -1    0    0  502    0 -0.00000000000E+00 -0.00000000000E+00 -0.61513481477E+03  0.61513481477E+03  0.00000000000E+00 0. -1.
        -24    2    1    2    0    0  0.92113525190E+02 -0.12422618146E+02 -0.23451861065E+03  0.26307544865E+03  0.74635715139E+02 0.  0.
         23    2    1    2    0    0  0.69238846390E+02  0.34190729335E+00 -0.27334186379E+03  0.29664858929E+03  0.92143780464E+02 0.  0.
         13    1    3    3    0    0  0.17197582818E+02 -0.22429438857E+02 -0.17430297750E+02  0.33206202160E+02  0.00000000000E+00 0. -1.
        -14    1    3    3    0    0  0.74915942373E+02  0.10006820711E+02 -0.21708831290E+03  0.22986924649E+03  0.00000000000E+00 0.  1.
        -13    1    4    4    0    0 -0.10297430422E+01  0.24318461738E+02 -0.16790662987E+02  0.29569821027E+02  0.00000000000E+00 0.  1.
         13    1    4    4    0    0  0.70268589433E+02 -0.23976554445E+02 -0.25655120080E+03  0.26707876827E+03  0.00000000000E+00 0. -1.
          2    1    1    2  501    0 -0.16135237158E+03  0.12080710853E+02 -0.87874035370E+00  0.16180637680E+03  0.00000000000E+00 0. -1.
<scales pt_clust_5="13000.00000" pt_clust_6="13000.00000" pt_clust_7="13000.00000" pt_clust_8="13000.00000" pt_clust_9="161.80399"></scales>
<clustering>
<clus scale="   74.636">  5  6 -1 -1</clus>
<clus scale="   92.144">  7  8 -1 -1</clus>
<clus scale="   96.639">  5  7 -1 -1</clus>
<clus scale="  161.804">  1  9  2 -1</clus>
<clus scale="  161.804">  1  5  2 -1</clus>
</clustering>
</event>
<event>
 9    1  0.4067873E-005  0.1009691E+03  0.7546771E-02  0.1279264E+00
          1   -1    0    0  502    0 -0.00000000000E+00  0.00000000000E+00  0.83716043341E+02  0.83716043341E+02  0.00000000000E+00 0. -1.
         21   -1    0    0  501  502  0.00000000000E+00 -0.00000000000E+00 -0.71211370605E+03  0.71211370605E+03  0.00000000000E+00 0. -1.
         23    2    1    2    0    0  0.33794740258E+02  0.39633017489E+02 -0.28345410651E+01  0.10679297927E+03  0.93187151764E+02 0.  0.
        -24    2    1    2    0    0  0.65253330372E+02 -0.37268745699E+02 -0.84232428791E+02  0.13871411104E+03  0.80619761909E+02 0.  0.
         11    1    4    4    0    0  0.59869496028E+02 -0.44508154459E+02 -0.24821585477E+02  0.78622156378E+02  0.00000000000E+00 0. -1.
        -12    1    4    4    0    0  0.53838343438E+01  0.72394087600E+01 -0.59410843315E+02  0.60091954659E+02  0.00000000000E+00 0.  1.
        -11    1    3    3    0    0 -0.22341387834E+02 -0.14225557149E+02 -0.10775690864E+02  0.28594048335E+02  0.00000000000E+00 0.  1.
         11    1    3    3    0    0  0.56136128093E+02  0.53858574638E+02  0.79411497989E+01  0.78198930935E+02  0.00000000000E+00 0. -1.
          2    1    1    2  501    0 -0.99048070630E+02 -0.23642717906E+01 -0.54133069285E+03  0.55032265908E+03  0.00000000000E+00 0. -1.
<scales pt_clust_5="13000.00000" pt_clust_6="13000.00000" pt_clust_7="13000.00000" pt_clust_8="13000.00000" pt_clust_9="99.07628"></scales>
<clustering>
<clus scale="   80.620">  5  6 -1 -1</clus>
<clus scale="   93.187">  7  8 -1 -1</clus>
<clus scale="   99.076">  2  9  1 -1</clus>
<clus scale="   99.076">  2  5  1 -1</clus>
<clus scale="   99.076">  2  5  1 -1</clus>
</clustering>
</event>
<event>
 9    1  0.4067873E-005  0.9249741E+02  0.7546771E-02  0.1304380E+00
         21   -1    0    0  501  502  0.00000000000E+00  0.00000000000E+00  0.10507197707E+03  0.10507197707E+03  0.00000000000E+00 0.  1.
          1   -1    0    0  502    0 -0.00000000000E+00 -0.00000000000E+00 -0.19470531986E+03  0.19470531986E+03  0.00000000000E+00 0. -1.
         23    2    1    2    0    0 -0.32928301817E+01  0.38130069824E+01 -0.13354148939E+03  0.16232547503E+03  0.92145801324E+02 0.  0.
        -24    2    1    2    0    0 -0.33231451665E+02 -0.21818411219E+02  0.29527917711E+02  0.94266075074E+02  0.80211112308E+02 0.  0.
         11    1    4    4    0    0  0.23129468256E+02 -0.23663998895E+02  0.95496179999E+01  0.34440562560E+02  0.00000000000E+00 0. -1.
        -12    1    4    4    0    0 -0.56360919921E+02  0.18455876757E+01  0.19978299711E+02  0.59825512514E+02  0.00000000000E+00 0.  1.
        -11    1    3    3    0    0 -0.30722663647E+02 -0.28891908313E+02 -0.98325922321E+02  0.10698883787E+03  0.00000000000E+00 0.  1.
         11    1    3    3    0    0  0.27429833466E+02  0.32704915295E+02 -0.35215567068E+02  0.55336637162E+02  0.00000000000E+00 0. -1.
          2    1    1    2  501    0  0.36524281847E+02  0.18005404237E+02  0.14380228892E+02  0.43185746828E+02  0.00000000000E+00 0. -1.
<scales pt_clust_5="13000.00000" pt_clust_6="13000.00000" pt_clust_7="13000.00000" pt_clust_8="13000.00000" pt_clust_9="40.72122"></scales>
<clustering>
<clus scale="   40.721">  1  9  2 -1</clus>
<clus scale="   80.211">  5  6 -1 -1</clus>
<clus scale="   80.615">  1  5  2 -1</clus>
<clus scale="   92.146">  7  8 -1 -1</clus>
<clus scale="   40.721">  1  5  2 -1</clus>
</clustering>
</event>
<event>
 9    1  0.4067873E-005  0.1287219E+03  0.7546771E-02  0.1230987E+00
         21   -1    0    0  501  502  0.00000000000E+00  0.00000000000E+00  0.31873941790E+03  0.31873941790E+03  0.00000000000E+00 0. -1.
          3   -1    0    0  502    0 -0.00000000000E+00 -0.00000000000E+00 -0.11940483910E+03  0.11940483910E+03  0.00000000000E+00 0. -1.
        -24    2    1    2    0    0  0.90193372529E+02 -0.19358004369E+02 -0.24442395996E+02  0.13549285459E+03  0.96183710371E+02 0.  0.
         23    2    1    2    0    0 -0.66084051753E+02 -0.41679128938E+02  0.19973993923E+03  0.23276170310E+03  0.90430721676E+02 0.  0.
         11    1    3    3    0    0  0.48837441885E+02 -0.56073921293E+02  0.15738027829E+01  0.74376456182E+02  0.00000000000E+00 0. -1.
        -12    1    3    3    0    0  0.41355930644E+02  0.36715916924E+02 -0.26016198779E+02  0.61116398405E+02  0.00000000000E+00 0.  1.
        -11    1    4    4    0    0 -0.67069980730E+01 -0.57383283700E+02  0.88397207514E+02  0.10560251592E+03  0.00000000000E+00 0.  1.
         11    1    4    4    0    0 -0.59377053680E+02  0.15704154761E+02  0.11134273171E+03  0.12715918719E+03  0.00000000000E+00 0. -1.
          4    1    1    2  501    0 -0.24109320777E+02  0.61037133307E+02  0.24037035566E+02  0.69889699309E+02  0.00000000000E+00 0. -1.
<scales pt_clust_5="13000.00000" pt_clust_6="13000.00000" pt_clust_7="13000.00000" pt_clust_8="13000.00000" pt_clust_9="65.62618"></scales>
<clustering>
<clus scale="   65.626">  1  9  2 -1</clus>
<clus scale="   90.431">  7  8 -1 -1</clus>
<clus scale="   96.184">  5  6 -1 -1</clus>
<clus scale="  124.482">  1  7  2 -1</clus>
<clus scale="   65.626">  1  5  2 -1</clus>
</clustering>
</event>
<event>
 9    1  0.4067873E-005  0.1705664E+03  0.7546771E-02  0.1188932E+00
          1   -1    0    0  502    0 -0.00000000000E+00  0.00000000000E+00  0.14555097289E+04  0.14555097289E+04  0.00000000000E+00 0. -1.
         21   -1    0    0  501  502  0.00000000000E+00 -0.00000000000E+00 -0.69490986646E+02  0.69490986646E+02  0.00000000000E+00 0. -1.
        -24    2    1    2    0    0 -0.30804683011E+02  0.96404003780E+02  0.28328190482E+03  0.31226582387E+03  0.83777363988E+02 0.  0.
         23    2    1    2    0    0 -0.12094300940E+03  0.59205964702E+02  0.10951020064E+03  0.19600435881E+03  0.91064080990E+02 0.  0.
         13    1    3    3    0    0 -0.42246848726E+02  0.10573152276E+03  0.26713509536E+03  0.29038786184E+03  0.00000000000E+00 0. -1.
        -14    1    3    3    0    0  0.11442165715E+02 -0.93275189816E+01  0.16146809461E+02  0.21877962025E+02  0.00000000000E+00 0.  1.
        -13    1    4    4    0    0 -0.85545779717E+02  0.24057146140E+02  0.16387723409E+02  0.90362515383E+02  0.00000000000E+00 0. -1.
         13    1    4    4    0    0 -0.35397229686E+02  0.35148818562E+02  0.93122477235E+02  0.10564184342E+03  0.00000000000E+00 0.  1.
          2    1    1    2  501    0  0.15174769241E+03 -0.15560996848E+03  0.99322663674E+03  0.10167305328E+04  0.00000000000E+00 0. -1.
<scales pt_clust_5="13000.00000" pt_clust_6="13000.00000" pt_clust_7="13000.00000" pt_clust_8="13000.00000" pt_clust_9="144.22291"></scales>
<clustering>
<clus scale="   83.777">  5  6 -1 -1</clus>
<clus scale="   91.064">  7  8 -1 -1</clus>
<clus scale="  131.382">  1  5  2 -1</clus>
<clus scale="  144.223">  2  9  1 -1</clus>
<clus scale="  144.223">  2  5  1 -1</clus>
</clustering>
</event>
<event>
 9    1  0.4067873E-005  0.1011687E+03  0.7546771E-02  0.1282964E+00
         21   -1    0    0  501  502  0.00000000000E+00  0.00000000000E+00  0.13969844608E+03  0.13969844608E+03  0.00000000000E+00 0. -1.
          1   -1    0    0  502    0 -0.00000000000E+00 -0.00000000000E+00 -0.12229356627E+03  0.12229356627E+03  0.00000000000E+00 0. -1.
         23    2    1    2    0    0 -0.24979234712E+02  0.56559984861E+02 -0.40673515766E+02  0.11790510187E+03  0.91783898960E+02 0.  0.
        -24    2    1    2    0    0  0.77165791060E+01 -0.10659447364E+02  0.30814966176E+02  0.87978504659E+02  0.81347930093E+02 0.  0.
         11    1    4    4    0    0  0.65790584062E+01  0.34025289871E+02  0.25369127415E+02  0.42948771649E+02  0.00000000000E+00 0. -1.
        -12    1    4    4    0    0  0.11375206998E+01 -0.44684737236E+02  0.54458387603E+01  0.45029733010E+02  0.00000000000E+00 0.  1.
        -11    1    3    3    0    0 -0.48178436524E+02  0.53353901383E+02 -0.54944057120E+02  0.90480108043E+02  0.00000000000E+00 0. -1.
         11    1    3    3    0    0  0.23199201812E+02  0.32060834784E+01  0.14270541353E+02  0.27424993829E+02  0.00000000000E+00 0.  1.
          2    1    1    2  501    0  0.17262655606E+02 -0.45900537497E+02  0.27263429405E+02  0.56108405823E+02  0.00000000000E+00 0. -1.
<scales pt_clust_5="13000.00000" pt_clust_6="13000.00000" pt_clust_7="13000.00000" pt_clust_8="13000.00000" pt_clust_9="49.03936"></scales>
<clustering>
<clus scale="   49.039">  1  9  2 -1</clus>
<clus scale="   81.348">  5  6 -1 -1</clus>
<clus scale="   91.784">  7  8 -1 -1</clus>
<clus scale="   91.806">  1  5  2 -1</clus>
<clus scale="   49.039">  1  5  2 -1</clus>
</clustering>
</event>
<event>
 9    1  0.4067873E-005  0.1378225E+03  0.7546771E-02  0.1218805E+00
          1   -1    0    0  502    0 -0.00000000000E+00  0.00000000000E+00  0.59508252251E+03  0.59508252251E+03  0.00000000000E+00 0. -1.
         21   -1    0    0  501  502  0.00000000000E+00 -0.00000000000E+00 -0.78418395172E+02  0.78418395172E+02  0.00000000000E+00 0. -1.
         23    2    1    2    0    0  0.73681849990E+02  0.86831131661E+02  0.46957703101E+03  0.49174879703E+03  0.91354424561E+02 0.  0.
        -24    2    1    2    0    0 -0.10033192574E+02 -0.74685923320E+02  0.37383135388E+02  0.11623247066E+03  0.80211198281E+02 0.  0.
         13    1    4    4    0    0  0.22833441766E+02 -0.10699699551E+02 -0.13038164020E+02  0.28387380196E+02  0.00000000000E+00 0. -1.
        -14    1    4    4    0    0 -0.32866634341E+02 -0.63986223769E+02  0.50421299409E+02  0.87845090467E+02  0.00000000000E+00 0.  1.
        -13    1    3    3    0    0  0.85689007941E+02  0.35045746961E+02  0.31209377856E+03  0.32553546209E+03  0.00000000000E+00 0. -1.
         13    1    3    3    0    0 -0.12007157950E+02  0.51785384700E+02  0.15748325245E+03  0.16621333494E+03  0.00000000000E+00 0.  1.
          2    1    1    2  501    0 -0.63648657416E+02 -0.12145208341E+02  0.97039609409E+01  0.65519649987E+02  0.00000000000E+00 0. -1.
<scales pt_clust_5="13000.00000" pt_clust_6="13000.00000" pt_clust_7="13000.00000" pt_clust_8="13000.00000" pt_clust_9="64.79705"></scales>
<clustering>
<clus scale="   64.797">  2  9  1 -1</clus>
<clus scale="   80.211">  5  6 -1 -1</clus>
<clus scale="   91.354">  7  8 -1 -1</clus>
<clus scale="  130.703">  2  5  1 -1</clus>
<clus scale="   64.797">  2  5  1 -1</clus>
</clustering>
</event>
<event>
 9    1  0.4067873E-005  0.1199009E+03  0.7546771E-02  0.1247530E+00
          1   -1    0    0  502    0 -0.00000000000E+00  0.00000000000E+00  0.29096560406E+03  0.29096560406E+03  0.00000000000E+00 0. -1.
         21   -1    0    0  501  502  0.00000000000E+00 -0.00000000000E+00 -0.94823890614E+02  0.94823890614E+02  0.00000000000E+00 0.  1.
        -24    2    1    2    0    0 -0.59323596041E+02  0.73425978216E+02  0.11694681839E+03  0.17015064023E+03  0.79774800001E+02 0.  0.
         23    2    1    2    0    0 -0.23344806236E+02 -0.65348255985E+02  0.32910693065E+02  0.12055183280E+03  0.92920698092E+02 0.  0.
         13    1    3    3    0    0 -0.61663169627E+02  0.14993610187E+02  0.74649545541E+02  0.97978107169E+02  0.00000000000E+00 0. -1.
        -14    1    3    3    0    0  0.23395735864E+01  0.58432368029E+02  0.42297272849E+02  0.72172533061E+02  0.00000000000E+00 0.  1.
        -11    1    4    4    0    0 -0.10358208726E+02 -0.30439082393E+02  0.64268514179E+02  0.71862870383E+02  0.00000000000E+00 0. -1.
         11    1    4    4    0    0 -0.12986597510E+02 -0.34909173592E+02 -0.31357821114E+02  0.48688962412E+02  0.00000000000E+00 0.  1.
          2    1    1    2  501    0  0.82668402277E+02 -0.80777222310E+01  0.46284201987E+02  0.95087021644E+02  0.00000000000E+00 0. -1.
<scales pt_clust_5="13000.00000" pt_clust_6="13000.00000" pt_clust_7="13000.00000" pt_clust_8="13000.00000" pt_clust_9="83.06211"></scales>
<clustering>
<clus scale="   79.775">  5  6 -1 -1</clus>
<clus scale="   83.062">  2  9  1 -1</clus>
<clus scale="   92.921">  7  8 -1 -1</clus>
<clus scale="  110.027">  1  5  2 -1</clus>
<clus scale="   83.062">  2  5  1 -1</clus>
</clustering>
</event>
<event>
 9    1  0.4067873E-005  0.9430553E+02  0.7546771E-02  0.1294087E+00
          1   -1    0    0  502    0 -0.00000000000E+00  0.00000000000E+00  0.34757122262E+03  0.34757122262E+03  0.00000000000E+00 0. -1.
         21   -1    0    0  501  502  0.00000000000E+00 -0.00000000000E+00 -0.11528048934E+03  0.11528048934E+03  0.00000000000E+00 0. -1.
         23    2    1    2    0    0  0.14120703533E+02  0.21789763446E+02  0.25930104269E+03  0.27580236379E+03  0.90309053115E+02 0.  0.
        -24    2    1    2    0    0 -0.81768921638E+01  0.50690521434E+02  0.81706373314E+01  0.10626308942E+03  0.92675208820E+02 0.  0.
         11    1    4    4    0    0  0.18761094739E+01  0.41867741588E+02  0.48309127274E+02  0.63954666369E+02  0.00000000000E+00 0. -1.
        -12    1    4    4    0    0 -0.10053001638E+02  0.88227798462E+01 -0.40138489942E+02  0.42308423050E+02  0.00000000000E+00 0.  1.
        -13    1    3    3    0    0 -0.26318983377E+02 -0.15960224246E+02  0.15194058057E+03  0.15502695788E+03  0.00000000000E+00 0.  1.
         13    1    3    3    0    0  0.40439686910E+02  0.37749987692E+02  0.10736046212E+03  0.12077540592E+03  0.00000000000E+00 0. -1.
          2    1    1    2  501    0 -0.59438113692E+01 -0.72480284880E+02 -0.35180946743E+02  0.80786258755E+02  0.00000000000E+00 0. -1.
<scales pt_clust_5="13000.00000" pt_clust_6="13000.00000" pt_clust_7="13000.00000" pt_clust_8="13000.00000" pt_clust_9="72.72359"></scales>
<clustering>
<clus scale="   72.724">  2  9  1 -1</clus>
<clus scale="   90.309">  7  8 -1 -1</clus>
<clus scale="   91.981">  1  7  2 -1</clus>
<clus scale="   92.675">  5  6 -1 -1</clus>
<clus scale="   72.724">  2  5  1 -1</clus>
</clustering>
</event>
<event>
 9    1  0.4067873E-005  0.1289747E+03  0.7546771E-02  0.1230385E+00
         21   -1    0    0  501  502  0.00000000000E+00  0.00000000000E+00  0.35032637089E+03  0.35032637089E+03  0.00000000000E+00 0.  1.
          3   -1    0    0  502    0 -0.00000000000E+00 -0.00000000000E+00 -0.24782969538E+03  0.24782969538E+03  0.00000000000E+00 0. -1.
        -24    2    1    2    0    0 -0.13919735459E+02 -0.72178460426E+02  0.66857360040E+02  0.12921769104E+03  0.82606391416E+02 0.  0.
         23    2    1    2    0    0 -0.55830793492E+02  0.14693338796E+03  0.20386602866E+03  0.27207887581E+03  0.88085521052E+02 0.  0.
         13    1    3    3    0    0  0.90275240119E+01 -0.75816847754E+02  0.23261614061E+02  0.79817249276E+02  0.00000000000E+00 0. -1.
        -14    1    3    3    0    0 -0.22947259471E+02  0.36383873286E+01  0.43595745978E+02  0.49400441769E+02  0.00000000000E+00 0.  1.
        -11    1    4    4    0    0 -0.70983690388E+02  0.73775031114E+02  0.92520292067E+02  0.13799073868E+03  0.00000000000E+00 0. -1.
         11    1    4    4    0    0  0.15152896896E+02  0.73158356843E+02  0.11134573659E+03  0.13408813713E+03  0.00000000000E+00 0.  1.
          4    1    1    2  501    0  0.69750528951E+02 -0.74754927532E+02 -0.16822671319E+03  0.19685949942E+03  0.00000000000E+00 0. -1.
<scales pt_clust_5="13000.00000" pt_clust_6="13000.00000" pt_clust_7="13000.00000" pt_clust_8="13000.00000" pt_clust_9="102.24209"></scales>
<clustering>
<clus scale="   82.606">  5  6 -1 -1</clus>
<clus scale="   88.086">  7  8 -1 -1</clus>
<clus scale="  102.242">  1  9  2 -1</clus>
<clus scale="  125.297">  2  5  1 -1</clus>
<clus scale="  102.242">  1  5  2 -1</clus>
</clustering>
</event>
<event>
 9    1  0.4067873E-005  0.1741553E+03  0.7546771E-02  0.1193603E+00
         21   -1    0    0  501  502  0.00000000000E+00  0.00000000000E+00  0.69361089532E+03  0.69361089532E+03  0.00000000000E+00 0.  1.
         -4   -1    0    0    0  501 -0.00000000000E+00 -0.00000000000E+00 -0.10318394149E+03  0.10318394149E+03  0.00000000000E+00 0.  1.
         23    2    1    2    0    0  0.11566984245E+02  0.64980685336E+02  0.12752994438E+03  0.16930001542E+03  0.89679004882E+02 0.  0.
        -24    2    1    2    0    0 -0.16482810182E+03 -0.45078822039E+02  0.62196194421E+02  0.19802282290E+03  0.78385384105E+02 0.  0.
         13    1    4    4    0    0 -0.23793234088E+02 -0.12493699659E+02  0.44784805140E+02  0.52229199601E+02  0.00000000000E+00 0. -1.
        -14    1    4    4    0    0 -0.14103486773E+03 -0.32585122380E+02  0.17411389281E+02  0.14579362330E+03  0.00000000000E+00 0.  1.
        -11    1    3    3    0    0  0.50459377583E+02  0.43408181843E+02  0.70160717999E+02  0.96710627064E+02  0.00000000000E+00 0. -1.
         11    1    3    3    0    0 -0.38892393338E+02  0.21572503493E+02  0.57369226377E+02  0.72589388354E+02  0.00000000000E+00 0.  1.
         -3    1    1    2    0  502  0.15326111758E+03 -0.19901863297E+02  0.40070081503E+03  0.42947199850E+03  0.00000000000E+00 0.  1.
<scales pt_clust_5="13000.00000" pt_clust_6="13000.00000" pt_clust_7="13000.00000" pt_clust_8="13000.00000" pt_clust_9="155.51784"></scales>
<clustering>
<clus scale="   78.385">  5  6 -1 -1</clus>
<clus scale="   89.679">  7  8 -1 -1</clus>
<clus scale="  111.349">  2  7  1 -1</clus>
<clus scale="  155.518">  1  9  2 -1</clus>
<clus scale="  155.518">  1  5  2 -1</clus>
</clustering>
</event>
<event>
 9    1  0.4067873E-005  0.2042313E+03  0.7546771E-02  0.1186091E+00
         21   -1    0    0  501  502  0.00000000000E+00  0.00000000000E+00  0.18046596148E+03  0.18046596148E+03  0.00000000000E+00 0.  1.
          1   -1    0    0  502    0 -0.00000000000E+00 -0.00000000000E+00 -0.31416992087E+03  0.31416992087E+03  0.00000000000E+00 0. -1.
        -24    2    1    2    0    0  0.82573038980E+01  0.95864884956E+01 -0.21778561603E+02  0.84371695811E+02  0.80524489934E+02 0.  0.
         23    2    1    2    0    0  0.61312789473E+02 -0.17477251499E+03 -0.16632178903E+02  0.20726857376E+03  0.91536561799E+02 0.  0.
         13    1    3    3    0    0 -0.33021707842E+02  0.38325796045E+01  0.66753483726E+01  0.33906962871E+02  0.00000000000E+00 0. -1.
        -14    1    3    3    0    0  0.41279011740E+02  0.57539088911E+01 -0.28453909976E+02  0.50464732940E+02  0.00000000000E+00 0.  1.
        -11    1    4    4    0    0 -0.17094032062E+01 -0.11528908526E+03  0.12181167995E+02  0.11594341763E+03  0.00000000000E+00 0.  1.
         11    1    4    4    0    0  0.63022192679E+02 -0.59483429737E+02 -0.28813346898E+02  0.91325156134E+02  0.00000000000E+00 0. -1.
          2    1    1    2  501    0 -0.69570093371E+02  0.16518602650E+03 -0.95293218879E+02  0.20299561277E+03  0.00000000000E+00 0. -1.
<scales pt_clust_5="13000.00000" pt_clust_6="13000.00000" pt_clust_7="13000.00000" pt_clust_8="13000.00000" pt_clust_9="182.56925"></scales>
<clustering>
<clus scale="   80.524">  5  6 -1 -1</clus>
<clus scale="   81.512">  2  5  1 -1</clus>
<clus scale="   91.537">  7  8 -1 -1</clus>
<clus scale="  182.569">  1  9  2 -1</clus>
<clus scale="  182.569">  1  5  2 -1</clus>
</clustering>
</event>
<event>
 9    1  0.4067873E-005  0.1004291E+03  0.7546771E-02  0.1284047E+00
         21   -1    0    0  501  502  0.00000000000E+00  0.00000000000E+00  0.63513481073E+03  0.63513481073E+03  0.00000000000E+00 0. -1.
          1   -1    0    0  502    0 -0.00000000000E+00 -0.00000000000E+00 -0.50749617342E+02  0.50749617342E+02  0.00000000000E+00 0. -1.
         23    2    1    2    0    0  0.57507929779E+02 -0.22061083959E+00  0.35162009537E+02  0.11317717072E+03  0.90914764481E+02 0.  0.
        -24    2    1    2    0    0 -0.88263909505E+01  0.98338210407E+01  0.15702798441E+03  0.17738538786E+03  0.81444329000E+02 0.  0.
         11    1    4    4    0    0  0.14371593485E+02  0.26775160110E+02  0.17784850726E+02  0.35210123737E+02  0.00000000000E+00 0. -1.
        -12    1    4    4    0    0 -0.23197984436E+02 -0.16941339069E+02  0.13924313368E+03  0.14217526413E+03  0.00000000000E+00 0.  1.
        -11    1    3    3    0    0  0.23062843247E+02 -0.18582735811E+02  0.59999326496E+02  0.66911374137E+02  0.00000000000E+00 0.  1.
         11    1    3    3    0    0  0.34445086531E+02  0.18362124971E+02 -0.24837316959E+02  0.46265796582E+02  0.00000000000E+00 0. -1.
          2    1    1    2  501    0 -0.48681538828E+02 -0.96132102012E+01  0.39219519944E+03  0.39532186949E+03  0.00000000000E+00 0. -1.
<scales pt_clust_5="13000.00000" pt_clust_6="13000.00000" pt_clust_7="13000.00000" pt_clust_8="13000.00000" pt_clust_9="49.62163"></scales>
<clustering>
<clus scale="   49.622">  1  9  2 -1</clus>
<clus scale="   81.444">  5  6 -1 -1</clus>
<clus scale="   90.915">  7  8 -1 -1</clus>
<clus scale="   91.944">  1  5  2 -1</clus>
<clus scale="   49.622">  1  5  2 -1</clus>
</clustering>
</event>
<event>
 9    1  0.4067873E-005  0.1475054E+03  0.7546771E-02  0.1209113E+00
         21   -1    0    0  501  502  0.00000000000E+00  0.00000000000E+00  0.67461942102E+02  0.67461942102E+02  0.00000000000E+00 0. -1.
          1   -1    0    0  502    0 -0.00000000000E+00 -0.00000000000E+00 -0.81617240921E+03  0.81617240921E+03  0.00000000000E+00 0. -1.
         23    2    1    2    0    0 -0.53918885460E+02 -0.78474337863E+02 -0.40855026963E+03  0.42902329602E+03  0.89901044528E+02 0.  0.
        -24    2    1    2    0    0 -0.81039326866E+02  0.94710235268E+02 -0.25429661251E+03  0.29383208072E+03  0.78314260277E+02 0.  0.
         11    1    4    4    0    0 -0.75304075053E+02  0.10859223526E+03 -0.23039812836E+03  0.26560548720E+03  0.00000000000E+00 0. -1.
        -12    1    4    4    0    0 -0.57352518131E+01 -0.13881999992E+02 -0.23898484148E+02  0.28226593519E+02  0.00000000000E+00 0.  1.
        -11    1    3    3    0    0 -0.56303887028E+02 -0.71119085967E+01 -0.13809715744E+03  0.14930348901E+03  0.00000000000E+00 0.  1.
         11    1    3    3    0    0  0.23850015682E+01 -0.71362429266E+02 -0.27045311218E+03  0.27971980701E+03  0.00000000000E+00 0. -1.
          2    1    1    2  501    0  0.13495821233E+03 -0.16235897405E+02 -0.85863584972E+02  0.16077897457E+03  0.00000000000E+00 0. -1.
<scales pt_clust_5="13000.00000" pt_clust_6="13000.00000" pt_clust_7="13000.00000" pt_clust_8="13000.00000" pt_clust_9="124.99891"></scales>
<clustering>
<clus scale="   78.314">  5  6 -1 -1</clus>
<clus scale="   89.901">  7  8 -1 -1</clus>
<clus scale="  130.949">  2  7  1 -1</clus>
<clus scale="  124.999">  1  9  2 -1</clus>
<clus scale="  124.999">  1  5  2 -1</clus>
</clustering>
</event>
<event>
 9    1  0.4067873E-005  0.3765949E+03  0.7546771E-02  0.1052344E+00
          3   -1    0    0  502    0 -0.00000000000E+00  0.00000000000E+00  0.80299656365E+03  0.80299656365E+03  0.00000000000E+00 0. -1.
         21   -1    0    0  501  502  0.00000000000E+00 -0.00000000000E+00 -0.32398463368E+03  0.32398463368E+03  0.00000000000E+00 0. -1.
         23    2    1    2    0    0  0.29927563550E+03 -0.29108881527E+03  0.53244759718E+03  0.68269489633E+03  0.90957535971E+02 0.  0.
        -24    2    1    2    0    0 -0.16057989442E+03  0.21267694656E+03 -0.12594166498E+02  0.27980846684E+03  0.84361004001E+02 0.  0.
         13    1    4    4    0    0 -0.11632285406E+03  0.19550013269E+03 -0.29544701755E+02  0.22939964616E+03  0.00000000000E+00 0. -1.
        -14    1    4    4    0    0 -0.44257040363E+02  0.17176813864E+02  0.16950535257E+02  0.50408820673E+02  0.00000000000E+00 0.  1.
        -13    1    3    3    0    0  0.85004333890E+02 -0.70626594883E+02  0.83239419447E+02  0.13835697899E+03  0.00000000000E+00 0.  1.
         13    1    3    3    0    0  0.21427130161E+03 -0.22046222039E+03  0.44920817773E+03  0.54433791734E+03  0.00000000000E+00 0. -1.
          4    1    1    2  501    0 -0.13869574108E+03  0.78411868713E+02 -0.40841500713E+02  0.16447783416E+03  0.00000000000E+00 0. -1.
<scales pt_clust_5="13000.00000" pt_clust_6="13000.00000" pt_clust_7="13000.00000" pt_clust_8="13000.00000" pt_clust_9="159.32649"></scales>
<clustering>
<clus scale="   84.361">  5  6 -1 -1</clus>
<clus scale="   90.958">  7  8 -1 -1</clus>
<clus scale="  159.326">  2  9  1 -1</clus>
<clus scale="  375.056">  2  5  1 -1</clus>
<clus scale="  159.326">  2  5  1 -1</clus>
</clustering>
</event>
<event>
 9    1  0.4067873E-005  0.9546809E+02  0.7546771E-02  0.1296621E+00
         -2   -1    0    0    0  501 -0.00000000000E+00  0.00000000000E+00  0.83942125354E+02  0.83942125354E+02  0.00000000000E+00 0.  1.
         21   -1    0    0  501  502  0.00000000000E+00 -0.00000000000E+00 -0.19635787389E+03  0.19635787389E+03  0.00000000000E+00 0. -1.
        -24    2    1    2    0    0  0.18400228780E+02  0.21639768687E+02  0.27106489205E+02  0.89524451883E+02  0.80455066465E+02 0.  0.
         23    2    1    2    0    0  0.38317271136E+01 -0.21461211139E+02 -0.13963863068E+03  0.16854256976E+03  0.91828018200E+02 0.  0.
         13    1    3    3    0    0 -0.47656636700E+01 -0.27296213501E+02 -0.24900565560E+01  0.27820769280E+02  0.00000000000E+00 0. -1.
        -14    1    3    3    0    0  0.23165892450E+02  0.48935982188E+02  0.29596545761E+02  0.61703682603E+02  0.00000000000E+00 0.  1.
        -13    1    4    4    0    0 -0.18358885185E+02 -0.38553345723E+02 -0.22827428552E+02  0.48420043639E+02  0.00000000000E+00 0.  1.
         13    1    4    4    0    0  0.22190612299E+02  0.17092134585E+02 -0.11681120213E+03  0.12012252612E+03  0.00000000000E+00 0. -1.
         -1    1    1    2    0  502 -0.22231955893E+02 -0.17855754882E+00  0.11639294101E+00  0.22232977600E+02  0.00000000000E+00 0.  1.
<scales pt_clust_5="13000.00000" pt_clust_6="13000.00000" pt_clust_7="13000.00000" pt_clust_8="13000.00000" pt_clust_9="22.23268"></scales>
<clustering>
<clus scale="   22.233">  2  9  1 -1</clus>
<clus scale="   80.455">  5  6 -1 -1</clus>
<clus scale="   84.586">  1  5  2 -1</clus>
<clus scale="   91.828">  7  8 -1 -1</clus>
<clus scale="   22.233">  2  5  1 -1</clus>
</clustering>
</event>
<event>
 9    1  0.4067873E-005  0.3973962E+03  0.7546771E-02  0.1075606E+00
         21   -1    0    0  501  502  0.00000000000E+00  0.00000000000E+00  0.41507224107E+03  0.41507224107E+03  0.00000000000E+00 0. -1.
          1   -1    0    0  502    0 -0.00000000000E+00 -0.00000000000E+00 -0.57703510408E+03  0.57703510408E+03  0.00000000000E+00 0. -1.
        -24    2    1    2    0    0 -0.13344705670E+03 -0.60818493001E+02 -0.69048818808E+02  0.18096947848E+03  0.80468669243E+02 0.  0.
         23    2    1    2    0    0  0.36070564139E+03  0.26462927954E+03  0.73649698840E+02  0.46338970849E+03  0.95752433277E+02 0.  0.
         13    1    3    3    0    0 -0.12708134996E+03 -0.38934474449E+02 -0.30782004606E+02  0.13642981571E+03  0.00000000000E+00 0. -1.
        -14    1    3    3    0    0 -0.63657067427E+01 -0.21884018551E+02 -0.38266814202E+02  0.44539662768E+02  0.00000000000E+00 0.  1.
        -11    1    4    4    0    0  0.65075678147E+01  0.22628187722E+02  0.20338498276E+02  0.31113306327E+02  0.00000000000E+00 0.  1.
         11    1    4    4    0    0  0.35419807357E+03  0.24200109182E+03  0.53311200564E+02  0.43227640216E+03  0.00000000000E+00 0. -1.
          2    1    1    2  501    0 -0.22725858468E+03 -0.20381078654E+03 -0.16656374304E+03  0.34774815818E+03  0.00000000000E+00 0. -1.
<scales pt_clust_5="13000.00000" pt_clust_6="13000.00000" pt_clust_7="13000.00000" pt_clust_8="13000.00000" pt_clust_9="385.68815"></scales>
<clustering>
<clus scale="   80.469">  5  6 -1 -1</clus>
<clus scale="   95.752">  7  8 -1 -1</clus>
<clus scale="  167.279">  2  5  1 -1</clus>
<clus scale="  385.688">  1  9  2 -1</clus>
<clus scale="  385.688">  1  5  2 -1</clus>
</clustering>
</event>
<event>
 9    1  0.4067873E-005  0.1004806E+03  0.7546771E-02  0.1284735E+00
         -2   -1    0    0    0  501 -0.00000000000E+00  0.00000000000E+00  0.11804553711E+03  0.11804553711E+03  0.00000000000E+00 0.  1.
         21   -1    0    0  501  502  0.00000000000E+00 -0.00000000000E+00 -0.66001963337E+03  0.66001963337E+03  0.00000000000E+00 0.  1.
        -24    2    1    2    0    0 -0.15772045660E+02  0.41874183344E+01  0.81086426995E+02  0.12967057258E+03  0.99865694085E+02 0.  0.
         23    2    1    2    0    0 -0.51658224535E+02  0.98919810914E+01 -0.28647175042E+03  0.30482935981E+03  0.89935817998E+02 0.  0.
         13    1    3    3    0    0  0.22845803812E+02 -0.37785052421E+02  0.35286482771E+02  0.56522356680E+02  0.00000000000E+00 0. -1.
        -14    1    3    3    0    0 -0.38617849472E+02  0.41972470755E+02  0.45799944224E+02  0.73148215905E+02  0.00000000000E+00 0.  1.
        -13    1    4    4    0    0  0.21658786596E+02  0.18037375874E+02 -0.53691612891E+02  0.60640244558E+02  0.00000000000E+00 0. -1.
         13    1    4    4    0    0 -0.73317011131E+02 -0.81453947831E+01 -0.23278013753E+03  0.24418911525E+03  0.00000000000E+00 0.  1.
         -1    1    1    2    0  502  0.67430270195E+02 -0.14079399426E+02 -0.33658877283E+03  0.34356523809E+03  0.00000000000E+00 0.  1.
<scales pt_clust_5="13000.00000" pt_clust_6="13000.00000" pt_clust_7="13000.00000" pt_clust_8="13000.00000" pt_clust_9="68.88447"></scales>
<clustering>
<clus scale="   68.884">  2  9  1 -1</clus>
<clus scale="   89.936">  7  8 -1 -1</clus>
<clus scale="   90.618">  2  7  1 -1</clus>
<clus scale="   99.866">  5  6 -1 -1</clus>
<clus scale="   68.884">  2  5  1 -1</clus>
</clustering>
</event>
<event>
 9    1  0.4067873E-005  0.1025349E+03  0.7546771E-02  0.1281418E+00
         21   -1    0    0  501  502  0.00000000000E+00  0.00000000000E+00  0.33472294474E+03  0.33472294474E+03  0.00000000000E+00 0.  1.
         -4   -1    0    0    0  501 -0.00000000000E+00 -0.00000000000E+00 -0.10448781139E+03  0.10448781139E+03  0.00000000000E+00 0.  1.
        -24    2    1    2    0    0  0.47449640211E+02  0.10076790333E+02 -0.65223543851E+02  0.11347162391E+03  0.79175051005E+02 0.  0.
         23    2    1    2    0    0 -0.11566779641E+02 -0.16281443403E+02  0.16359720592E+03  0.18894174550E+03  0.92390809165E+02 0.  0.
         11    1    3    3    0    0  0.19125011070E+02  0.11465126730E+02  0.15996742519E+02  0.27442867025E+02  0.00000000000E+00 0. -1.
        -12    1    3    3    0    0  0.28324629141E+02 -0.13883363961E+01 -0.81220286369E+02  0.86028756889E+02  0.00000000000E+00 0.  1.
        -13    1    4    4    0    0 -0.83304330514E+00 -0.49042968633E+02  0.49242914429E+02  0.69503750654E+02  0.00000000000E+00 0.  1.
         13    1    4    4    0    0 -0.10733736335E+02  0.32761525230E+02  0.11435429149E+03  0.11943799485E+03  0.00000000000E+00 0. -1.
         -3    1    1    2    0  502 -0.35882860570E+02  0.62046530697E+01  0.13186147129E+03  0.13679738672E+03  0.00000000000E+00 0.  1.
<scales pt_clust_5="13000.00000" pt_clust_6="13000.00000" pt_clust_7="13000.00000" pt_clust_8="13000.00000" pt_clust_9="36.41535"></scales>
<clustering>
<clus scale="   36.415">  1  9  2 -1</clus>
<clus scale="   79.175">  5  6 -1 -1</clus>
<clus scale="   90.808">  2  5  1 -1</clus>
<clus scale="   92.391">  7  8 -1 -1</clus>
<clus scale="   36.415">  1  5  2 -1</clus>
</clustering>
</event>
<event>
 9    1  0.4067873E-005  0.1066278E+03  0.7546771E-02  0.1273043E+00
         -2   -1    0    0    0  501 -0.00000000000E+00  0.00000000000E+00  0.50967770910E+02  0.50967770910E+02  0.00000000000E+00 0.  1.
         21   -1    0    0  501  502  0.00000000000E+00 -0.00000000000E+00 -0.29949177199E+03  0.29949177199E+03  0.00000000000E+00 0. -1.
         23    2    1    2    0    0 -0.62218525835E+02 -0.13276196338E+02 -0.10059470189E+03  0.15007102187E+03  0.91403584226E+02 0.  0.
        -24    2    1    2    0    0  0.43286632240E+02  0.43463515507E+01 -0.15477628887E+03  0.17836489756E+03  0.77238033261E+02 0.  0.
         13    1    4    4    0    0  0.40739326052E+02  0.31335784318E+02 -0.13600078868E+03  0.14538857791E+03  0.00000000000E+00 0. -1.
        -14    1    4    4    0    0  0.25473061883E+01 -0.26989432767E+02 -0.18775500190E+02  0.32976319644E+02  0.00000000000E+00 0.  1.
        -13    1    3    3    0    0 -0.83295641226E+02 -0.12454101307E+02 -0.97356841459E+02  0.12873081630E+03  0.00000000000E+00 0. -1.
         13    1    3    3    0    0  0.21077115391E+02 -0.82209503127E+00 -0.32378604319E+01  0.21340205566E+02  0.00000000000E+00 0.  1.
         -1    1    1    2    0  502  0.18931893595E+02  0.89298447875E+01  0.68469896858E+01  0.22023623471E+02  0.00000000000E+00 0.  1.
<scales pt_clust_5="13000.00000" pt_clust_6="13000.00000" pt_clust_7="13000.00000" pt_clust_8="13000.00000" pt_clust_9="20.93225"></scales>
<clustering>
<clus scale="   20.932">  2  9  1 -1</clus>
<clus scale="   77.238">  5  6 -1 -1</clus>
<clus scale="   91.404">  7  8 -1 -1</clus>
<clus scale="   94.766">  2  5  1 -1</clus>
<clus scale="   20.932">  2  5  1 -1</clus>
</clustering>
</event>
<event>
 9    1  0.4067873E-005  0.1093451E+03  0.7546771E-02  0.1266080E+00
          1   -1    0    0  502    0 -0.00000000000E+00  0.00000000000E+00  0.85801691394E+02  0.85801691394E+02  0.00000000000E+00 0. -1.
         21   -1    0    0  501  502  0.00000000000E+00 -0.00000000000E+00 -0.35793438176E+03  0.35793438176E+03  0.00000000000E+00 0. -1.
        -24    2    1    2    0    0 -0.26830941502E+02  0.76425872838E+02 -0.86057476709E+02  0.14273979999E+03  0.80049657975E+02 0.  0.
         23    2    1    2    0    0 -0.71139071739E+02 -0.34933338550E+02 -0.14081763830E+03  0.18537619695E+03  0.90849443974E+02 0.  0.
         11    1    3    3    0    0 -0.22183158730E+02  0.68967498111E+02 -0.18713907677E+02  0.74825254210E+02  0.00000000000E+00 0. -1.
        -12    1    3    3    0    0 -0.46477827722E+01  0.74583747267E+01 -0.67343569032E+02  0.67914545778E+02  0.00000000000E+00 0.  1.
        -11    1    4    4    0    0 -0.91640866874E+02 -0.36090524149E+02 -0.10411410276E+03  0.14331894783E+03  0.00000000000E+00 0. -1.
         11    1    4    4    0    0  0.20501795136E+02  0.11571855993E+01 -0.36703535541E+02  0.42057249120E+02  0.00000000000E+00 0.  1.
          2    1    1    2  501    0  0.97970013241E+02 -0.41492534289E+02 -0.45257575356E+02  0.11562007621E+03  0.00000000000E+00 0. -1.
<scales pt_clust_5="13000.00000" pt_clust_6="13000.00000" pt_clust_7="13000.00000" pt_clust_8="13000.00000" pt_clust_9="106.39439"></scales>
<clustering>
<clus scale="   80.050">  5  6 -1 -1</clus>
<clus scale="   90.849">  7  8 -1 -1</clus>
<clus scale="  106.394">  2  9  1 -1</clus>
<clus scale="  100.552">  1  5  2 -1</clus>
<clus scale="  106.394">  2  5  1 -1</clus>
</clustering>
</event>
<event>
 9    1  0.4067873E-005  0.1096045E+03  0.7546771E-02  0.1266333E+00
          1   -1    0    0  502    0 -0.00000000000E+00  0.00000000000E+00  0.18526837578E+03  0.18526837578E+03  0.00000000000E+00 0. -1.
         21   -1    0    0  501  502  0.00000000000E+00 -0.00000000000E+00 -0.87958713642E+02  0.87958713642E+02  0.00000000000E+00 0. -1.
         23    2    1    2    0    0 -0.25927469038E+02  0.59626663130E+02  0.76284641468E+02  0.13656769602E+03  0.92756759678E+02 0.  0.
        -24    2    1    2    0    0  0.33522340892E+02 -0.40728847899E+02  0.44191065519E+02  0.10581340286E+03  0.80380591953E+02 0.  0.
         11    1    4    4    0    0  0.15635972530E+02 -0.16216994704E+02  0.65150057586E+02  0.68934784816E+02  0.00000000000E+00 0. -1.
        -12    1    4    4    0    0  0.17886368362E+02 -0.24511853196E+02 -0.20958992067E+02  0.36878618043E+02  0.00000000000E+00 0.  1.
        -11    1    3    3    0    0 -0.30760297503E+02  0.79916529964E+02  0.77744445098E+02  0.11565918212E+03  0.00000000000E+00 0. -1.
         11    1    3    3    0    0  0.48328284651E+01 -0.20289866834E+02 -0.14598036301E+01  0.20908513906E+02  0.00000000000E+00 0.  1.
          2    1    1    2  501    0 -0.75948718535E+01 -0.18897815230E+02 -0.23166044845E+02  0.30845990545E+02  0.00000000000E+00 0. -1.
<scales pt_clust_5="13000.00000" pt_clust_6="13000.00000" pt_clust_7="13000.00000" pt_clust_8="13000.00000" pt_clust_9="20.36687"></scales>
<clustering>
<clus scale="   20.367">  2  9  1 -1</clus>
<clus scale="   80.381">  5  6 -1 -1</clus>
<clus scale="   92.757">  7  8 -1 -1</clus>
<clus scale="   99.350">  2  5  1 -1</clus>
<clus scale="   20.367">  2  5  1 -1</clus>
</clustering>
</event>
<event>
 9    1  0.4067873E-005  0.1468747E+03  0.7546771E-02  0.1226424E+00
         21   -1    0    0  501  502  0.00000000000E+00  0.00000000000E+00  0.80187348794E+03  0.80187348794E+03  0.00000000000E+00 0. -1.
          1   -1    0    0  502    0 -0.00000000000E+00 -0.00000000000E+00 -0.45524906062E+02  0.45524906062E+02  0.00000000000E+00 0. -1.
        -24    2    1    2    0    0 -0.36883287163E+02 -0.16310870460E+02  0.13937843351E+03  0.16705572184E+03  0.82793991962E+02 0.  0.
         23    2    1    2    0    0 -0.85751193568E+02  0.16459025477E+02  0.14735611736E+03  0.19498035808E+03  0.93163018381E+02 0.  0.
         13    1    3    3    0    0 -0.29223821837E+02 -0.49784600036E+02  0.85434967480E+02  0.10310999870E+03  0.00000000000E+00 0. -1.
        -14    1    3    3    0    0 -0.76594653260E+01  0.33473729576E+02  0.53943466026E+02  0.63945723138E+02  0.00000000000E+00 0.  1.
        -11    1    4    4    0    0 -0.38672252719E+02 -0.27157165718E+02  0.11233346954E+03  0.12186822046E+03  0.00000000000E+00 0.  1.
         11    1    4    4    0    0 -0.47078940849E+02  0.43616191196E+02  0.35022647822E+02  0.73112137613E+02  0.00000000000E+00 0. -1.
          2    1    1    2  501    0  0.12263448073E+03 -0.14815501655E+00  0.46961403101E+03  0.48536231409E+03  0.00000000000E+00 0. -1.
<scales pt_clust_5="13000.00000" pt_clust_6="13000.00000" pt_clust_7="13000.00000" pt_clust_8="13000.00000" pt_clust_9="113.54662"></scales>
<clustering>
<clus scale="   82.794">  5  6 -1 -1</clus>
<clus scale="   92.094">  2  5  1 -1</clus>
<clus scale="   93.163">  7  8 -1 -1</clus>
<clus scale="  113.547">  1  9  2 -1</clus>
<clus scale="  113.547">  1  5  2 -1</clus>
</clustering>
</event>
<event>
 9    1  0.4067873E-005  0.9662948E+02  0.7546771E-02  0.1293296E+00
         21   -1    0    0  501  502  0.00000000000E+00  0.00000000000E+00  0.33234807602E+02  0.33234807602E+02  0.00000000000E+00 0. -1.
          1   -1    0    0  502    0 -0.00000000000E+00 -0.00000000000E+00 -0.61929753652E+03  0.61929753652E+03  0.00000000000E+00 0. -1.
        -24    2    1    2    0    0  0.44532194797E+01  0.29634796781E+02 -0.33178104175E+03  0.34302306625E+03  0.81780877777E+02 0.  0.
         23    2    1    2    0    0  0.31660460253E+02 -0.24145496095E+02 -0.25384203712E+03  0.27297814625E+03  0.92173199967E+02 0.  0.
         13    1    3    3    0    0  0.36360456719E+02  0.21391326069E+02 -0.94814947047E+02  0.10377642231E+03  0.00000000000E+00 0. -1.
        -14    1    3    3    0    0 -0.31907237239E+02  0.82434707121E+01 -0.23696609470E+03  0.23924664394E+03  0.00000000000E+00 0.  1.
        -13    1    4    4    0    0  0.63754370468E+02 -0.24436833888E+02 -0.16937060762E+03  0.18261484422E+03  0.00000000000E+00 0.  1.
         13    1    4    4    0    0 -0.32093910215E+02  0.29133779324E+00 -0.84471429508E+02  0.90363302030E+02  0.00000000000E+00 0. -1.
          2    1    1    2  501    0 -0.36113679733E+02 -0.54893006857E+01 -0.43965004655E+00  0.36531131628E+02  0.00000000000E+00 0. -1.
<scales pt_clust_5="13000.00000" pt_clust_6="13000.00000" pt_clust_7="13000.00000" pt_clust_8="13000.00000" pt_clust_9="36.52849"></scales>
<clustering>
<clus scale="   36.528">  1  9  2 -1</clus>
<clus scale="   81.781">  5  6 -1 -1</clus>
<clus scale="   86.773">  2  5  1 -1</clus>
<clus scale="   92.173">  7  8 -1 -1</clus>
<clus scale="   36.528">  1  5  2 -1</clus>
</clustering>
</event>
<event>
 9    1  0.4067873E-005  0.1976260E+03  0.7546771E-02  0.1185159E+00
         21   -1    0    0  501  502  0.00000000000E+00  0.00000000000E+00  0.15535989969E+03  0.15535989969E+03  0.00000000000E+00 0.  1.
         -2   -1    0    0    0  501 -0.00000000000E+00 -0.00000000000E+00 -0.51812921802E+03  0.51812921802E+03  0.00000000000E+00 0.  1.
        -24    2    1    2    0    0  0.43616459694E+02 -0.99363567800E+01 -0.67772122672E+02  0.11414572791E+03  0.80218824761E+02 0.  0.
         23    2    1    2    0    0 -0.38593285862E+02  0.18416853502E+03 -0.32132175567E+03  0.38306217506E+03  0.89896987087E+02 0.  0.
         11    1    3    3    0    0 -0.23057254963E+02  0.43060513898E+01 -0.14017219024E+02  0.27325107761E+02  0.00000000000E+00 0. -1.
        -12    1    3    3    0    0  0.66673714656E+02 -0.14242408170E+02 -0.53754903648E+02  0.86820620147E+02  0.00000000000E+00 0.  1.
        -11    1    4    4    0    0 -0.36401712441E+02  0.10633013695E+03 -0.26226416808E+03  0.28533081949E+03  0.00000000000E+00 0.  1.
         11    1    4    4    0    0 -0.21915734209E+01  0.77838398075E+02 -0.59057587583E+02  0.97731355563E+02  0.00000000000E+00 0. -1.
         -1    1    1    2    0  502 -0.50231738314E+01 -0.17423217824E+03  0.26324560009E+02  0.17628121474E+03  0.00000000000E+00 0.  1.
<scales pt_clust_5="13000.00000" pt_clust_6="13000.00000" pt_clust_7="13000.00000" pt_clust_8="13000.00000" pt_clust_9="175.99593"></scales>
<clustering>
<clus scale="   80.219">  5  6 -1 -1</clus>
<clus scale="   89.897">  7  8 -1 -1</clus>
<clus scale="   91.849">  2  5  1 -1</clus>
<clus scale="  175.996">  1  9  2 -1</clus>
<clus scale="  175.996">  1  5  2 -1</clus>
</clustering>
</event>
<event>
 9    1  0.4067873E-005  0.1284957E+03  0.7546771E-02  0.1234099E+00
         21   -1    0    0  501  502  0.00000000000E+00  0.00000000000E+00  0.74346267438E+02  0.74346267438E+02  0.00000000000E+00 0.  1.
          1   -1    0    0  502    0 -0.00000000000E+00 -0.00000000000E+00 -0.40879367677E+03  0.40879367677E+03  0.00000000000E+00 0. -1.
        -24    2    1    2    0    0  0.90227487701E+02  0.11277766501E+01 -0.29672015443E+03  0.32046986745E+03  0.80720595158E+02 0.  0.
         23    2    1    2    0    0 -0.68412159887E+02  0.18403671356E+02 -0.51787726641E+02  0.13018803780E+03  0.96166718853E+02 0.  0.
         13    1    3    3    0    0  0.40533816202E+02  0.37994715093E+02 -0.17977909987E+03  0.18816777987E+03  0.00000000000E+00 0. -1.
        -14    1    3    3    0    0  0.49693671499E+02 -0.36866938443E+02 -0.11694105457E+03  0.13230208759E+03  0.00000000000E+00 0.  1.
        -13    1    4    4    0    0 -0.72838678126E+02  0.40054109985E+02 -0.64028524066E+02  0.10492595795E+03  0.00000000000E+00 0.  1.
         13    1    4    4    0    0  0.44265182385E+01 -0.21650438629E+02  0.12240797425E+02  0.25262079846E+02  0.00000000000E+00 0. -1.
          2    1    1    2  501    0 -0.21815327814E+02 -0.19531448006E+02  0.14060471745E+02  0.32482038953E+02  0.00000000000E+00 0. -1.
<scales pt_clust_5="13000.00000" pt_clust_6="13000.00000" pt_clust_7="13000.00000" pt_clust_8="13000.00000" pt_clust_9="29.28115"></scales>
<clustering>
<clus scale="   29.281">  1  9  2 -1</clus>
<clus scale="   80.721">  5  6 -1 -1</clus>
<clus scale="   96.167">  7  8 -1 -1</clus>
<clus scale="  117.384">  2  5  1 -1</clus>
<clus scale="   29.281">  1  5  2 -1</clus>
</clustering>
</event>
<event>
 9    1  0.4067873E-005  0.1009638E+03  0.7546771E-02  0.1285897E+00
         -4   -1    0    0    0  501 -0.00000000000E+00  0.00000000000E+00  0.53779421027E+03  0.53779421027E+03  0.00000000000E+00 0.  1.
         21   -1    0    0  501  502  0.00000000000E+00 -0.00000000000E+00 -0.38773095570E+02  0.38773095570E+02  0.00000000000E+00 0.  1.
        -24    2    1    2    0    0  0.14087115364E+01  0.45873055010E+02  0.34482564772E+03  0.35655930816E+03  0.78252739650E+02 0.  0.
         23    2    1    2    0    0 -0.13176232463E+02 -0.22229174349E+02  0.16518487012E+03  0.19140249780E+03  0.93172557933E+02 0.  0.
         11    1    3    3    0    0 -0.15450995150E+02  0.49660482706E+02  0.11651435738E+03  0.12759503231E+03  0.00000000000E+00 0. -1.
        -12    1    3    3    0    0  0.16859706686E+02 -0.37874276964E+01  0.22831129034E+03  0.22896427585E+03  0.00000000000E+00 0.  1.
        -11    1    4    4    0    0 -0.22404610163E+02  0.21765082916E+02  0.13169035079E+03  0.13534413132E+03  0.00000000000E+00 0.  1.
         11    1    4    4    0    0  0.92283776994E+01 -0.43994257265E+02  0.33494519335E+02  0.56058366483E+02  0.00000000000E+00 0. -1.
         -3    1    1    2    0  502  0.11767520927E+02 -0.23643880661E+02 -0.10989403153E+02  0.28605499876E+02  0.00000000000E+00 0.  1.
<scales pt_clust_5="13000.00000" pt_clust_6="13000.00000" pt_clust_7="13000.00000" pt_clust_8="13000.00000" pt_clust_9="26.41037"></scales>
<clustering>
<clus scale="   26.410">  2  9  1 -1</clus>
<clus scale="   78.253">  5  6 -1 -1</clus>
<clus scale="   87.385">  1  5  2 -1</clus>
<clus scale="   93.173">  7  8 -1 -1</clus>
<clus scale="   26.410">  2  5  1 -1</clus>
</clustering>
</event>
<event>
 9    1  0.4067873E-005  0.3911331E+03  0.7546771E-02  0.1047109E+00
         21   -1    0    0  501  502  0.00000000000E+00  0.00000000000E+00  0.79744163652E+02  0.79744163652E+02  0.00000000000E+00 0. -1.
          1   -1    0    0  502    0 -0.00000000000E+00 -0.00000000000E+00 -0.29381961332E+04  0.29381961332E+04  0.00000000000E+00 0. -1.
         23    2    1    2    0    0 -0.33638382528E+03 -0.89513366314E+02 -0.12703090090E+04  0.13202943483E+04  0.91243997513E+02 0.  0.
        -24    2    1    2    0    0  0.44522156756E+03  0.39721257614E+02 -0.10124240231E+04  0.11096177153E+04  0.80305970921E+02 0.  0.
         11    1    4    4    0    0  0.26806590360E+03 -0.14381752905E+01 -0.52746644094E+03  0.59167748254E+03  0.00000000000E+00 0. -1.
        -12    1    4    4    0    0  0.17715566395E+03  0.41159432905E+02 -0.48495758221E+03  0.51794023278E+03  0.00000000000E+00 0.  1.
        -13    1    3    3    0    0 -0.87931712737E+01 -0.23143871037E+02 -0.11325789037E+03  0.11593234389E+03  0.00000000000E+00 0.  1.
         13    1    3    3    0    0 -0.32759065401E+03 -0.66369495277E+02 -0.11570511186E+04  0.12043620044E+04  0.00000000000E+00 0. -1.
          2    1    1    2  501    0 -0.10883774227E+03  0.49792108700E+02 -0.57571893737E+03  0.58802823323E+03  0.00000000000E+00 0. -1.
<scales pt_clust_5="13000.00000" pt_clust_6="13000.00000" pt_clust_7="13000.00000" pt_clust_8="13000.00000" pt_clust_9="119.68677"></scales>
<clustering>
<clus scale="   80.306">  5  6 -1 -1</clus>
<clus scale="   91.244">  7  8 -1 -1</clus>
<clus scale="  119.687">  1  9  2 -1</clus>
<clus scale="  388.727">  1  5  2 -1</clus>
<clus scale="  119.687">  1  5  2 -1</clus>
</clustering>
</event>
<event>
 9    1  0.4067873E-005  0.9873384E+02  0.7546771E-02  0.1288886E+00
          1   -1    0    0  502    0 -0.00000000000E+00  0.00000000000E+00  0.34100737789E+03  0.34100737789E+03  0.00000000000E+00 0. -1.
         21   -1    0    0  501  502  0.00000000000E+00 -0.00000000000E+00 -0.44630391905E+02  0.44630391905E+02  0.00000000000E+00 0.  1.
         23    2    1    2    0    0  0.27043387735E+02 -0.26977125457E+02  0.99731241754E+02  0.14123493501E+03  0.92422270953E+02 0.  0.
        -24    2    1    2    0    0  0.41796415150E+01  0.38634990007E+02  0.71725464121E+02  0.11511300632E+03  0.81217794629E+02 0.  0.
         11    1    4    4    0    0 -0.12075468727E+02  0.51299880794E+02  0.77491847815E+02  0.93714893119E+02  0.00000000000E+00 0. -1.
        -12    1    4    4    0    0  0.16255110242E+02 -0.12664890787E+02 -0.57663836946E+01  0.21398113200E+02  0.00000000000E+00 0.  1.
        -13    1    3    3    0    0 -0.94570726367E+01 -0.42576290890E+02  0.12457292933E+02  0.45358140571E+02  0.00000000000E+00 0. -1.
         13    1    3    3    0    0  0.36500460372E+02  0.15599165433E+02  0.87273948821E+02  0.95876794442E+02  0.00000000000E+00 0.  1.
          2    1    1    2  501    0 -0.31223029250E+02 -0.11657864550E+02  0.12492028011E+03  0.12928982846E+03  0.00000000000E+00 0. -1.
<scales pt_clust_5="13000.00000" pt_clust_6="13000.00000" pt_clust_7="13000.00000" pt_clust_8="13000.00000" pt_clust_9="33.32843"></scales>
<clustering>
<clus scale="   33.328">  2  9  1 -1</clus>
<clus scale="   81.218">  5  6 -1 -1</clus>
<clus scale="   88.334">  2  5  1 -1</clus>
<clus scale="   92.422">  7  8 -1 -1</clus>
<clus scale="   33.328">  2  5  1 -1</clus>
</clustering>
</event>
<event>
 9    1  0.4067873E-005  0.8876243E+02  0.7546771E-02  0.1309203E+00
         21   -1    0    0  501  502  0.00000000000E+00  0.00000000000E+00  0.33737821966E+03  0.33737821966E+03  0.00000000000E+00 0. -1.
          3   -1    0    0  502    0 -0.00000000000E+00 -0.00000000000E+00 -0.10107142755E+03  0.10107142755E+03  0.00000000000E+00 0. -1.
        -24    2    1    2    0    0  0.25631184432E+02 -0.87722249033E+01 -0.34133698414E+02  0.91344273688E+02  0.80279246528E+02 0.  0.
         23    2    1    2    0    0 -0.84039633637E+01 -0.62642131718E+02  0.55751684249E+02  0.12019554338E+03  0.85697462543E+02 0.  0.
         11    1    3    3    0    0 -0.16498666321E+02 -0.32212416361E+02 -0.18602056926E+02  0.40692533468E+02  0.00000000000E+00 0. -1.
        -12    1    3    3    0    0  0.42129850753E+02  0.23440191457E+02 -0.15531641488E+02  0.50651740220E+02  0.00000000000E+00 0.  1.
        -13    1    4    4    0    0 -0.19886464652E+02 -0.13805749551E+02  0.64839014492E+02  0.69211039562E+02  0.00000000000E+00 0.  1.
         13    1    4    4    0    0  0.11482501288E+02 -0.48836382167E+02 -0.90873302424E+01  0.50984503821E+02  0.00000000000E+00 0. -1.
          4    1    1    2  501    0 -0.17227221068E+02  0.71414356621E+02  0.21468880627E+03  0.22690983014E+03  0.00000000000E+00 0. -1.
<scales pt_clust_5="13000.00000" pt_clust_6="13000.00000" pt_clust_7="13000.00000" pt_clust_8="13000.00000" pt_clust_9="73.46283"></scales>
<clustering>
<clus scale="   73.463">  1  9  2 -1</clus>
<clus scale="   80.279">  5  6 -1 -1</clus>
<clus scale="   83.543">  2  5  1 -1</clus>
<clus scale="   85.697">  7  8 -1 -1</clus>
<clus scale="   73.463">  1  5  2 -1</clus>
</clustering>
</event>
<event>
 9    1  0.4067873E-005  0.9779725E+02  0.7546771E-02  0.1289869E+00
         -2   -1    0    0    0  501 -0.00000000000E+00  0.00000000000E+00  0.25660033881E+03  0.25660033881E+03  0.00000000000E+00 0.  1.
         21   -1    0    0  501  502  0.00000000000E+00 -0.00000000000E+00 -0.21196326851E+03  0.21196326851E+03  0.00000000000E+00 0.  1.
        -24    2    1    2    0    0 -0.22220501809E+02  0.26083192366E+02  0.19245087974E+03  0.21207125062E+03  0.82236187925E+02 0.  0.
         23    2    1    2    0    0  0.44421454840E+02 -0.17280232948E+02 -0.18528747739E+03  0.21205532035E+03  0.91455658713E+02 0.  0.
         11    1    3    3    0    0  0.77885646278E+01  0.49780434516E+02  0.98552722148E+02  0.11068600834E+03  0.00000000000E+00 0. -1.
        -12    1    3    3    0    0 -0.30009066437E+02 -0.23697242151E+02  0.93898157590E+02  0.10138524228E+03  0.00000000000E+00 0.  1.
        -11    1    4    4    0    0 -0.10124065600E+02 -0.36572966062E+02 -0.37520690423E+02  0.53365539074E+02  0.00000000000E+00 0. -1.
         11    1    4    4    0    0  0.54545520440E+02  0.19292733114E+02 -0.14776678697E+03  0.15868978128E+03  0.00000000000E+00 0.  1.
         -1    1    1    2    0  502 -0.22200953031E+02 -0.88029594180E+01  0.37473667946E+02  0.44437036347E+02  0.00000000000E+00 0.  1.
<scales pt_clust_5="13000.00000" pt_clust_6="13000.00000" pt_clust_7="13000.00000" pt_clust_8="13000.00000" pt_clust_9="23.88252"></scales>
<clustering>
<clus scale="   23.883">  2  9  1 -1</clus>
<clus scale="   82.236">  5  6 -1 -1</clus>
<clus scale="   89.235">  1  5  2 -1</clus>
<clus scale="   91.456">  7  8 -1 -1</clus>
<clus scale="   23.883">  2  5  1 -1</clus>
</clustering>
</event>
<event>
 9    1  0.4067873E-005  0.9936969E+02  0.7546771E-02  0.1290479E+00
         -4   -1    0    0    0  501 -0.00000000000E+00  0.00000000000E+00  0.71253959632E+02  0.71253959632E+02  0.00000000000E+00 0.  1.
         21   -1    0    0  501  502  0.00000000000E+00 -0.00000000000E+00 -0.17617337629E+03  0.17617337629E+03  0.00000000000E+00 0. -1.
        -24    2    1    2    0    0 -0.16565946537E+02  0.16627738730E+02 -0.86899282011E+01  0.83643468849E+02  0.79811044029E+02 0.  0.
         23    2    1    2    0    0  0.61148921599E+01 -0.38264392303E+02 -0.93961816888E+02  0.13964858895E+03  0.95767164201E+02 0.  0.
         13    1    3    3    0    0 -0.65788697032E+01  0.47475586234E+02  0.55123966712E+01  0.48245200091E+02  0.00000000000E+00 0. -1.
        -14    1    3    3    0    0 -0.99870768340E+01 -0.30847847503E+02 -0.14202324872E+02  0.35398268758E+02  0.00000000000E+00 0.  1.
        -13    1    4    4    0    0 -0.19187474469E+01 -0.70133382136E+02 -0.59067514734E+02  0.91713380586E+02  0.00000000000E+00 0. -1.
         13    1    4    4    0    0  0.80336396068E+01  0.31868989833E+02 -0.34894302153E+02  0.47935208366E+02  0.00000000000E+00 0.  1.
         -3    1    1    2    0  502  0.10451054377E+02  0.21636653573E+02 -0.22676715645E+01  0.24135278116E+02  0.00000000000E+00 0.  1.
<scales pt_clust_5="13000.00000" pt_clust_6="13000.00000" pt_clust_7="13000.00000" pt_clust_8="13000.00000" pt_clust_9="24.02852"></scales>
<clustering>
<clus scale="   24.029">  2  9  1 -1</clus>
<clus scale="   79.811">  5  6 -1 -1</clus>
<clus scale="   84.100">  1  5  2 -1</clus>
<clus scale="   95.767">  7  8 -1 -1</clus>
<clus scale="   24.029">  2  5  1 -1</clus>
</clustering>
</event>
<event>
 9    1  0.4067873E-005  0.1529963E+03  0.7546771E-02  0.1205204E+00
         21   -1    0    0  501  502  0.00000000000E+00  0.00000000000E+00  0.16757341111E+03  0.16757341111E+03  0.00000000000E+00 0. -1.
          3   -1    0    0  502    0 -0.00000000000E+00 -0.00000000000E+00 -0.34084815863E+03  0.34084815863E+03  0.00000000000E+00 0. -1.
         23    2    1    2    0    0  0.48142854492E+02 -0.75838920329E+02  0.48133745554E+02  0.13639365219E+03  0.90648191493E+02 0.  0.
        -24    2    1    2    0    0  0.90141546189E+02  0.10047624236E+03 -0.99202359743E+02  0.18584544756E+03  0.80476385176E+02 0.  0.
         13    1    4    4    0    0  0.93576219276E+02  0.82177439661E+02 -0.10837497688E+03  0.16509020570E+03  0.00000000000E+00 0. -1.
        -14    1    4    4    0    0 -0.34346730863E+01  0.18298802699E+02  0.91726171402E+01  0.20755241859E+02  0.00000000000E+00 0.  1.
        -11    1    3    3    0    0  0.41369907018E+02 -0.83658336834E+00 -0.84062528409E+01  0.42223620939E+02  0.00000000000E+00 0.  1.
         11    1    3    3    0    0  0.67729474743E+01 -0.75002336960E+02  0.56539998394E+02  0.94170031249E+02  0.00000000000E+00 0. -1.
          4    1    1    2  501    0 -0.13828440068E+03 -0.24637322031E+02 -0.12220613333E+03  0.18618246999E+03  0.00000000000E+00 0. -1.
<scales pt_clust_5="13000.00000" pt_clust_6="13000.00000" pt_clust_7="13000.00000" pt_clust_8="13000.00000" pt_clust_9="130.12081"></scales>
<clustering>
<clus scale="   80.476">  5  6 -1 -1</clus>
<clus scale="   90.648">  7  8 -1 -1</clus>
<clus scale="  127.618">  2  7  1 -1</clus>
<clus scale="  130.121">  1  9  2 -1</clus>
<clus scale="  130.121">  1  5  2 -1</clus>
</clustering>
</event>
<event>
 9    1  0.4067873E-005  0.1081735E+03  0.7546771E-02  0.1266245E+00
         21   -1    0    0  501  502  0.00000000000E+00  0.00000000000E+00  0.32745633390E+03  0.32745633390E+03  0.00000000000E+00 0. -1.
         -4   -1    0    0    0  501 -0.00000000000E+00 -0.00000000000E+00 -0.71761617535E+02  0.71761617535E+02  0.00000000000E+00 0.  1.
        -24    2    1    2    0    0  0.49497165006E+02 -0.20087755675E+02  0.18652180963E+02  0.10984445621E+03  0.94151013984E+02 0.  0.
         23    2    1    2    0    0 -0.25837358078E+02  0.60119963417E+02  0.11769823115E+03  0.16128982305E+03  0.88766853777E+02 0.  0.
         13    1    3    3    0    0  0.74556522966E+02 -0.34296346109E+01  0.37240096204E+00  0.74636292732E+02  0.00000000000E+00 0. -1.
        -14    1    3    3    0    0 -0.25059357960E+02 -0.16658121064E+02  0.18279780001E+02  0.35208163480E+02  0.00000000000E+00 0.  1.
        -13    1    4    4    0    0 -0.36534674520E+02  0.12197690908E+02  0.56165084417E+01  0.38924430283E+02  0.00000000000E+00 0.  1.
         13    1    4    4    0    0  0.10697316442E+02  0.47922272509E+02  0.11208172271E+03  0.12236539276E+03  0.00000000000E+00 0. -1.
         -3    1    1    2    0  502 -0.23659806928E+02 -0.40032207742E+02  0.11934430426E+03  0.12808367218E+03  0.00000000000E+00 0.  1.
<scales pt_clust_5="13000.00000" pt_clust_6="13000.00000" pt_clust_7="13000.00000" pt_clust_8="13000.00000" pt_clust_9="46.50123"></scales>
<clustering>
<clus scale="   46.501">  1  9  2 -1</clus>
<clus scale="   88.767">  7  8 -1 -1</clus>
<clus scale="   94.151">  5  6 -1 -1</clus>
<clus scale="  103.521">  1  7  2 -1</clus>
<clus scale="   46.501">  1  5  2 -1</clus>
</clustering>
</event>
<event>
 9    1  0.4067873E-005  0.9149680E+02  0.7546771E-02  0.1307991E+00
          1   -1    0    0  502    0 -0.00000000000E+00  0.00000000000E+00  0.17156735783E+03  0.17156735783E+03  0.00000000000E+00 0. -1.
         21   -1    0    0  501  502  0.00000000000E+00 -0.00000000000E+00 -0.61904868034E+02  0.61904868034E+02  0.00000000000E+00 0.  1.
         23    2    1    2    0    0  0.71997029344E+01 -0.43652198269E+01  0.87734226760E+02  0.12696373642E+03  0.91387115914E+02 0.  0.
        -24    2    1    2    0    0  0.14799916441E+02  0.46164372888E+01  0.65063250562E+01  0.79640617659E+02  0.77845659452E+02 0.  0.
         13    1    4    4    0    0 -0.24555090473E+02 -0.19325207721E+02 -0.61959769413E+01  0.31856023792E+02  0.00000000000E+00 0. -1.
        -14    1    4    4    0    0  0.39355006914E+02  0.23941645010E+02  0.12702301997E+02  0.47784593867E+02  0.00000000000E+00 0.  1.
        -13    1    3    3    0    0 -0.40171127263E+02 -0.25420997416E+01  0.59343538431E+02  0.71706605625E+02  0.00000000000E+00 0. -1.
         13    1    3    3    0    0  0.47370830197E+02 -0.18231200854E+01  0.28390688329E+02  0.55257130800E+02  0.00000000000E+00 0.  1.
          2    1    1    2  501    0 -0.21999619375E+02 -0.25121746192E+00  0.15421937975E+02  0.26867871776E+02  0.00000000000E+00 0. -1.
<scales pt_clust_5="13000.00000" pt_clust_6="13000.00000" pt_clust_7="13000.00000" pt_clust_8="13000.00000" pt_clust_9="22.00106"></scales>
<clustering>
<clus scale="   22.001">  2  9  1 -1</clus>
<clus scale="   77.846">  5  6 -1 -1</clus>
<clus scale="   77.974">  2  5  1 -1</clus>
<clus scale="   91.387">  7  8 -1 -1</clus>
<clus scale="   22.001">  2  5  1 -1</clus>
</clustering>
</event>
<event>
 9    1  0.4067873E-005  0.9154367E+02  0.7546771E-02  0.1304583E+00
         21   -1    0    0  501  502  0.00000000000E+00  0.00000000000E+00  0.12911793282E+03  0.12911793282E+03  0.00000000000E+00 0. -1.
          1   -1    0    0  502    0 -0.00000000000E+00 -0.00000000000E+00 -0.17817884444E+03  0.17817884444E+03  0.00000000000E+00 0. -1.
        -24    2    1    2    0    0 -0.40636522619E+00  0.84720955056E+01 -0.10827332261E+03  0.13648902365E+03  0.82669218291E+02 0.  0.
         23    2    1    2    0    0  0.14306376397E+02  0.20420754130E+02  0.86826487248E+02  0.12849293022E+03  0.91377867261E+02 0.  0.
         13    1    3    3    0    0  0.16238723819E+02  0.42173818393E+02 -0.65056685194E+02  0.79213000180E+02  0.00000000000E+00 0. -1.
        -14    1    3    3    0    0 -0.16645089045E+02 -0.33701722888E+02 -0.43216637418E+02  0.57276023471E+02  0.00000000000E+00 0.  1.
        -13    1    4    4    0    0  0.47126214264E+02  0.20228214365E+02  0.21943935735E+02  0.55781690929E+02  0.00000000000E+00 0.  1.
         13    1    4    4    0    0 -0.32819837868E+02  0.19253976514E+00  0.64882551513E+02  0.72711239296E+02  0.00000000000E+00 0. -1.
          2    1    1    2  501    0 -0.13900011171E+02 -0.28892849636E+02 -0.27614076255E+02  0.42314823384E+02  0.00000000000E+00 0. -1.
<scales pt_clust_5="13000.00000" pt_clust_6="13000.00000" pt_clust_7="13000.00000" pt_clust_8="13000.00000" pt_clust_9="32.06257"></scales>
<clustering>
<clus scale="   32.063">  1  9  2 -1</clus>
<clus scale="   82.669">  5  6 -1 -1</clus>
<clus scale="   82.852">  2  5  1 -1</clus>
<clus scale="   91.378">  7  8 -1 -1</clus>
<clus scale="   32.063">  1  5  2 -1</clus>
</clustering>
</event>
<event>
 9    1  0.4067873E-005  0.2589695E+03  0.7546771E-02  0.1151188E+00
         21   -1    0    0  501  502  0.00000000000E+00  0.00000000000E+00  0.53195831142E+03  0.53195831142E+03  0.00000000000E+00 0. -1.
          1   -1    0    0  502    0 -0.00000000000E+00 -0.00000000000E+00 -0.65916361676E+03  0.65916361676E+03  0.00000000000E+00 0. -1.
        -24    2    1    2    0    0  0.11680015936E+02 -0.32627302960E+02 -0.18044355359E+03  0.20120613299E+03  0.81994318414E+02 0.  0.
         23    2    1    2    0    0  0.11689574818E+03  0.21060416052E+03  0.45944750624E+03  0.52816537534E+03  0.99236708685E+02 0.  0.
         13    1    3    3    0    0  0.24309152929E+02 -0.50458892163E+02 -0.16553516033E+03  0.17475389558E+03  0.00000000000E+00 0. -1.
        -14    1    3    3    0    0 -0.12629136993E+02  0.17831589203E+02 -0.14908393257E+02  0.26452237414E+02  0.00000000000E+00 0.  1.
        -11    1    4    4    0    0  0.11100037066E+03  0.99357539131E+02  0.25438113692E+03  0.29479275040E+03  0.00000000000E+00 0. -1.
         11    1    4    4    0    0  0.58953775257E+01  0.11124662139E+03  0.20506636932E+03  0.23337262494E+03  0.00000000000E+00 0.  1.
          2    1    1    2  501    0 -0.12857576412E+03 -0.17797685756E+03 -0.40620925799E+03  0.46175041984E+03  0.00000000000E+00 0. -1.
<scales pt_clust_5="13000.00000" pt_clust_6="13000.00000" pt_clust_7="13000.00000" pt_clust_8="13000.00000" pt_clust_9="239.20150"></scales>
<clustering>
<clus scale="   81.994">  5  6 -1 -1</clus>
<clus scale="   89.017">  2  5  1 -1</clus>
<clus scale="   99.237">  7  8 -1 -1</clus>
<clus scale="  239.201">  1  9  2 -1</clus>
<clus scale="  239.201">  1  5  2 -1</clus>
</clustering>
</event>
<event>
 9    1  0.4067873E-005  0.2296974E+03  0.7546771E-02  0.1162158E+00
         21   -1    0    0  501  502  0.00000000000E+00  0.00000000000E+00  0.46445768576E+03  0.46445768576E+03  0.00000000000E+00 0. -1.
         -4   -1    0    0    0  501 -0.00000000000E+00 -0.00000000000E+00 -0.16551974603E+03  0.16551974603E+03  0.00000000000E+00 0.  1.
         23    2    1    2    0    0  0.21934349825E+02 -0.27292354227E+02  0.40283113961E+02  0.10657887209E+03  0.92251495406E+02 0.  0.
        -24    2    1    2    0    0 -0.11813773034E+03  0.19690516681E+03  0.21243410575E+03  0.32299907972E+03  0.80448667893E+02 0.  0.
         11    1    4    4    0    0 -0.72200898757E+02  0.16627719467E+03  0.12722370466E+03  0.22146545166E+03  0.00000000000E+00 0. -1.
        -12    1    4    4    0    0 -0.45936831584E+02  0.30627972136E+02  0.85210401091E+02  0.10153362806E+03  0.00000000000E+00 0.  1.
        -11    1    3    3    0    0  0.40091669655E+02 -0.49889238762E+02  0.43540528254E+02  0.77408369835E+02  0.00000000000E+00 0. -1.
         11    1    3    3    0    0 -0.18157319829E+02  0.22596884535E+02 -0.32574142928E+01  0.29170502257E+02  0.00000000000E+00 0.  1.
         -3    1    1    2    0  502  0.96203380515E+02 -0.16961281258E+03  0.46220720019E+02  0.20039947997E+03  0.00000000000E+00 0.  1.
<scales pt_clust_5="13000.00000" pt_clust_6="13000.00000" pt_clust_7="13000.00000" pt_clust_8="13000.00000" pt_clust_9="215.14870"></scales>
<clustering>
<clus scale="   80.449">  5  6 -1 -1</clus>
<clus scale="   92.251">  7  8 -1 -1</clus>
<clus scale="   98.673">  2  7  1 -1</clus>
<clus scale="  215.149">  1  9  2 -1</clus>
<clus scale="  215.149">  1  5  2 -1</clus>
</clustering>
</event>
<event>
 9    1  0.4067873E-005  0.1384151E+03  0.7546771E-02  0.1229306E+00
         -2   -1    0    0    0  501 -0.00000000000E+00  0.00000000000E+00  0.68610820158E+03  0.68610820158E+03  0.00000000000E+00 0.  1.
         21   -1    0    0  501  502  0.00000000000E+00 -0.00000000000E+00 -0.41767832192E+03  0.41767832192E+03  0.00000000000E+00 0.  1.
        -24    2    1    2    0    0  0.24379444553E+02  0.61019739937E+02  0.52421328847E+03  0.53436301669E+03  0.80165427878E+02 0.  0.
         23    2    1    2    0    0  0.53794577341E+02  0.11730960650E+02  0.13058460590E+03  0.16856931270E+03  0.91278704513E+02 0.  0.
         11    1    3    3    0    0 -0.25049864425E+02  0.41042412805E+02  0.19377686931E+03  0.19965332563E+03  0.00000000000E+00 0. -1.
        -12    1    3    3    0    0  0.49429308978E+02  0.19977327131E+02  0.33043641916E+03  0.33470969106E+03  0.00000000000E+00 0.  1.
        -13    1    4    4    0    0  0.27044097567E+02  0.51213828322E+02  0.82911354212E+02  0.10113620559E+03  0.00000000000E+00 0.  1.
         13    1    4    4    0    0  0.26750479773E+02 -0.39482867672E+02  0.47673251692E+02  0.67433107111E+02  0.00000000000E+00 0. -1.
         -1    1    1    2    0  502 -0.78174021894E+02 -0.72750700586E+02 -0.38636801471E+03  0.40085419410E+03  0.00000000000E+00 0.  1.
<scales pt_clust_5="13000.00000" pt_clust_6="13000.00000" pt_clust_7="13000.00000" pt_clust_8="13000.00000" pt_clust_9="104.05254"></scales>
<clustering>
<clus scale="   80.165">  5  6 -1 -1</clus>
<clus scale="   91.279">  7  8 -1 -1</clus>
<clus scale="  103.655">  1  5  2 -1</clus>
<clus scale="  104.053">  2  9  1 -1</clus>
<clus scale="  104.053">  2  5  1 -1</clus>
</clustering>
</event>
<event>
 9    1  0.4067873E-005  0.5031399E+03  0.7546771E-02  0.1013095E+00
          1   -1    0    0  502    0 -0.00000000000E+00  0.00000000000E+00  0.50374152998E+03  0.50374152998E+03  0.00000000000E+00 0. -1.
         21   -1    0    0  501  502  0.00000000000E+00 -0.00000000000E+00 -0.57261032515E+03  0.57261032515E+03  0.00000000000E+00 0.  1.
         23    2    1    2    0    0  0.43634318140E+03  0.17610099729E+03 -0.27770387120E+02  0.47998999412E+03  0.90621558456E+02 0.  0.
        -24    2    1    2    0    0 -0.47999698981E+03 -0.21016193462E+03 -0.69080729409E+02  0.53432306066E+03  0.78510107551E+02 0.  0.
         13    1    4    4    0    0 -0.11492028179E+03 -0.68678939334E+02  0.12229056420E+02  0.13443592413E+03  0.00000000000E+00 0. -1.
        -14    1    4    4    0    0 -0.36507670802E+03 -0.14148299529E+03 -0.81309785829E+02  0.39988713654E+03  0.00000000000E+00 0.  1.
        -13    1    3    3    0    0  0.14317906260E+03  0.15880894322E+02  0.61136302958E+01  0.14418676516E+03  0.00000000000E+00 0.  1.
         13    1    3    3    0    0  0.29316411880E+03  0.16022010297E+03 -0.33884017416E+02  0.33580322896E+03  0.00000000000E+00 0. -1.
          2    1    1    2  501    0  0.43653808413E+02  0.34060937329E+02  0.27982321362E+02  0.62038800355E+02  0.00000000000E+00 0. -1.
<scales pt_clust_5="13000.00000" pt_clust_6="13000.00000" pt_clust_7="13000.00000" pt_clust_8="13000.00000" pt_clust_9="55.36972"></scales>
<clustering>
<clus scale="   55.370">  2  9  1 -1</clus>
<clus scale="   78.510">  5  6 -1 -1</clus>
<clus scale="   90.622">  7  8 -1 -1</clus>
<clus scale="  501.100">  2  5  1 -1</clus>
<clus scale="   55.370">  2  5  1 -1</clus>
</clustering>
</event>
<event>
 9    1  0.4067873E-005  0.1435158E+03  0.7546771E-02  0.1211151E+00
          3   -1    0    0  502    0 -0.00000000000E+00  0.00000000000E+00  0.12272697234E+04  0.12272697234E+04  0.00000000000E+00 0. -1.
         21   -1    0    0  501  502  0.00000000000E+00 -0.00000000000E+00 -0.20072881904E+02  0.20072881904E+02  0.00000000000E+00 0.  1.
         23    2    1    2    0    0 -0.10101795234E+03  0.53299615887E+02  0.76005743875E+03  0.77407772740E+03  0.91997511433E+02 0.  0.
        -24    2    1    2    0    0  0.10028809267E+03 -0.30338161926E+02  0.37007386569E+03  0.39284810065E+03  0.79980363292E+02 0.  0.
         13    1    4    4    0    0  0.66417170624E+02  0.40250047355E+01  0.30301595139E+03  0.31023556859E+03  0.00000000000E+00 0. -1.
        -14    1    4    4    0    0  0.33870922047E+02 -0.34363166662E+02  0.67057914298E+02  0.82612532060E+02  0.00000000000E+00 0.  1.
        -13    1    3    3    0    0 -0.54080961498E+02  0.76881678719E+02  0.47152606862E+03  0.48080388549E+03  0.00000000000E+00 0. -1.
         13    1    3    3    0    0 -0.46936990847E+02 -0.23582062832E+02  0.28853137013E+03  0.29327384191E+03  0.00000000000E+00 0.  1.
          4    1    1    2  501    0  0.72985967405E+00 -0.22961453961E+02  0.77065537082E+02  0.80416777285E+02  0.00000000000E+00 0. -1.
<scales pt_clust_5="13000.00000" pt_clust_6="13000.00000" pt_clust_7="13000.00000" pt_clust_8="13000.00000" pt_clust_9="22.97305"></scales>
<clustering>
<clus scale="   22.973">  2  9  1 -1</clus>
<clus scale="   79.980">  5  6 -1 -1</clus>
<clus scale="   91.998">  7  8 -1 -1</clus>
<clus scale="  136.125">  2  5  1 -1</clus>
<clus scale="   22.973">  2  5  1 -1</clus>
</clustering>
</event>
<event>
 9    1  0.4067873E-005  0.1105894E+03  0.7546771E-02  0.1264271E+00
         21   -1    0    0  501  502  0.00000000000E+00  0.00000000000E+00  0.31626541929E+02  0.31626541929E+02  0.00000000000E+00 0. -1.
          1   -1    0    0  502    0 -0.00000000000E+00 -0.00000000000E+00 -0.50877764356E+03  0.50877764356E+03  0.00000000000E+00 0. -1.
         23    2    1    2    0    0 -0.31871847165E+02 -0.67780200527E+02 -0.31083586525E+03  0.33277281459E+03  0.92243377961E+02 0.  0.
        -24    2    1    2    0    0  0.23214561149E+02  0.36644474443E+02 -0.13311533566E+03  0.16129978937E+03  0.80101161693E+02 0.  0.
         13    1    4    4    0    0 -0.69325430253E+01 -0.21214765040E+02 -0.56027876209E+02  0.60309612178E+02  0.00000000000E+00 0. -1.
        -14    1    4    4    0    0  0.30147104174E+02  0.57859239483E+02 -0.77087459455E+02  0.10099017719E+03  0.00000000000E+00 0.  1.
        -11    1    3    3    0    0 -0.63145997125E+02 -0.40687898792E+02 -0.16727558105E+03  0.18336859622E+03  0.00000000000E+00 0.  1.
         11    1    3    3    0    0  0.31274149960E+02 -0.27092301735E+02 -0.14356028420E+03  0.14940421837E+03  0.00000000000E+00 0. -1.
          2    1    1    2  501    0  0.86572860155E+01  0.31135726084E+02 -0.33199900721E+02  0.46331581538E+02  0.00000000000E+00 0. -1.
<scales pt_clust_5="13000.00000" pt_clust_6="13000.00000" pt_clust_7="13000.00000" pt_clust_8="13000.00000" pt_clust_9="32.31690"></scales>
<clustering>
<clus scale="   32.317">  1  9  2 -1</clus>
<clus scale="   80.101">  5  6 -1 -1</clus>
<clus scale="   92.243">  7  8 -1 -1</clus>
<clus scale="  100.684">  1  5  2 -1</clus>
<clus scale="   32.317">  1  5  2 -1</clus>
</clustering>
</event>
<event>
 9    1  0.4067873E-005  0.9550543E+02  0.7546771E-02  0.1295475E+00
         -2   -1    0    0    0  501 -0.00000000000E+00  0.00000000000E+00  0.24418243275E+03  0.24418243275E+03  0.00000000000E+00 0.  1.
         21   -1    0    0  501  502  0.00000000000E+00 -0.00000000000E+00 -0.19993038032E+03  0.19993038032E+03  0.00000000000E+00 0.  1.
        -24    2    1    2    0    0  0.71021536136E+01 -0.31322373977E+02  0.17954734806E+03  0.19996902054E+03  0.81968452966E+02 0.  0.
         23    2    1    2    0    0 -0.51293205069E+02 -0.26335485305E+02 -0.23412343097E+02  0.11074561849E+03  0.91607333402E+02 0.  0.
         13    1    3    3    0    0 -0.30669460535E+02 -0.35478427108E+02  0.12485075142E+03  0.13336807988E+03  0.00000000000E+00 0. -1.
        -14    1    3    3    0    0  0.37771614148E+02  0.41560531312E+01  0.54696596641E+02  0.66600940662E+02  0.00000000000E+00 0.  1.
        -13    1    4    4    0    0 -0.47329599568E+02 -0.58806703202E+02 -0.17766043293E+02  0.77549672024E+02  0.00000000000E+00 0.  1.
         13    1    4    4    0    0 -0.39636055004E+01  0.32471217897E+02 -0.56462998040E+01  0.33195946466E+02  0.00000000000E+00 0. -1.
         -1    1    1    2    0  502  0.44191051455E+02  0.57657859282E+02 -0.11188295254E+03  0.13339817403E+03  0.00000000000E+00 0.  1.
<scales pt_clust_5="13000.00000" pt_clust_6="13000.00000" pt_clust_7="13000.00000" pt_clust_8="13000.00000" pt_clust_9="72.64487"></scales>
<clustering>
<clus scale="   72.645">  2  9  1 -1</clus>
<clus scale="   81.968">  5  6 -1 -1</clus>
<clus scale="   86.303">  1  5  2 -1</clus>
<clus scale="   91.607">  7  8 -1 -1</clus>
<clus scale="   72.645">  2  5  1 -1</clus>
</clustering>
</event>
<event>
 9    1  0.4067873E-005  0.1186102E+03  0.7546771E-02  0.1248603E+00
          1   -1    0    0  502    0 -0.00000000000E+00  0.00000000000E+00  0.10333495141E+04  0.10333495141E+04  0.00000000000E+00 0. -1.
         21   -1    0    0  501  502  0.00000000000E+00 -0.00000000000E+00 -0.70248357058E+02  0.70248357058E+02  0.00000000000E+00 0.  1.
        -24    2    1    2    0    0  0.10217836773E+03 -0.71848790104E+01  0.65256769978E+03  0.66542761517E+03  0.80357121157E+02 0.  0.
         23    2    1    2    0    0 -0.47898934467E+02 -0.12647522347E+02  0.35218635941E+03  0.36693441335E+03  0.90284905728E+02 0.  0.
         11    1    3    3    0    0  0.10554817402E+03  0.13190494301E+02  0.59079127417E+03  0.60029054283E+03  0.00000000000E+00 0. -1.
        -12    1    3    3    0    0 -0.33698062874E+01 -0.20375373312E+02  0.61776425609E+02  0.65137072340E+02  0.00000000000E+00 0.  1.
        -11    1    4    4    0    0 -0.28997531392E+02 -0.47814886047E+02  0.13524836375E+03  0.14635313475E+03  0.00000000000E+00 0.  1.
         11    1    4    4    0    0 -0.18901403075E+02  0.35167363700E+02  0.21693799565E+03  0.22058127859E+03  0.00000000000E+00 0. -1.
          2    1    1    2  501    0 -0.54279433267E+02  0.19832401357E+02 -0.41652902143E+02  0.71235842638E+02  0.00000000000E+00 0. -1.
<scales pt_clust_5="13000.00000" pt_clust_6="13000.00000" pt_clust_7="13000.00000" pt_clust_8="13000.00000" pt_clust_9="57.78911"></scales>
<clustering>
<clus scale="   57.789">  2  9  1 -1</clus>
<clus scale="   80.357">  5  6 -1 -1</clus>
<clus scale="   90.285">  7  8 -1 -1</clus>
<clus scale="  111.240">  1  5  2 -1</clus>
<clus scale="   57.789">  2  5  1 -1</clus>
</clustering>
</event>
<event>
 9    1  0.4067873E-005  0.2597767E+03  0.7546771E-02  0.1108422E+00
          1   -1    0    0  502    0 -0.00000000000E+00  0.00000000000E+00  0.13578679316E+04  0.13578679316E+04  0.00000000000E+00 0. -1.
         21   -1    0    0  501  502  0.00000000000E+00 -0.00000000000E+00 -0.10521486299E+03  0.10521486299E+03  0.00000000000E+00 0.  1.
        -24    2    1    2    0    0  0.11913258384E+03  0.20041248065E+03  0.65514645413E+03  0.70048048771E+03  0.84251423554E+02 0.  0.
         23    2    1    2    0    0 -0.26070500590E+03 -0.11051964811E+03  0.43176005501E+03  0.52681555151E+03  0.10457622811E+03 0.  0.
         11    1    3    3    0    0  0.80741984931E+02  0.56973992454E+02  0.28589253985E+03  0.30248941847E+03  0.00000000000E+00 0. -1.
        -12    1    3    3    0    0  0.38390598906E+02  0.14343848820E+03  0.36925391428E+03  0.39799106923E+03  0.00000000000E+00 0.  1.
        -13    1    4    4    0    0 -0.71827308029E+02  0.14123202324E+02  0.78931159593E+02  0.10765107978E+03  0.00000000000E+00 0.  1.
         13    1    4    4    0    0 -0.18887769787E+03 -0.12464285044E+03  0.35282889542E+03  0.41916447173E+03  0.00000000000E+00 0. -1.
          2    1    1    2  501    0  0.14157242207E+03 -0.89892832537E+02  0.16574655947E+03  0.23578675537E+03  0.00000000000E+00 0. -1.
<scales pt_clust_5="13000.00000" pt_clust_6="13000.00000" pt_clust_7="13000.00000" pt_clust_8="13000.00000" pt_clust_9="167.70054"></scales>
<clustering>
<clus scale="   84.251">  5  6 -1 -1</clus>
<clus scale="  104.576">  7  8 -1 -1</clus>
<clus scale="  167.701">  2  9  1 -1</clus>
<clus scale="  252.282">  1  5  2 -1</clus>
<clus scale="  167.701">  2  5  1 -1</clus>
</clustering>
</event>
<event>
 9    1  0.4067873E-005  0.1064103E+03  0.7546771E-02  0.1273715E+00
         21   -1    0    0  501  502  0.00000000000E+00  0.00000000000E+00  0.99212999033E+02  0.99212999033E+02  0.00000000000E+00 0.  1.
         -2   -1    0    0    0  501 -0.00000000000E+00 -0.00000000000E+00 -0.36710566521E+03  0.36710566521E+03  0.00000000000E+00 0.  1.
         23    2    1    2    0    0  0.47251938734E+02 -0.12815160234E+02 -0.23810049169E+03  0.26009146565E+03  0.92513525051E+02 0.  0.
        -24    2    1    2    0    0 -0.66173221792E+02  0.54096862396E+02  0.40416066884E+02  0.12261266013E+03  0.78070738163E+02 0.  0.
         13    1    4    4    0    0 -0.60108839317E+02  0.80836212412E+01 -0.63235284437E+00  0.60653255202E+02  0.00000000000E+00 0. -1.
        -14    1    4    4    0    0 -0.60643824745E+01  0.46013241154E+02  0.41048419728E+02  0.61959404924E+02  0.00000000000E+00 0.  1.
        -13    1    3    3    0    0  0.69009106811E+01 -0.41908897317E+02 -0.17312842767E+03  0.17826225262E+03  0.00000000000E+00 0.  1.
         13    1    3    3    0    0  0.40351028053E+02  0.29093737082E+02 -0.64972064016E+02  0.81829213029E+02  0.00000000000E+00 0. -1.
         -1    1    1    2    0  502  0.18921283058E+02 -0.41281702161E+02 -0.70208241371E+02  0.83614538463E+02  0.00000000000E+00 0.  1.
<scales pt_clust_5="13000.00000" pt_clust_6="13000.00000" pt_clust_7="13000.00000" pt_clust_8="13000.00000" pt_clust_9="45.41141"></scales>
<clustering>
<clus scale="   45.411">  1  9  2 -1</clus>
<clus scale="   78.071">  5  6 -1 -1</clus>
<clus scale="   92.514">  7  8 -1 -1</clus>
<clus scale="   94.125">  1  5  2 -1</clus>
<clus scale="   45.411">  1  5  2 -1</clus>
</clustering>
</event>
<event>
 9    1  0.4067873E-005  0.9747720E+02  0.7546771E-02  0.1294451E+00
         21   -1    0    0  501  502  0.00000000000E+00  0.00000000000E+00  0.32942564966E+03  0.32942564966E+03  0.00000000000E+00 0. -1.
         -2   -1    0    0    0  501 -0.00000000000E+00 -0.00000000000E+00 -0.46008192099E+02  0.46008192099E+02  0.00000000000E+00 0.  1.
        -24    2    1    2    0    0  0.11794476171E+02  0.20280467877E+02  0.12071714146E+03  0.14457174616E+03  0.76012857467E+02 0.  0.
         23    2    1    2    0    0 -0.53300871475E+02 -0.27935403860E+01  0.15047489815E+03  0.18419268025E+03  0.91844769681E+02 0.  0.
         11    1    3    3    0    0  0.38777075278E+02  0.31851960190E+02  0.77266314270E+02  0.92131928537E+02  0.00000000000E+00 0. -1.
        -12    1    3    3    0    0 -0.26982599107E+02 -0.11571492313E+02  0.43450827193E+02  0.52439817626E+02  0.00000000000E+00 0.  1.
        -11    1    4    4    0    0  0.87146574108E+01  0.33099602671E+02  0.55768109561E+02  0.65434020164E+02  0.00000000000E+00 0.  1.
         11    1    4    4    0    0 -0.62015528886E+02 -0.35893143057E+02  0.94706788587E+02  0.11875866009E+03  0.00000000000E+00 0. -1.
         -1    1    1    2    0  502  0.41506395304E+02 -0.17486927491E+02  0.12225417946E+02  0.46669415339E+02  0.00000000000E+00 0.  1.
<scales pt_clust_5="13000.00000" pt_clust_6="13000.00000" pt_clust_7="13000.00000" pt_clust_8="13000.00000" pt_clust_9="45.03971"></scales>
<clustering>
<clus scale="   45.040">  1  9  2 -1</clus>
<clus scale="   76.013">  5  6 -1 -1</clus>
<clus scale="   82.730">  2  5  1 -1</clus>
<clus scale="   91.845">  7  8 -1 -1</clus>
<clus scale="   45.040">  1  5  2 -1</clus>
</clustering>
</event>
<event>
 9    1  0.4067873E-005  0.1395090E+03  0.7546771E-02  0.1215447E+00
          1   -1    0    0  502    0 -0.00000000000E+00  0.00000000000E+00  0.23596276098E+03  0.23596276098E+03  0.00000000000E+00 0. -1.
         21   -1    0    0  501  502  0.00000000000E+00 -0.00000000000E+00 -0.22626066864E+03  0.22626066864E+03  0.00000000000E+00 0. -1.
        -24    2    1    2    0    0  0.82292851350E+02  0.61375332125E+02  0.48652168284E+02  0.14086218266E+03  0.83283109029E+02 0.  0.
         23    2    1    2    0    0  0.73038671261E+01 -0.14899110487E+03  0.32327553239E+02  0.17719260953E+03  0.90002524224E+02 0.  0.
         11    1    3    3    0    0  0.20858396807E+02  0.48899206067E+01  0.53129967097E+02  0.57286799916E+02  0.00000000000E+00 0. -1.
        -12    1    3    3    0    0  0.61434454543E+02  0.56485411518E+02 -0.44777988132E+01  0.83575382749E+02  0.00000000000E+00 0.  1.
        -11    1    4    4    0    0  0.27595096364E+02 -0.12373459930E+03 -0.61113678790E+01  0.12692158692E+03  0.00000000000E+00 0. -1.
         11    1    4    4    0    0 -0.20291229238E+02 -0.25256505566E+02  0.38438921118E+02  0.50271022608E+02  0.00000000000E+00 0.  1.
          2    1    1    2  501    0 -0.89596718476E+02  0.87615772746E+02 -0.71277629191E+02  0.14416863743E+03  0.00000000000E+00 0. -1.
<scales pt_clust_5="13000.00000" pt_clust_6="13000.00000" pt_clust_7="13000.00000" pt_clust_8="13000.00000" pt_clust_9="125.31598"></scales>
<clustering>
<clus scale="   83.283">  5  6 -1 -1</clus>
<clus scale="   90.003">  7  8 -1 -1</clus>
<clus scale="  125.316">  2  9  1 -1</clus>
<clus scale="  135.272">  1  5  2 -1</clus>
<clus scale="  125.316">  2  5  1 -1</clus>
</clustering>
</event>
<event>
 9    1  0.4067873E-005  0.9112318E+02  0.7546771E-02  0.1303122E+00
          1   -1    0    0  502    0 -0.00000000000E+00  0.00000000000E+00  0.65661288006E+03  0.65661288006E+03  0.00000000000E+00 0. -1.
         21   -1    0    0  501  502  0.00000000000E+00 -0.00000000000E+00 -0.28613206802E+02  0.28613206802E+02  0.00000000000E+00 0. -1.
        -24    2    1    2    0    0  0.49032232830E+01 -0.19166921724E+01  0.15504670510E+03  0.17446807814E+03  0.79824270855E+02 0.  0.
         23    2    1    2    0    0 -0.73375365970E+02 -0.12465022841E+02  0.20791047603E+03  0.23663615501E+03  0.85032833018E+02 0.  0.
         13    1    3    3    0    0  0.32481814084E+02  0.18640195414E+02  0.11851402930E+03  0.12429038689E+03  0.00000000000E+00 0. -1.
        -14    1    3    3    0    0 -0.27578590801E+02 -0.20556887586E+02  0.36532675800E+02  0.50177691247E+02  0.00000000000E+00 0.  1.
        -11    1    4    4    0    0 -0.63405910200E+02  0.23627931427E+02  0.17167788980E+03  0.18453153237E+03  0.00000000000E+00 0.  1.
         11    1    4    4    0    0 -0.99694557697E+01 -0.36092954268E+02  0.36232586230E+02  0.52104622645E+02  0.00000000000E+00 0. -1.
          2    1    1    2  501    0  0.68472142687E+02  0.14381715013E+02  0.26504249212E+03  0.27412185371E+03  0.00000000000E+00 0. -1.
<scales pt_clust_5="13000.00000" pt_clust_6="13000.00000" pt_clust_7="13000.00000" pt_clust_8="13000.00000" pt_clust_9="69.96623"></scales>
<clustering>
<clus scale="   69.966">  2  9  1 -1</clus>
<clus scale="   79.824">  5  6 -1 -1</clus>
<clus scale="   85.033">  7  8 -1 -1</clus>
<clus scale="   86.283">  1  5  2 -1</clus>
<clus scale="   69.966">  2  5  1 -1</clus>
</clustering>
</event>
<event>
 9    1  0.4067873E-005  0.9183119E+02  0.7546771E-02  0.1311472E+00
          3   -1    0    0  502    0 -0.00000000000E+00  0.00000000000E+00  0.68651140746E+02  0.68651140746E+02  0.00000000000E+00 0. -1.
         21   -1    0    0  501  502  0.00000000000E+00 -0.00000000000E+00 -0.30711795136E+03  0.30711795136E+03  0.00000000000E+00 0. -1.
         23    2    1    2    0    0 -0.43615927742E+01  0.18596652879E+02 -0.53785409247E+02  0.10758888524E+03  0.91201090949E+02 0.  0.
        -24    2    1    2    0    0 -0.36547177554E+02  0.19009232139E+02 -0.19489777712E+03  0.21168149527E+03  0.71602128601E+02 0.  0.
         13    1    4    4    0    0 -0.56219516744E+02  0.16406569774E+01 -0.13812444914E+03  0.14913647866E+03  0.00000000000E+00 0. -1.
        -14    1    4    4    0    0  0.19672339190E+02  0.17368575162E+02 -0.56773327987E+02  0.62545016613E+02  0.00000000000E+00 0.  1.
        -11    1    3    3    0    0 -0.15887980603E+02 -0.18568424331E+02  0.14918066055E+02  0.28631503708E+02  0.00000000000E+00 0.  1.
         11    1    3    3    0    0  0.11526387829E+02  0.37165077209E+02 -0.68703475302E+02  0.78957381536E+02  0.00000000000E+00 0. -1.
          4    1    1    2  501    0  0.40908770328E+02 -0.37605885018E+02  0.10216375755E+02  0.56498711590E+02  0.00000000000E+00 0. -1.
<scales pt_clust_5="13000.00000" pt_clust_6="13000.00000" pt_clust_7="13000.00000" pt_clust_8="13000.00000" pt_clust_9="55.56738"></scales>
<clustering>
<clus scale="   55.567">  2  9  1 -1</clus>
<clus scale="   71.602">  5  6 -1 -1</clus>
<clus scale="   72.403">  2  5  1 -1</clus>
<clus scale="   91.201">  7  8 -1 -1</clus>
<clus scale="   55.567">  2  5  1 -1</clus>
</clustering>
</event>
<event>
 9    1  0.4067873E-005  0.1368323E+03  0.7546771E-02  0.1224059E+00
          1   -1    0    0  502    0 -0.00000000000E+00  0.00000000000E+00  0.12864529173E+03  0.12864529173E+03  0.00000000000E+00 0. -1.
         21   -1    0    0  501  502  0.00000000000E+00 -0.00000000000E+00 -0.33840392278E+03  0.33840392278E+03  0.00000000000E+00 0. -1.
         23    2    1    2    0    0  0.71689132643E+02 -0.78052349156E+02 -0.53745663667E+01  0.14922764799E+03  0.10492141828E+03 0.  0.
        -24    2    1    2    0    0  0.35881496909E+02  0.91410893357E+02 -0.70809760463E+02  0.14579835357E+03  0.81238565233E+02 0.  0.
         13    1    4    4    0    0  0.60054012600E+02  0.77010491902E+02 -0.44656762025E+02  0.10738401504E+03  0.00000000000E+00 0. -1.
        -14    1    4    4    0    0 -0.24172515690E+02  0.14400401455E+02 -0.26152998437E+02  0.38414338522E+02  0.00000000000E+00 0.  1.
        -11    1    3    3    0    0  0.66039633105E+02 -0.31016741489E+02  0.40360099451E+02  0.83379907777E+02  0.00000000000E+00 0. -1.
         11    1    3    3    0    0  0.56494995384E+01 -0.47035607667E+02 -0.45734665818E+02  0.65847740213E+02  0.00000000000E+00 0.  1.
          2    1    1    2  501    0 -0.10757062955E+03 -0.13358544201E+02 -0.13357430422E+03  0.17202321295E+03  0.00000000000E+00 0. -1.
<scales pt_clust_5="13000.00000" pt_clust_6="13000.00000" pt_clust_7="13000.00000" pt_clust_8="13000.00000" pt_clust_9="108.39691"></scales>
<clustering>
<clus scale="   81.239">  5  6 -1 -1</clus>
<clus scale="  104.921">  7  8 -1 -1</clus>
<clus scale="  108.397">  2  9  1 -1</clus>
<clus scale="  119.642">  2  5  1 -1</clus>
<clus scale="  108.397">  2  5  1 -1</clus>
</clustering>
</event>
<event>
 9    1  0.4067873E-005  0.1083792E+03  0.7546771E-02  0.1268701E+00
         21   -1    0    0  501  502  0.00000000000E+00  0.00000000000E+00  0.30678908334E+02  0.30678908334E+02  0.00000000000E+00 0.  1.
          3   -1    0    0  502    0 -0.00000000000E+00 -0.00000000000E+00 -0.47650740901E+03  0.47650740901E+03  0.00000000000E+00 0. -1.
         23    2    1    2    0    0  0.36888146289E+02  0.40318084746E+02 -0.21272613503E+03  0.23711088577E+03  0.89346965996E+02 0.  0.
        -24    2    1    2    0    0 -0.30851476841E+02 -0.61288715345E+02 -0.22390686158E+03  0.24639493283E+03  0.76603263704E+02 0.  0.
         11    1    4    4    0    0 -0.45621210044E+02 -0.52284118835E+02 -0.21690418576E+03  0.22773306674E+03  0.00000000000E+00 0. -1.
        -12    1    4    4    0    0  0.14769733203E+02 -0.90045965106E+01 -0.70026758195E+01  0.18661866087E+02  0.00000000000E+00 0.  1.
        -13    1    3    3    0    0 -0.26495426417E+02 -0.37444100483E+01 -0.42862125303E+02  0.50529100656E+02  0.00000000000E+00 0.  1.
         13    1    3    3    0    0  0.63383572706E+02  0.44062494794E+02 -0.16986400973E+03  0.18658178512E+03  0.00000000000E+00 0. -1.
          4    1    1    2  501    0 -0.60366694477E+01  0.20970630599E+02 -0.91955040720E+01  0.23680498746E+02  0.00000000000E+00 0. -1.
<scales pt_clust_5="13000.00000" pt_clust_6="13000.00000" pt_clust_7="13000.00000" pt_clust_8="13000.00000" pt_clust_9="21.82221"></scales>
<clustering>
<clus scale="   21.822">  1  9  2 -1</clus>
<clus scale="   76.603">  5  6 -1 -1</clus>
<clus scale="   89.347">  7  8 -1 -1</clus>
<clus scale="   98.139">  1  5  2 -1</clus>
<clus scale="   21.822">  1  5  2 -1</clus>
</clustering>
</event>
<event>
 9    1  0.4067873E-005  0.1047941E+03  0.7546771E-02  0.1281965E+00
          1   -1    0    0  502    0 -0.00000000000E+00  0.00000000000E+00  0.22147984437E+03  0.22147984437E+03  0.00000000000E+00 0. -1.
         21   -1    0    0  501  502  0.00000000000E+00 -0.00000000000E+00 -0.13161355266E+03  0.13161355266E+03  0.00000000000E+00 0. -1.
        -24    2    1    2    0    0 -0.30440261080E+02 -0.91034144817E+01  0.15158591873E+03  0.17440678913E+03  0.80187004473E+02 0.  0.
         23    2    1    2    0    0 -0.27666654528E+02  0.12509670153E+02 -0.56716096056E+02  0.12026528010E+03  0.10161243244E+03 0.  0.
         11    1    3    3    0    0 -0.33458494837E+02  0.29058118930E+02  0.10592974575E+03  0.11482576448E+03  0.00000000000E+00 0. -1.
        -12    1    3    3    0    0  0.30182337573E+01 -0.38161533412E+02  0.45656172981E+02  0.59581024653E+02  0.00000000000E+00 0.  1.
        -11    1    4    4    0    0  0.36109204274E+02 -0.11156974304E+01 -0.38827013497E+01  0.36334484775E+02  0.00000000000E+00 0.  1.
         11    1    4    4    0    0 -0.63775858802E+02  0.13625367584E+02 -0.52833394707E+02  0.83930795326E+02  0.00000000000E+00 0. -1.
          2    1    1    2  501    0  0.58106915608E+02 -0.34062556716E+01 -0.50035309742E+01  0.58421327795E+02  0.00000000000E+00 0. -1.
<scales pt_clust_5="13000.00000" pt_clust_6="13000.00000" pt_clust_7="13000.00000" pt_clust_8="13000.00000" pt_clust_9="58.20667"></scales>
<clustering>
<clus scale="   58.207">  2  9  1 -1</clus>
<clus scale="   80.187">  5  6 -1 -1</clus>
<clus scale="   84.182">  1  5  2 -1</clus>
<clus scale="  101.612">  7  8 -1 -1</clus>
<clus scale="   58.207">  2  5  1 -1</clus>
</clustering>
</event>
<event>
 9    1  0.4067873E-005  0.1568042E+03  0.7546771E-02  0.1194422E+00
         -4   -1    0    0    0  501 -0.00000000000E+00  0.00000000000E+00  0.14231038184E+04  0.14231038184E+04  0.00000000000E+00 0.  1.
         21   -1    0    0  501  502  0.00000000000E+00 -0.00000000000E+00 -0.49873385066E+02  0.49873385066E+02  0.00000000000E+00 0. -1.
        -24    2    1    2    0    0 -0.10676480728E+03 -0.42261767349E+02  0.77284716160E+03  0.78546694664E+03  0.80503465841E+02 0.  0.
         23    2    1    2    0    0  0.18124348068E+03  0.77091308791E+02  0.26899742343E+03  0.34607688089E+03  0.92829545360E+02 0.  0.
         11    1    3    3    0    0 -0.26087933281E+02  0.21531723897E+02  0.12453668489E+03  0.12904875543E+03  0.00000000000E+00 0. -1.
        -12    1    3    3    0    0 -0.80676873995E+02 -0.63793491246E+02  0.64831047672E+03  0.65641819121E+03  0.00000000000E+00 0.  1.
        -13    1    4    4    0    0  0.54911404870E+02  0.52050791512E+02  0.16140535712E+03  0.17825890325E+03  0.00000000000E+00 0.  1.
         13    1    4    4    0    0  0.12633207581E+03  0.25040517279E+02  0.10759206631E+03  0.16781797764E+03  0.00000000000E+00 0. -1.
         -3    1    1    2    0  502 -0.74478673409E+02 -0.34829541441E+02  0.33138584827E+03  0.34143337591E+03  0.00000000000E+00 0.  1.
<scales pt_clust_5="13000.00000" pt_clust_6="13000.00000" pt_clust_7="13000.00000" pt_clust_8="13000.00000" pt_clust_9="82.22029"></scales>
<clustering>
<clus scale="   80.503">  5  6 -1 -1</clus>
<clus scale="   82.220">  2  9  1 -1</clus>
<clus scale="   92.830">  7  8 -1 -1</clus>
<clus scale="  149.837">  1  5  2 -1</clus>
<clus scale="   82.220">  2  5  1 -1</clus>
</clustering>
</event>
<event>
 9    1  0.4067873E-005  0.2288589E+03  0.7546771E-02  0.1128315E+00
         -4   -1    0    0    0  501 -0.00000000000E+00  0.00000000000E+00  0.91792433890E+02  0.91792433890E+02  0.00000000000E+00 0.  1.
         21   -1    0    0  501  502  0.00000000000E+00 -0.00000000000E+00 -0.68554164885E+03  0.68554164885E+03  0.00000000000E+00 0.  1.
         23    2    1    2    0    0 -0.14930965050E+03  0.12082217476E+03 -0.24754754755E+03  0.32649321520E+03  0.91796849793E+02 0.  0.
        -24    2    1    2    0    0  0.17871392031E+03 -0.14766410257E+03 -0.32089596084E+03  0.40366588521E+03  0.78921332349E+02 0.  0.
         13    1    4    4    0    0  0.10675113361E+03 -0.10682471282E+03 -0.26091241145E+03  0.30146742817E+03  0.00000000000E+00 0. -1.
        -14    1    4    4    0    0  0.71962786703E+02 -0.40839389749E+02 -0.59983549386E+02  0.10219845704E+03  0.00000000000E+00 0.  1.
        -13    1    3    3    0    0 -0.13755442998E+03  0.85146880021E+02 -0.23793166097E+03  0.28771980758E+03  0.00000000000E+00 0. -1.
         13    1    3    3    0    0 -0.11755220513E+02  0.35675294736E+02 -0.96158865839E+01  0.38773407621E+02  0.00000000000E+00 0.  1.
         -3    1    1    2    0  502 -0.29404269814E+02  0.26841927817E+02 -0.25305706571E+02  0.47174982324E+02  0.00000000000E+00 0.  1.
<scales pt_clust_5="13000.00000" pt_clust_6="13000.00000" pt_clust_7="13000.00000" pt_clust_8="13000.00000" pt_clust_9="39.81334"></scales>
<clustering>
<clus scale="   39.813">  2  9  1 -1</clus>
<clus scale="   78.921">  5  6 -1 -1</clus>
<clus scale="   91.797">  7  8 -1 -1</clus>
<clus scale="  224.005">  2  5  1 -1</clus>
<clus scale="   39.813">  2  5  1 -1</clus>
</clustering>
</event>
<event>
 9    1  0.4067873E-005  0.1064267E+03  0.7546771E-02  0.1272708E+00
         21   -1    0    0  501  502  0.00000000000E+00  0.00000000000E+00  0.29566080341E+03  0.29566080341E+03  0.00000000000E+00 0. -1.
          3   -1    0    0  502    0 -0.00000000000E+00 -0.00000000000E+00 -0.20267527361E+03  0.20267527361E+03  0.00000000000E+00 0. -1.
        -24    2    1    2    0    0 -0.21565215091E+02  0.53257878310E+02 -0.17318071772E+03  0.19873331912E+03  0.78752212882E+02 0.  0.
         23    2    1    2    0    0 -0.61994121834E+01 -0.19274858423E+02  0.17379809420E+03  0.19734037032E+03  0.91255089346E+02 0.  0.
         13    1    3    3    0    0 -0.58043132023E+01  0.58761720446E+02 -0.17216364581E+03  0.18200810636E+03  0.00000000000E+00 0. -1.
        -14    1    3    3    0    0 -0.15760901889E+02 -0.55038421360E+01 -0.10170719101E+01  0.16725212761E+02  0.00000000000E+00 0.  1.
        -11    1    4    4    0    0 -0.10855835303E+02 -0.54999944343E+02  0.88712468395E+02  0.10494162704E+03  0.00000000000E+00 0.  1.
         11    1    4    4    0    0  0.46564231192E+01  0.35725085920E+02  0.85085625801E+02  0.92398743272E+02  0.00000000000E+00 0. -1.
          4    1    1    2  501    0  0.27764627275E+02 -0.33983019887E+02  0.92368153314E+02  0.10226238759E+03  0.00000000000E+00 0. -1.
<scales pt_clust_5="13000.00000" pt_clust_6="13000.00000" pt_clust_7="13000.00000" pt_clust_8="13000.00000" pt_clust_9="43.88303"></scales>
<clustering>
<clus scale="   43.883">  1  9  2 -1</clus>
<clus scale="   78.752">  5  6 -1 -1</clus>
<clus scale="   91.255">  7  8 -1 -1</clus>
<clus scale="   95.922">  2  5  1 -1</clus>
<clus scale="   43.883">  1  5  2 -1</clus>
</clustering>
</event>
<event>
 9    1  0.4067873E-005  0.1420233E+03  0.7546771E-02  0.1212912E+00
          1   -1    0    0  502    0 -0.00000000000E+00  0.00000000000E+00  0.44084891142E+03  0.44084891142E+03  0.00000000000E+00 0. -1.
         21   -1    0    0  501  502  0.00000000000E+00 -0.00000000000E+00 -0.84069005669E+02  0.84069005669E+02  0.00000000000E+00 0. -1.
        -24    2    1    2    0    0 -0.13112774471E+03  0.38499712139E+02  0.21741510679E+03  0.26953452183E+03  0.81870730601E+02 0.  0.
         23    2    1    2    0    0  0.80578860673E+02  0.29415940510E+02  0.10439325471E+03  0.16378244298E+03  0.92566120451E+02 0.  0.
         11    1    3    3    0    0 -0.10959694678E+03  0.16368744414E+02  0.10392948717E+03  0.15192354933E+03  0.00000000000E+00 0. -1.
        -12    1    3    3    0    0 -0.21530797929E+02  0.22130967725E+02  0.11348561961E+03  0.11761097249E+03  0.00000000000E+00 0.  1.
        -13    1    4    4    0    0  0.18667490387E+02  0.85676794558E+01  0.95699776571E+02  0.97879147750E+02  0.00000000000E+00 0. -1.
         13    1    4    4    0    0  0.61911370286E+02  0.20848261055E+02  0.86934781381E+01  0.65903295227E+02  0.00000000000E+00 0.  1.
          2    1    1    2  501    0  0.50548884039E+02 -0.67915652650E+02  0.34971544261E+02  0.91600952290E+02  0.00000000000E+00 0. -1.
<scales pt_clust_5="13000.00000" pt_clust_6="13000.00000" pt_clust_7="13000.00000" pt_clust_8="13000.00000" pt_clust_9="84.66242"></scales>
<clustering>
<clus scale="   81.871">  5  6 -1 -1</clus>
<clus scale="   84.662">  2  9  1 -1</clus>
<clus scale="   92.566">  7  8 -1 -1</clus>
<clus scale="  135.296">  1  5  2 -1</clus>
<clus scale="   84.662">  2  5  1 -1</clus>
</clustering>
</event>
<event>
 9    1  0.4067873E-005  0.1126451E+03  0.7546771E-02  0.1261539E+00
          1   -1    0    0  502    0 -0.00000000000E+00  0.00000000000E+00  0.75010962108E+02  0.75010962108E+02  0.00000000000E+00 0. -1.
         21   -1    0    0  501  502  0.00000000000E+00 -0.00000000000E+00 -0.25845631347E+03  0.25845631347E+03  0.00000000000E+00 0. -1.
         23    2    1    2    0    0  0.36603828442E+02  0.40709048148E+02 -0.97543936206E+01  0.10963392421E+03  0.94484825685E+02 0.  0.
        -24    2    1    2    0    0 -0.52493613270E+02 -0.61026626466E+02 -0.15514196542E+03  0.19206301352E+03  0.79619992201E+02 0.  0.
         11    1    4    4    0    0 -0.15686267254E+02 -0.72859317910E+02 -0.10424930921E+03  0.12815013717E+03  0.00000000000E+00 0. -1.
        -12    1    4    4    0    0 -0.36807346017E+02  0.11832691443E+02 -0.50892656205E+02  0.63912876349E+02  0.00000000000E+00 0.  1.
        -13    1    3    3    0    0  0.24840390131E+02 -0.20545816838E+02  0.22598519360E+02  0.39368371171E+02  0.00000000000E+00 0.  1.
         13    1    3    3    0    0  0.11763438312E+02  0.61254864986E+02 -0.32352912981E+02  0.70265553038E+02  0.00000000000E+00 0. -1.
          2    1    1    2  501    0  0.15889784828E+02  0.20317578319E+02 -0.18548992325E+02  0.31770337847E+02  0.00000000000E+00 0. -1.
<scales pt_clust_5="13000.00000" pt_clust_6="13000.00000" pt_clust_7="13000.00000" pt_clust_8="13000.00000" pt_clust_9="25.79320"></scales>
<clustering>
<clus scale="   25.793">  2  9  1 -1</clus>
<clus scale="   79.620">  5  6 -1 -1</clus>
<clus scale="   94.485">  7  8 -1 -1</clus>
<clus scale="  100.503">  2  5  1 -1</clus>
<clus scale="   25.793">  2  5  1 -1</clus>
</clustering>
</event>
<event>
 9    1  0.4067873E-005  0.9889698E+02  0.7546771E-02  0.1288854E+00
         -2   -1    0    0    0  501 -0.00000000000E+00  0.00000000000E+00  0.75654539091E+02  0.75654539091E+02  0.00000000000E+00 0.  1.
         21   -1    0    0  501  502  0.00000000000E+00 -0.00000000000E+00 -0.22714700742E+03  0.22714700742E+03  0.00000000000E+00 0. -1.
        -24    2    1    2    0    0  0.39102913325E+02  0.32122635479E+02 -0.18516157141E+02  0.97134659011E+02  0.80817030169E+02 0.  0.
         23    2    1    2    0    0  0.15980506700E+02 -0.16637138425E+02 -0.10526677144E+03  0.14209171645E+03  0.92610969899E+02 0.  0.
         11    1    3    3    0    0  0.66257451783E+01  0.53680111929E+02 -0.21125663402E+02  0.58066759597E+02  0.00000000000E+00 0. -1.
        -12    1    3    3    0    0  0.32477168147E+02 -0.21557476450E+02  0.26095062614E+01  0.39067899414E+02  0.00000000000E+00 0.  1.
        -11    1    4    4    0    0 -0.11252009644E+02  0.20924168932E+02  0.33392302177E+01  0.23991228084E+02  0.00000000000E+00 0.  1.
         11    1    4    4    0    0  0.27232516344E+02 -0.37561307357E+02 -0.10860600166E+03  0.11810048837E+03  0.00000000000E+00 0. -1.
         -1    1    1    2    0  502 -0.55083420024E+02 -0.15485497054E+02 -0.27709539749E+02  0.63575171048E+02  0.00000000000E+00 0.  1.
<scales pt_clust_5="13000.00000" pt_clust_6="13000.00000" pt_clust_7="13000.00000" pt_clust_8="13000.00000" pt_clust_9="57.21876"></scales>
<clustering>
<clus scale="   57.219">  2  9  1 -1</clus>
<clus scale="   80.817">  5  6 -1 -1</clus>
<clus scale="   87.950">  1  5  2 -1</clus>
<clus scale="   92.611">  7  8 -1 -1</clus>
<clus scale="   57.219">  2  5  1 -1</clus>
</clustering>
</event>
<event>
 9    1  0.4067873E-005  0.9786176E+02  0.7546771E-02  0.1293629E+00
         -4   -1    0    0    0  501 -0.00000000000E+00  0.00000000000E+00  0.14153361268E+03  0.14153361268E+03  0.00000000000E+00 0.  1.
         21   -1    0    0  501  502  0.00000000000E+00 -0.00000000000E+00 -0.14022007616E+03  0.14022007616E+03  0.00000000000E+00 0. -1.
        -24    2    1    2    0    0  0.73038231460E+01 -0.20059248156E+02  0.87652335084E+02  0.12094665149E+03  0.80557069163E+02 0.  0.
         23    2    1    2    0    0 -0.31650620380E+02 -0.19349386460E+01 -0.76297628959E+02  0.12649470901E+03  0.95781404589E+02 0.  0.
         13    1    3    3    0    0  0.21979911242E+02  0.22745572405E+02  0.14193384803E+02  0.34668858279E+02  0.00000000000E+00 0. -1.
        -14    1    3    3    0    0 -0.14676088096E+02 -0.42804820561E+02  0.73458950281E+02  0.86277793212E+02  0.00000000000E+00 0.  1.
        -13    1    4    4    0    0 -0.59517914993E+01 -0.23451727345E+02  0.15523863741E+02  0.28747133474E+02  0.00000000000E+00 0.  1.
         13    1    4    4    0    0 -0.25698828881E+02  0.21516788699E+02 -0.91821492700E+02  0.97747575537E+02  0.00000000000E+00 0. -1.
         -3    1    1    2    0  502  0.24346797234E+02  0.21994186802E+02 -0.10041169609E+02  0.34312328335E+02  0.00000000000E+00 0.  1.
<scales pt_clust_5="13000.00000" pt_clust_6="13000.00000" pt_clust_7="13000.00000" pt_clust_8="13000.00000" pt_clust_9="32.81022"></scales>
<clustering>
<clus scale="   32.810">  2  9  1 -1</clus>
<clus scale="   80.557">  5  6 -1 -1</clus>
<clus scale="   83.020">  1  5  2 -1</clus>
<clus scale="   95.781">  7  8 -1 -1</clus>
<clus scale="   32.810">  2  5  1 -1</clus>
</clustering>
</event>
<event>
 9    1  0.4067873E-005  0.1073911E+03  0.7546771E-02  0.1271936E+00
         21   -1    0    0  501  502  0.00000000000E+00  0.00000000000E+00  0.69348619582E+02  0.69348619582E+02  0.00000000000E+00 0. -1.
          1   -1    0    0  502    0 -0.00000000000E+00 -0.00000000000E+00 -0.37429294655E+03  0.37429294655E+03  0.00000000000E+00 0. -1.
         23    2    1    2    0    0  0.67194523703E+02  0.76188322507E+01 -0.82900551233E+02  0.13944785324E+03  0.89443008440E+02 0.  0.
        -24    2    1    2    0    0 -0.30895047559E+02 -0.58820891786E+02 -0.32431459725E+02  0.10446356181E+03  0.73799965387E+02 0.  0.
         13    1    4    4    0    0  0.24309308707E+02 -0.22444415383E+02 -0.13079884036E+02  0.35577768874E+02  0.00000000000E+00 0. -1.
        -14    1    4    4    0    0 -0.55204356265E+02 -0.36376476403E+02 -0.19351575690E+02  0.68885792932E+02  0.00000000000E+00 0.  1.
        -11    1    3    3    0    0  0.85086091870E+02 -0.11490538069E+02 -0.61076338740E+02  0.10536600329E+03  0.00000000000E+00 0.  1.
         11    1    3    3    0    0 -0.17891568167E+02  0.19109370319E+02 -0.21824212493E+02  0.34081849956E+02  0.00000000000E+00 0. -1.
          2    1    1    2  501    0 -0.36299476144E+02  0.51202059536E+02 -0.18961231601E+03  0.19973015109E+03  0.00000000000E+00 0. -1.
<scales pt_clust_5="13000.00000" pt_clust_6="13000.00000" pt_clust_7="13000.00000" pt_clust_8="13000.00000" pt_clust_9="62.76390"></scales>
<clustering>
<clus scale="   62.764">  1  9  2 -1</clus>
<clus scale="   73.800">  5  6 -1 -1</clus>
<clus scale="   89.443">  7  8 -1 -1</clus>
<clus scale="   94.759">  1  5  2 -1</clus>
<clus scale="   62.764">  1  5  2 -1</clus>
</clustering>
</event>
<event>
 9    1  0.4067873E-005  0.1141087E+03  0.7546771E-02  0.1257114E+00
          1   -1    0    0  502    0 -0.00000000000E+00  0.00000000000E+00  0.13880999135E+04  0.13880999135E+04  0.00000000000E+00 0. -1.
         21   -1    0    0  501  502  0.00000000000E+00 -0.00000000000E+00 -0.10737304709E+02  0.10737304709E+02  0.00000000000E+00 0. -1.
         23    2    1    2    0    0  0.69467869617E+02 -0.19260799830E+02  0.67297124514E+03  0.68290874180E+03  0.90979610474E+02 0.  0.
        -24    2    1    2    0    0 -0.67576633263E+02 -0.37609792492E+01  0.59192724964E+03  0.60111664763E+03  0.79891231468E+02 0.  0.
         13    1    4    4    0    0 -0.66964367860E+02  0.28142436941E+02  0.42617182660E+03  0.43231776405E+03  0.00000000000E+00 0. -1.
        -14    1    4    4    0    0 -0.61226540301E+00 -0.31903416190E+02  0.16575542304E+03  0.16879888358E+03  0.00000000000E+00 0.  1.
        -13    1    3    3    0    0 -0.81456026363E+01 -0.35696427053E+02  0.19781185642E+03  0.20117185759E+03  0.00000000000E+00 0.  1.
         13    1    3    3    0    0  0.77613472254E+02  0.16435627223E+02  0.47515938872E+03  0.48173688421E+03  0.00000000000E+00 0. -1.
          2    1    1    2  501    0 -0.18912363544E+01  0.23021779079E+02  0.11246411404E+03  0.11481182881E+03  0.00000000000E+00 0. -1.
<scales pt_clust_5="13000.00000" pt_clust_6="13000.00000" pt_clust_7="13000.00000" pt_clust_8="13000.00000" pt_clust_9="23.09933"></scales>
<clustering>
<clus scale="   23.099">  2  9  1 -1</clus>
<clus scale="   79.891">  5  6 -1 -1</clus>
<clus scale="   90.980">  7  8 -1 -1</clus>
<clus scale="  105.480">  2  5  1 -1</clus>
<clus scale="   23.099">  2  5  1 -1</clus>
</clustering>
</event>
<event>
 9    1  0.4067873E-005  0.1006252E+03  0.7546771E-02  0.1285533E+00
         -2   -1    0    0    0  501 -0.00000000000E+00  0.00000000000E+00  0.15415782082E+02  0.15415782082E+02  0.00000000000E+00 0.  1.
         21   -1    0    0  501  502  0.00000000000E+00 -0.00000000000E+00 -0.13747694624E+04  0.13747694624E+04  0.00000000000E+00 0.  1.
         23    2    1    2    0    0  0.40258577200E+02  0.16548965228E+01 -0.33596970439E+03  0.35102607053E+03  0.93381840883E+02 0.  0.
        -24    2    1    2    0    0 -0.96432999413E+01  0.66765387182E+02 -0.56612435558E+03  0.57579647494E+03  0.80586502724E+02 0.  0.
         11    1    4    4    0    0 -0.17592477987E+02  0.48701065062E+02 -0.14088771139E+03  0.15010208606E+03  0.00000000000E+00 0. -1.
        -12    1    4    4    0    0  0.79491780460E+01  0.18064322121E+02 -0.42523664418E+03  0.42569438888E+03  0.00000000000E+00 0.  1.
        -11    1    3    3    0    0  0.20086620454E+02  0.44388651472E+02 -0.11221420279E+03  0.12233499912E+03  0.00000000000E+00 0.  1.
         11    1    3    3    0    0  0.20171956746E+02 -0.42733754949E+02 -0.22375550159E+03  0.22869107141E+03  0.00000000000E+00 0. -1.
         -1    1    1    2    0  502 -0.30615277258E+02 -0.68420283705E+02 -0.45725962038E+03  0.46336269903E+03  0.00000000000E+00 0.  1.
<scales pt_clust_5="13000.00000" pt_clust_6="13000.00000" pt_clust_7="13000.00000" pt_clust_8="13000.00000" pt_clust_9="74.95752"></scales>
<clustering>
<clus scale="   74.958">  2  9  1 -1</clus>
<clus scale="   80.587">  5  6 -1 -1</clus>
<clus scale="   88.879">  2  5  1 -1</clus>
<clus scale="   93.382">  7  8 -1 -1</clus>
<clus scale="   74.958">  2  5  1 -1</clus>
</clustering>
</event>
<event>
 9    1  0.4067873E-005  0.9318228E+02  0.7546771E-02  0.1301658E+00
         21   -1    0    0  501  502  0.00000000000E+00  0.00000000000E+00  0.16185541067E+03  0.16185541067E+03  0.00000000000E+00 0.  1.
         -2   -1    0    0    0  501 -0.00000000000E+00 -0.00000000000E+00 -0.50687654126E+03  0.50687654126E+03  0.00000000000E+00 0.  1.
        -24    2    1    2    0    0 -0.15568931476E+02 -0.14658048517E+02 -0.45733770374E+03  0.46482074586E+03  0.80270171945E+02 0.  0.
         23    2    1    2    0    0 -0.16128751860E+02  0.29579943634E+02  0.11992539613E+02  0.97645888189E+02  0.90861371176E+02 0.  0.
         11    1    3    3    0    0 -0.27380104510E+02  0.27787408292E+02 -0.21362629210E+03  0.21715893456E+03  0.00000000000E+00 0. -1.
        -12    1    3    3    0    0  0.11811173034E+02 -0.42445456809E+02 -0.24371141164E+03  0.24766181130E+03  0.00000000000E+00 0.  1.
        -13    1    4    4    0    0 -0.32084611437E+02  0.15249919086E+02 -0.32567444126E+02  0.48193575714E+02  0.00000000000E+00 0.  1.
         13    1    4    4    0    0  0.15955859577E+02  0.14330024549E+02  0.44559983738E+02  0.49452312476E+02  0.00000000000E+00 0. -1.
         -1    1    1    2    0  502  0.31697683336E+02 -0.14921895117E+02  0.10032403353E+03  0.10626531789E+03  0.00000000000E+00 0.  1.
<scales pt_clust_5="13000.00000" pt_clust_6="13000.00000" pt_clust_7="13000.00000" pt_clust_8="13000.00000" pt_clust_9="35.03436"></scales>
<clustering>
<clus scale="   35.034">  1  9  2 -1</clus>
<clus scale="   80.270">  5  6 -1 -1</clus>
<clus scale="   82.888">  2  5  1 -1</clus>
<clus scale="   90.861">  7  8 -1 -1</clus>
<clus scale="   35.034">  1  5  2 -1</clus>
</clustering>
</event>
<event>
 9    1  0.4067873E-005  0.1088570E+03  0.7546771E-02  0.1267118E+00
         -2   -1    0    0    0  501 -0.00000000000E+00  0.00000000000E+00  0.21046841026E+03  0.21046841026E+03  0.00000000000E+00 0.  1.
         21   -1    0    0  501  502  0.00000000000E+00 -0.00000000000E+00 -0.15858561258E+03  0.15858561258E+03  0.00000000000E+00 0.  1.
         23    2    1    2    0    0 -0.10480791135E+02  0.47627480925E+02 -0.13408606907E+02  0.10353486072E+03  0.90340758929E+02 0.  0.
        -24    2    1    2    0    0 -0.32729289628E+02 -0.81076262039E+02 -0.57372174979E+02  0.13123481535E+03  0.79287096246E+02 0.  0.
         11    1    4    4    0    0 -0.11740482440E+01 -0.85968245931E+02 -0.44450989982E+02  0.96787438277E+02  0.00000000000E+00 0. -1.
        -12    1    4    4    0    0 -0.31555241384E+02  0.48919838917E+01 -0.12921184997E+02  0.34447377069E+02  0.00000000000E+00 0.  1.
        -13    1    3    3    0    0  0.33660858343E+02  0.40597936851E+02 -0.23460978650E+02  0.57720562888E+02  0.00000000000E+00 0.  1.
         13    1    3    3    0    0 -0.44141649478E+02  0.70295440743E+01  0.10052371743E+02  0.45814297836E+02  0.00000000000E+00 0. -1.
         -1    1    1    2    0  502  0.43210080763E+02  0.33448781115E+02  0.12266357957E+03  0.13428434678E+03  0.00000000000E+00 0.  1.
<scales pt_clust_5="13000.00000" pt_clust_6="13000.00000" pt_clust_7="13000.00000" pt_clust_8="13000.00000" pt_clust_9="54.64371"></scales>
<clustering>
<clus scale="   54.644">  2  9  1 -1</clus>
<clus scale="   79.287">  5  6 -1 -1</clus>
<clus scale="   90.341">  7  8 -1 -1</clus>
<clus scale="   99.874">  2  5  1 -1</clus>
<clus scale="   54.644">  2  5  1 -1</clus>
</clustering>
</event>
<event>
 9    1  0.4067873E-005  0.9545756E+02  0.7546771E-02  0.1293846E+00
         -2   -1    0    0    0  501 -0.00000000000E+00  0.00000000000E+00  0.10549426491E+03  0.10549426491E+03  0.00000000000E+00 0.  1.
         21   -1    0    0  501  502  0.00000000000E+00 -0.00000000000E+00 -0.17507284414E+03  0.17507284414E+03  0.00000000000E+00 0. -1.
         23    2    1    2    0    0 -0.30239967366E+02 -0.13601123888E+02  0.54281744345E+02  0.10853042930E+03  0.87936909871E+02 0.  0.
        -24    2    1    2    0    0  0.49682427000E+02  0.19323824573E+02 -0.88451445598E+02  0.13123781728E+03  0.80981187366E+02 0.  0.
         11    1    4    4    0    0  0.65185873312E+02  0.32709872111E+02 -0.52507879918E+02  0.89867743192E+02  0.00000000000E+00 0. -1.
        -12    1    4    4    0    0 -0.15503446311E+02 -0.13386047538E+02 -0.35943565680E+02  0.41370074088E+02  0.00000000000E+00 0.  1.
        -11    1    3    3    0    0 -0.36666000239E+02 -0.40721742451E+02  0.58710463301E+02  0.80309242200E+02  0.00000000000E+00 0.  1.
         11    1    3    3    0    0  0.64260328733E+01  0.27120618563E+02 -0.44287189568E+01  0.28221187099E+02  0.00000000000E+00 0. -1.
         -1    1    1    2    0  502 -0.19442459635E+02 -0.57227006848E+01 -0.35408877971E+02  0.40798862471E+02  0.00000000000E+00 0.  1.
<scales pt_clust_5="13000.00000" pt_clust_6="13000.00000" pt_clust_7="13000.00000" pt_clust_8="13000.00000" pt_clust_9="20.26718"></scales>
<clustering>
<clus scale="   20.267">  2  9  1 -1</clus>
<clus scale="   80.981">  5  6 -1 -1</clus>
<clus scale="   87.937">  7  8 -1 -1</clus>
<clus scale="   89.091">  2  5  1 -1</clus>
<clus scale="   20.267">  2  5  1 -1</clus>
</clustering>
</event>
<event>
 9    1  0.4067873E-005  0.9211198E+02  0.7546771E-02  0.1301944E+00
          1   -1    0    0  502    0 -0.00000000000E+00  0.00000000000E+00  0.61661909374E+03  0.61661909374E+03  0.00000000000E+00 0. -1.
         21   -1    0    0  501  502  0.00000000000E+00 -0.00000000000E+00 -0.30630693081E+02  0.30630693081E+02  0.00000000000E+00 0. -1.
        -24    2    1    2    0    0 -0.11073257365E+01 -0.29202403735E+02  0.39160932092E+03  0.40104089853E+03  0.81375275781E+02 0.  0.
         23    2    1    2    0    0 -0.28429614385E+02  0.13854386798E+02  0.19088779754E+03  0.21273977556E+03  0.88430050605E+02 0.  0.
         11    1    3    3    0    0  0.19249247980E+02  0.98253447813E+01  0.31203101847E+02  0.37956613558E+02  0.00000000000E+00 0. -1.
        -12    1    3    3    0    0 -0.20356573717E+02 -0.39027748517E+02  0.36040621907E+03  0.36308428497E+03  0.00000000000E+00 0.  1.
        -13    1    4    4    0    0 -0.19160927146E+02  0.38756900548E+02  0.38001868014E+02  0.57561970447E+02  0.00000000000E+00 0.  1.
         13    1    4    4    0    0 -0.92686872384E+01 -0.24902513750E+02  0.15288592952E+03  0.15517780512E+03  0.00000000000E+00 0. -1.
          2    1    1    2  501    0  0.29536940121E+02  0.15348016937E+02  0.34912822038E+01  0.33469112732E+02  0.00000000000E+00 0. -1.
<scales pt_clust_5="13000.00000" pt_clust_6="13000.00000" pt_clust_7="13000.00000" pt_clust_8="13000.00000" pt_clust_9="33.28652"></scales>
<clustering>
<clus scale="   33.287">  2  9  1 -1</clus>
<clus scale="   81.375">  5  6 -1 -1</clus>
<clus scale="   85.362">  1  5  2 -1</clus>
<clus scale="   88.430">  7  8 -1 -1</clus>
<clus scale="   33.287">  2  5  1 -1</clus>
</clustering>
</event>
<event>
 9    1  0.4067873E-005  0.1332521E+03  0.7546771E-02  0.1225134E+00
         -2   -1    0    0    0  501 -0.00000000000E+00  0.00000000000E+00  0.19376130922E+03  0.19376130922E+03  0.00000000000E+00 0.  1.
         21   -1    0    0  501  502  0.00000000000E+00 -0.00000000000E+00 -0.24695725268E+03  0.24695725268E+03  0.00000000000E+00 0. -1.
         23    2    1    2    0    0  0.40213693037E+02 -0.59609115192E+02 -0.64788673816E+02  0.13168795743E+03  0.89295902231E+02 0.  0.
        -24    2    1    2    0    0 -0.68142823095E+02  0.11926029795E+03 -0.94204287888E+02  0.18440593203E+03  0.79149459281E+02 0.  0.
         13    1    4    4    0    0 -0.19913654495E+02  0.88086632241E+02 -0.23497372164E+02  0.93316316437E+02  0.00000000000E+00 0. -1.
        -14    1    4    4    0    0 -0.48229168600E+02  0.31173665713E+02 -0.70706915724E+02  0.91089615594E+02  0.00000000000E+00 0.  1.
        -13    1    3    3    0    0  0.64477844871E+02 -0.22688540493E+02 -0.26793653852E+02  0.73417043223E+02  0.00000000000E+00 0.  1.
         13    1    3    3    0    0 -0.24264151833E+02 -0.36920574699E+02 -0.37995019964E+02  0.58270914206E+02  0.00000000000E+00 0. -1.
         -1    1    1    2    0  502  0.27929130058E+02 -0.59651182762E+02  0.10579701825E+03  0.12462467244E+03  0.00000000000E+00 0.  1.
<scales pt_clust_5="13000.00000" pt_clust_6="13000.00000" pt_clust_7="13000.00000" pt_clust_8="13000.00000" pt_clust_9="65.86580"></scales>
<clustering>
<clus scale="   65.866">  2  9  1 -1</clus>
<clus scale="   79.149">  5  6 -1 -1</clus>
<clus scale="   89.296">  7  8 -1 -1</clus>
<clus scale="  126.677">  2  5  1 -1</clus>
<clus scale="   65.866">  2  5  1 -1</clus>
</clustering>
</event>
<event>
 9    1  0.4067873E-005  0.2270103E+03  0.7546771E-02  0.1162733E+00
         21   -1    0    0  501  502  0.00000000000E+00  0.00000000000E+00  0.35920184563E+02  0.35920184563E+02  0.00000000000E+00 0. -1.
          1   -1    0    0  502    0 -0.00000000000E+00 -0.00000000000E+00 -0.20742034147E+04  0.20742034147E+04  0.00000000000E+00 0. -1.
        -24    2    1    2    0    0 -0.44890106557E+02 -0.40375579001E+02 -0.27216653929E+03  0.29025526165E+03  0.80797170501E+02 0.  0.
         23    2    1    2    0    0 -0.16601277023E+03  0.10625125258E+03 -0.93234980918E+03  0.95732161959E+03  0.91317841121E+02 0.  0.
         11    1    3    3    0    0 -0.67685119271E+02 -0.21066576943E+02 -0.19732522237E+03  0.20967193283E+03  0.00000000000E+00 0. -1.
        -12    1    3    3    0    0  0.22795012714E+02 -0.19309002057E+02 -0.74841316918E+02  0.80583328816E+02  0.00000000000E+00 0.  1.
        -13    1    4    4    0    0 -0.71984396370E+02  0.84046058385E+02 -0.35199036546E+03  0.36897521682E+03  0.00000000000E+00 0. -1.
         13    1    4    4    0    0 -0.94028373856E+02  0.22205194193E+02 -0.58035944372E+03  0.58834640277E+03  0.00000000000E+00 0.  1.
          2    1    1    2  501    0  0.21090287678E+03 -0.65875673577E+02 -0.83376688171E+03  0.86254671806E+03  0.00000000000E+00 0. -1.
<scales pt_clust_5="13000.00000" pt_clust_6="13000.00000" pt_clust_7="13000.00000" pt_clust_8="13000.00000" pt_clust_9="207.83338"></scales>
<clustering>
<clus scale="   80.797">  5  6 -1 -1</clus>
<clus scale="   91.318">  7  8 -1 -1</clus>
<clus scale="  100.864">  2  5  1 -1</clus>
<clus scale="  207.833">  1  9  2 -1</clus>
<clus scale="  207.833">  1  5  2 -1</clus>
</clustering>
</event>
<event>
 9    1  0.4067873E-005  0.2370929E+03  0.7546771E-02  0.1160242E+00
         21   -1    0    0  501  502  0.00000000000E+00  0.00000000000E+00  0.62909222117E+02  0.62909222117E+02  0.00000000000E+00 0.  1.
         -2   -1    0    0    0  501 -0.00000000000E+00 -0.00000000000E+00 -0.12952566489E+04  0.12952566489E+04  0.00000000000E+00 0.  1.
         23    2    1    2    0    0  0.51291788089E+00 -0.22495112755E+02 -0.22320255057E+03  0.24211359686E+03  0.91067678259E+02 0.  0.
        -24    2    1    2    0    0 -0.21299388205E+03  0.81702602516E+02 -0.66149703227E+03  0.70433306113E+03  0.80405399313E+02 0.  0.
         11    1    4    4    0    0 -0.12431036304E+03  0.51848782159E+02 -0.26900227988E+03  0.30083814444E+03  0.00000000000E+00 0. -1.
        -12    1    4    4    0    0 -0.88683519015E+02  0.29853820357E+02 -0.39249475239E+03  0.40349491668E+03  0.00000000000E+00 0.  1.
        -11    1    3    3    0    0 -0.29390874603E+02 -0.46505598075E+02 -0.14287857785E+03  0.15310415465E+03  0.00000000000E+00 0.  1.
         11    1    3    3    0    0  0.29903792484E+02  0.24010485320E+02 -0.80323972714E+02  0.89009442212E+02  0.00000000000E+00 0. -1.
         -1    1    1    2    0  502  0.21248096417E+03 -0.59207489761E+02 -0.34764784393E+03  0.41171921302E+03  0.00000000000E+00 0.  1.
<scales pt_clust_5="13000.00000" pt_clust_6="13000.00000" pt_clust_7="13000.00000" pt_clust_8="13000.00000" pt_clust_9="223.04263"></scales>
<clustering>
<clus scale="   80.405">  5  6 -1 -1</clus>
<clus scale="   91.068">  7  8 -1 -1</clus>
<clus scale="   93.806">  2  7  1 -1</clus>
<clus scale="  223.043">  1  9  2 -1</clus>
<clus scale="  223.043">  1  5  2 -1</clus>
</clustering>
</event>
<event>
 9    1  0.4067873E-005  0.1146561E+03  0.7546771E-02  0.1256848E+00
         21   -1    0    0  501  502  0.00000000000E+00  0.00000000000E+00  0.11884728418E+03  0.11884728418E+03  0.00000000000E+00 0. -1.
          1   -1    0    0  502    0 -0.00000000000E+00 -0.00000000000E+00 -0.30830831050E+03  0.30830831050E+03  0.00000000000E+00 0. -1.
         23    2    1    2    0    0  0.22321059894E+02 -0.83561118244E+02 -0.23894812308E+03  0.26976852108E+03  0.90543686948E+02 0.  0.
        -24    2    1    2    0    0 -0.13654058731E+02  0.16927523621E+02  0.14443684829E+02  0.81603212767E+02  0.77314228488E+02 0.  0.
         11    1    4    4    0    0  0.82453245145E+01 -0.19443168274E+02  0.29740851930E+02  0.36476573885E+02  0.00000000000E+00 0. -1.
        -12    1    4    4    0    0 -0.21899383245E+02  0.36370691895E+02 -0.15297167102E+02  0.45126638882E+02  0.00000000000E+00 0.  1.
        -11    1    3    3    0    0  0.33382089478E+02 -0.20642455800E+02 -0.25114885344E+02  0.46596484258E+02  0.00000000000E+00 0.  1.
         11    1    3    3    0    0 -0.11061029585E+02 -0.62918662444E+02 -0.21383323774E+03  0.22317203682E+03  0.00000000000E+00 0. -1.
          2    1    1    2  501    0 -0.86670011625E+01  0.66633594623E+02  0.35043411932E+02  0.75783860824E+02  0.00000000000E+00 0. -1.
<scales pt_clust_5="13000.00000" pt_clust_6="13000.00000" pt_clust_7="13000.00000" pt_clust_8="13000.00000" pt_clust_9="67.19489"></scales>
<clustering>
<clus scale="   67.195">  1  9  2 -1</clus>
<clus scale="   77.314">  5  6 -1 -1</clus>
<clus scale="   90.544">  7  8 -1 -1</clus>
<clus scale="  104.524">  1  5  2 -1</clus>
<clus scale="   67.195">  1  5  2 -1</clus>
</clustering>
</event>
<event>
 9    1  0.4067873E-005  0.1761575E+03  0.7546771E-02  0.1204398E+00
         21   -1    0    0  501  502  0.00000000000E+00  0.00000000000E+00  0.14621105862E+03  0.14621105862E+03  0.00000000000E+00 0.  1.
          1   -1    0    0  502    0 -0.00000000000E+00 -0.00000000000E+00 -0.29683429773E+03  0.29683429773E+03  0.00000000000E+00 0. -1.
        -24    2    1    2    0    0 -0.22341762800E+02  0.18387876569E+02 -0.47700266128E+02  0.97532738357E+02  0.80000320581E+02 0.  0.
         23    2    1    2    0    0  0.52012923075E+02 -0.15507990766E+03 -0.34550345517E+02  0.18982091846E+03  0.89906244407E+02 0.  0.
         11    1    3    3    0    0 -0.47139792051E+02  0.47099418699E+01 -0.69109195709E+01  0.47875926690E+02  0.00000000000E+00 0. -1.
        -12    1    3    3    0    0  0.24798029252E+02  0.13677934700E+02 -0.40789346557E+02  0.49656811668E+02  0.00000000000E+00 0.  1.
        -11    1    4    4    0    0  0.33736054963E+02 -0.16275430571E+02 -0.32829881526E+02  0.49807752065E+02  0.00000000000E+00 0. -1.
         11    1    4    4    0    0  0.18276868112E+02 -0.13880447709E+03 -0.17204639914E+01  0.14001316640E+03  0.00000000000E+00 0.  1.
          2    1    1    2  501    0 -0.29671160276E+02  0.13669203109E+03 -0.68372627460E+02  0.15569169953E+03  0.00000000000E+00 0. -1.
<scales pt_clust_5="13000.00000" pt_clust_6="13000.00000" pt_clust_7="13000.00000" pt_clust_8="13000.00000" pt_clust_9="151.48713"></scales>
<clustering>
<clus scale="   80.000">  5  6 -1 -1</clus>
<clus scale="   85.072">  2  5  1 -1</clus>
<clus scale="   89.906">  7  8 -1 -1</clus>
<clus scale="  151.487">  1  9  2 -1</clus>
<clus scale="  151.487">  1  5  2 -1</clus>
</clustering>
</event>
<event>
 9    1  0.4067873E-005  0.1200411E+03  0.7546771E-02  0.1246674E+00
         -2   -1    0    0    0  501 -0.00000000000E+00  0.00000000000E+00  0.99658873802E+03  0.99658873802E+03  0.00000000000E+00 0.  1.
         21   -1    0    0  501  502  0.00000000000E+00 -0.00000000000E+00 -0.41242507445E+02  0.41242507445E+02  0.00000000000E+00 0. -1.
         23    2    1    2    0    0 -0.43286595399E+02  0.79650850714E+02  0.58129300772E+03  0.59584415967E+03  0.94396580605E+02 0.  0.
        -24    2    1    2    0    0 -0.60732423308E+02 -0.47495708275E+02  0.11796357811E+03  0.16371417015E+03  0.83322591177E+02 0.  0.
         11    1    4    4    0    0 -0.61959631592E+02 -0.43197774365E+02  0.13029101172E+03  0.15060143224E+03  0.00000000000E+00 0. -1.
        -12    1    4    4    0    0  0.12272082839E+01 -0.42979339096E+01 -0.12327433609E+02  0.13112737908E+02  0.00000000000E+00 0.  1.
        -13    1    3    3    0    0  0.26611561620E+02  0.47518630445E+01  0.89483095664E+02  0.93477162045E+02  0.00000000000E+00 0. -1.
         13    1    3    3    0    0 -0.69898157019E+02  0.74898987670E+02  0.49180991205E+03  0.50236699762E+03  0.00000000000E+00 0.  1.
         -1    1    1    2    0  502  0.10401901871E+03 -0.32155142439E+02  0.25608964475E+03  0.27827291565E+03  0.00000000000E+00 0.  1.
<scales pt_clust_5="13000.00000" pt_clust_6="13000.00000" pt_clust_7="13000.00000" pt_clust_8="13000.00000" pt_clust_9="108.87566"></scales>
<clustering>
<clus scale="   83.323">  5  6 -1 -1</clus>
<clus scale="   94.397">  7  8 -1 -1</clus>
<clus scale="  108.876">  2  9  1 -1</clus>
<clus scale="  111.543">  2  5  1 -1</clus>
<clus scale="  108.876">  2  5  1 -1</clus>
</clustering>
</event>
<event>
 9    1  0.4067873E-005  0.1032296E+03  0.7546771E-02  0.1278922E+00
         -4   -1    0    0    0  501 -0.00000000000E+00  0.00000000000E+00  0.18214030720E+03  0.18214030720E+03  0.00000000000E+00 0.  1.
         21   -1    0    0  501  502  0.00000000000E+00 -0.00000000000E+00 -0.13373529071E+03  0.13373529071E+03  0.00000000000E+00 0. -1.
        -24    2    1    2    0    0  0.21058867627E+02  0.34682702841E+02  0.82375360398E+02  0.12257800532E+03  0.81199147808E+02 0.  0.
         23    2    1    2    0    0 -0.15255493615E+02 -0.55363307230E+02  0.40261623447E+02  0.11602048391E+03  0.92422554023E+02 0.  0.
         13    1    3    3    0    0  0.22875906569E+02 -0.20369772607E+02  0.11280842648E+02  0.32641877217E+02  0.00000000000E+00 0. -1.
        -14    1    3    3    0    0 -0.18170389424E+01  0.55052475448E+02  0.71094517750E+02  0.89936128100E+02  0.00000000000E+00 0.  1.
        -13    1    4    4    0    0  0.71480198302E+01 -0.22242308936E+02  0.64951687772E+02  0.69025620162E+02  0.00000000000E+00 0.  1.
         13    1    4    4    0    0 -0.22403513446E+02 -0.33120998294E+02 -0.24690064325E+02  0.46994863752E+02  0.00000000000E+00 0. -1.
         -3    1    1    2    0  502 -0.58033740111E+01  0.20680604389E+02 -0.74231967361E+02  0.77277108681E+02  0.00000000000E+00 0.  1.
<scales pt_clust_5="13000.00000" pt_clust_6="13000.00000" pt_clust_7="13000.00000" pt_clust_8="13000.00000" pt_clust_9="21.47944"></scales>
<clustering>
<clus scale="   21.479">  2  9  1 -1</clus>
<clus scale="   81.199">  5  6 -1 -1</clus>
<clus scale="   92.423">  7  8 -1 -1</clus>
<clus scale="   93.315">  1  5  2 -1</clus>
<clus scale="   21.479">  2  5  1 -1</clus>
</clustering>
</event>
<event>
 9    1  0.4067873E-005  0.1679059E+03  0.7546771E-02  0.1196681E+00
          1   -1    0    0  502    0 -0.00000000000E+00  0.00000000000E+00  0.66244132406E+02  0.66244132406E+02  0.00000000000E+00 0. -1.
         21   -1    0    0  501  502  0.00000000000E+00 -0.00000000000E+00 -0.82025441758E+03  0.82025441758E+03  0.00000000000E+00 0. -1.
        -24    2    1    2    0    0  0.25997465899E+02  0.83853997978E+02 -0.90233480009E+02  0.14708118122E+03  0.76048877340E+02 0.  0.
         23    2    1    2    0    0 -0.15788669266E+03 -0.28201410970E+02 -0.34934464736E+03  0.39393283882E+03  0.86127066328E+02 0.  0.
         13    1    3    3    0    0  0.51651217730E+02  0.62915429698E+02 -0.74790144276E+02  0.11054304713E+03  0.00000000000E+00 0. -1.
        -14    1    3    3    0    0 -0.25653751830E+02  0.20938568280E+02 -0.15443335734E+02  0.36538134096E+02  0.00000000000E+00 0.  1.
        -11    1    4    4    0    0 -0.52171356071E+02 -0.15541752372E+02 -0.21882637603E+03  0.22549585209E+03  0.00000000000E+00 0.  1.
         11    1    4    4    0    0 -0.10571533659E+03 -0.12659658598E+02 -0.13051827133E+03  0.16843698673E+03  0.00000000000E+00 0. -1.
          2    1    1    2  501    0  0.13188922676E+03 -0.55652587008E+02 -0.31443215780E+03  0.34548452995E+03  0.00000000000E+00 0. -1.
<scales pt_clust_5="13000.00000" pt_clust_6="13000.00000" pt_clust_7="13000.00000" pt_clust_8="13000.00000" pt_clust_9="144.13370"></scales>
<clustering>
<clus scale="   76.049">  5  6 -1 -1</clus>
<clus scale="   86.127">  7  8 -1 -1</clus>
<clus scale="  116.150">  1  5  2 -1</clus>
<clus scale="  144.134">  2  9  1 -1</clus>
<clus scale="  144.134">  2  5  1 -1</clus>
</clustering>
</event>
<event>
 9    1  0.4067873E-005  0.9931492E+02  0.7546771E-02  0.1286456E+00
          1   -1    0    0  502    0 -0.00000000000E+00  0.00000000000E+00  0.22191683284E+03  0.22191683284E+03  0.00000000000E+00 0. -1.
         21   -1    0    0  501  502  0.00000000000E+00 -0.00000000000E+00 -0.11217699742E+03  0.11217699742E+03  0.00000000000E+00 0.  1.
        -24    2    1    2    0    0  0.37830429602E+02  0.13535662659E+02  0.11569497202E+03  0.14788723672E+03  0.82891209820E+02 0.  0.
         23    2    1    2    0    0 -0.34592488864E+02  0.58190151435E+02 -0.48402385075E+01  0.11439907538E+03  0.92092271824E+02 0.  0.
         11    1    3    3    0    0  0.26730569487E+02  0.44060846424E+02  0.98425154429E+02  0.11110082159E+03  0.00000000000E+00 0. -1.
        -12    1    3    3    0    0  0.11099860115E+02 -0.30525183766E+02  0.17269817590E+02  0.36786415130E+02  0.00000000000E+00 0.  1.
        -13    1    4    4    0    0 -0.19322632457E+02  0.26382374167E+02  0.43581449281E+02  0.54486113031E+02  0.00000000000E+00 0. -1.
         13    1    4    4    0    0 -0.15269856406E+02  0.31807777268E+02 -0.48421687789E+02  0.59912962351E+02  0.00000000000E+00 0.  1.
          2    1    1    2  501    0 -0.32379407385E+01 -0.71725814094E+02 -0.11148980905E+01  0.71807518168E+02  0.00000000000E+00 0. -1.
<scales pt_clust_5="13000.00000" pt_clust_6="13000.00000" pt_clust_7="13000.00000" pt_clust_8="13000.00000" pt_clust_9="71.79886"></scales>
<clustering>
<clus scale="   71.799">  2  9  1 -1</clus>
<clus scale="   82.891">  5  6 -1 -1</clus>
<clus scale="   90.848">  1  5  2 -1</clus>
<clus scale="   92.092">  7  8 -1 -1</clus>
<clus scale="   71.799">  2  5  1 -1</clus>
</clustering>
</event>
<event>
 9    1  0.4067873E-005  0.1052920E+03  0.7546771E-02  0.1275631E+00
         21   -1    0    0  501  502  0.00000000000E+00  0.00000000000E+00  0.18650126818E+03  0.18650126818E+03  0.00000000000E+00 0.  1.
         -2   -1    0    0    0  501 -0.00000000000E+00 -0.00000000000E+00 -0.96097181215E+02  0.96097181215E+02  0.00000000000E+00 0.  1.
         23    2    1    2    0    0 -0.42224758901E+02 -0.30970391654E+02  0.30517805133E+02  0.11019613243E+03  0.92031275934E+02 0.  0.
        -24    2    1    2    0    0  0.55330934127E+02  0.12551447214E+01  0.87407557477E+02  0.12983251144E+03  0.78443051077E+02 0.  0.
         11    1    4    4    0    0 -0.16725950279E+02 -0.13375284316E+02  0.28316963216E+02  0.35503606141E+02  0.00000000000E+00 0. -1.
        -12    1    4    4    0    0  0.72056884406E+02  0.14630429038E+02  0.59090594261E+02  0.94328905295E+02  0.00000000000E+00 0.  1.
        -13    1    3    3    0    0 -0.10953849623E+00  0.30972232661E+02  0.96105312839E+01  0.32429207611E+02  0.00000000000E+00 0. -1.
         13    1    3    3    0    0 -0.42115220404E+02 -0.61942624315E+02  0.20907273849E+02  0.77766924824E+02  0.00000000000E+00 0.  1.
         -1    1    1    2    0  502 -0.13106175227E+02  0.29715246933E+02 -0.27521275644E+02  0.42569805525E+02  0.00000000000E+00 0.  1.
<scales pt_clust_5="13000.00000" pt_clust_6="13000.00000" pt_clust_7="13000.00000" pt_clust_8="13000.00000" pt_clust_9="32.47720"></scales>
<clustering>
<clus scale="   32.477">  1  9  2 -1</clus>
<clus scale="   78.443">  5  6 -1 -1</clus>
<clus scale="   92.031">  7  8 -1 -1</clus>
<clus scale="   93.648">  1  5  2 -1</clus>
<clus scale="   32.477">  1  5  2 -1</clus>
</clustering>
</event>
<event>
 9    1  0.4067873E-005  0.9983120E+02  0.7546771E-02  0.1289022E+00
         21   -1    0    0  501  502  0.00000000000E+00  0.00000000000E+00  0.25002226543E+03  0.25002226543E+03  0.00000000000E+00 0.  1.
         -2   -1    0    0    0  501 -0.00000000000E+00 -0.00000000000E+00 -0.70953192173E+02  0.70953192173E+02  0.00000000000E+00 0.  1.
         23    2    1    2    0    0 -0.57868110106E+02  0.48704825473E+01  0.31529888857E+02  0.11577490139E+03  0.95064473554E+02 0.  0.
        -24    2    1    2    0    0 -0.46142078029E+01 -0.71699130475E+00  0.76438502813E+02  0.11045564362E+03  0.79597735553E+02 0.  0.
         13    1    4    4    0    0  0.24850004884E+02 -0.10556592422E+02  0.74602270954E+02  0.79337653216E+02  0.00000000000E+00 0. -1.
        -14    1    4    4    0    0 -0.29464212687E+02  0.98396011173E+01  0.18362318591E+01  0.31117990405E+02  0.00000000000E+00 0.  1.
        -11    1    3    3    0    0 -0.23518431317E+02  0.42796787764E+02  0.40968310980E+02  0.63742326276E+02  0.00000000000E+00 0.  1.
         11    1    3    3    0    0 -0.34349678790E+02 -0.37926305217E+02 -0.94384221234E+01  0.52032575110E+02  0.00000000000E+00 0. -1.
         -1    1    1    2    0  502  0.62482317909E+02 -0.41534912425E+01  0.71100681586E+02  0.94744912596E+02  0.00000000000E+00 0.  1.
<scales pt_clust_5="13000.00000" pt_clust_6="13000.00000" pt_clust_7="13000.00000" pt_clust_8="13000.00000" pt_clust_9="62.62022"></scales>
<clustering>
<clus scale="   62.620">  1  9  2 -1</clus>
<clus scale="   79.598">  5  6 -1 -1</clus>
<clus scale="   85.234">  1  5  2 -1</clus>
<clus scale="   95.064">  7  8 -1 -1</clus>
<clus scale="   62.620">  1  5  2 -1</clus>
</clustering>
</event>
<event>
 9    1  0.4067873E-005  0.1021223E+03  0.7546771E-02  0.1288220E+00
         -4   -1    0    0    0  501 -0.00000000000E+00  0.00000000000E+00  0.26818650810E+03  0.26818650810E+03  0.00000000000E+00 0.  1.
         21   -1    0    0  501  502  0.00000000000E+00 -0.00000000000E+00 -0.84389429579E+02  0.84389429579E+02  0.00000000000E+00 0.  1.
         23    2    1    2    0    0 -0.44298829141E+02 -0.21009121024E+00  0.17014210471E+03  0.20072529414E+03  0.96849767734E+02 0.  0.
        -24    2    1    2    0    0  0.18130136803E+02 -0.24850371178E+00  0.61071517867E+02  0.97690331329E+02  0.74060157481E+02 0.  0.
         13    1    4    4    0    0  0.15380526103E+02 -0.28672497473E+02  0.26280038268E+01  0.32643209074E+02  0.00000000000E+00 0. -1.
        -14    1    4    4    0    0  0.27496107001E+01  0.28423993761E+02  0.58443514040E+02  0.65047122255E+02  0.00000000000E+00 0.  1.
        -13    1    3    3    0    0 -0.16046157934E+02 -0.46960481806E+02  0.10166010609E+03  0.11312622687E+03  0.00000000000E+00 0.  1.
         13    1    3    3    0    0 -0.28252671207E+02  0.46750390595E+02  0.68481998622E+02  0.87599067269E+02  0.00000000000E+00 0. -1.
         -3    1    1    2    0  502  0.26168692338E+02  0.45859492202E+00 -0.47416544059E+02  0.54160312208E+02  0.00000000000E+00 0.  1.
<scales pt_clust_5="13000.00000" pt_clust_6="13000.00000" pt_clust_7="13000.00000" pt_clust_8="13000.00000" pt_clust_9="26.17271"></scales>
<clustering>
<clus scale="   26.173">  2  9  1 -1</clus>
<clus scale="   74.060">  5  6 -1 -1</clus>
<clus scale="   80.833">  2  5  1 -1</clus>
<clus scale="   96.850">  7  8 -1 -1</clus>
<clus scale="   26.173">  2  5  1 -1</clus>
</clustering>
</event>
<event>
 9    1  0.4067873E-005  0.9011224E+02  0.7546771E-02  0.1303811E+00
         -2   -1    0    0    0  501 -0.00000000000E+00  0.00000000000E+00  0.86162985181E+02  0.86162985181E+02  0.00000000000E+00 0.  1.
         21   -1    0    0  501  502  0.00000000000E+00 -0.00000000000E+00 -0.33770776780E+03  0.33770776780E+03  0.00000000000E+00 0.  1.
        -24    2    1    2    0    0  0.21266296713E+02  0.82088701678E+01  0.20435443008E+02  0.90941902868E+02  0.85633996993E+02 0.  0.
         23    2    1    2    0    0  0.16381826873E+02 -0.40056107982E+02 -0.26581257139E+03  0.28323309853E+03  0.87702958668E+02 0.  0.
         13    1    3    3    0    0 -0.25817626910E+02 -0.67605091428E+01 -0.14555996394E+02  0.30399529177E+02  0.00000000000E+00 0. -1.
        -14    1    3    3    0    0  0.47083923624E+02  0.14969379311E+02  0.34991439402E+02  0.60542373691E+02  0.00000000000E+00 0.  1.
        -13    1    4    4    0    0  0.16128794060E+02  0.25465109252E+02 -0.58445747686E+02  0.65761046294E+02  0.00000000000E+00 0. -1.
         13    1    4    4    0    0  0.25303281323E+00 -0.65521217235E+02 -0.20736682370E+03  0.21747205224E+03  0.00000000000E+00 0.  1.
         -1    1    1    2    0  502 -0.37648123586E+02  0.31847237814E+02 -0.61676542369E+01  0.49695751577E+02  0.00000000000E+00 0.  1.
<scales pt_clust_5="13000.00000" pt_clust_6="13000.00000" pt_clust_7="13000.00000" pt_clust_8="13000.00000" pt_clust_9="49.31156"></scales>
<clustering>
<clus scale="   49.312">  2  9  1 -1</clus>
<clus scale="   85.634">  5  6 -1 -1</clus>
<clus scale="   87.703">  7  8 -1 -1</clus>
<clus scale="   88.100">  1  5  2 -1</clus>
<clus scale="   49.312">  2  5  1 -1</clus>
</clustering>
</event>
<event>
 9    1  0.4067873E-005  0.1287513E+03  0.7546771E-02  0.1232651E+00
         21   -1    0    0  501  502  0.00000000000E+00  0.00000000000E+00  0.87595663254E+02  0.87595663254E+02  0.00000000000E+00 0.  1.
          1   -1    0    0  502    0 -0.00000000000E+00 -0.00000000000E+00 -0.51774534129E+03  0.51774534129E+03  0.00000000000E+00 0. -1.
        -24    2    1    2    0    0  0.10621243630E+03 -0.35938121488E+02 -0.13854630061E+03  0.19500944172E+03  0.79126321448E+02 0.  0.
         23    2    1    2    0    0 -0.28423213017E+02  0.57422304442E+02 -0.42428680194E+01  0.11185410012E+03  0.91586776877E+02 0.  0.
         13    1    3    3    0    0  0.11440300815E+03 -0.46791109201E+02 -0.12613580681E+03  0.17660039052E+03  0.00000000000E+00 0. -1.
        -14    1    3    3    0    0 -0.81905718485E+01  0.10852987714E+02 -0.12410493804E+02  0.18409051197E+02  0.00000000000E+00 0.  1.
        -11    1    4    4    0    0  0.31716592670E+02  0.74916297956E+01 -0.81427128501E+01  0.33591227130E+02  0.00000000000E+00 0. -1.
         11    1    4    4    0    0 -0.60139805687E+02  0.49930674646E+02  0.38998448307E+01  0.78262872988E+02  0.00000000000E+00 0.  1.
          2    1    1    2  501    0 -0.77789223284E+02 -0.21484182954E+02 -0.28736050940E+03  0.29847746270E+03  0.00000000000E+00 0. -1.
<scales pt_clust_5="13000.00000" pt_clust_6="13000.00000" pt_clust_7="13000.00000" pt_clust_8="13000.00000" pt_clust_9="80.70155"></scales>
<clustering>
<clus scale="   79.126">  5  6 -1 -1</clus>
<clus scale="   80.702">  1  9  2 -1</clus>
<clus scale="   91.587">  7  8 -1 -1</clus>
<clus scale="  120.207">  2  5  1 -1</clus>
<clus scale="   80.702">  1  5  2 -1</clus>
</clustering>
</event>
<event>
 9    1  0.4067873E-005  0.9714850E+02  0.7546771E-02  0.1290377E+00
          1   -1    0    0  502    0 -0.00000000000E+00  0.00000000000E+00  0.22200376862E+03  0.22200376862E+03  0.00000000000E+00 0. -1.
         21   -1    0    0  501  502  0.00000000000E+00 -0.00000000000E+00 -0.69400889461E+02  0.69400889461E+02  0.00000000000E+00 0.  1.
         23    2    1    2    0    0 -0.31810237376E+02 -0.32793046207E+02  0.11969204024E+03  0.15617709238E+03  0.89318668851E+02 0.  0.
        -24    2    1    2    0    0  0.94178563797E+01  0.28991982479E+02  0.55376087877E+02  0.10328145134E+03  0.81678124467E+02 0.  0.
         13    1    4    4    0    0  0.19202944223E+02  0.38025512970E+02  0.70970873910E+02  0.82774136341E+02  0.00000000000E+00 0. -1.
        -14    1    4    4    0    0 -0.97850878433E+01 -0.90335304908E+01 -0.15594786033E+02  0.20507315003E+02  0.00000000000E+00 0.  1.
        -11    1    3    3    0    0  0.30230522301E+02 -0.21841516163E+02  0.42678276233E+02  0.56677787264E+02  0.00000000000E+00 0. -1.
         11    1    3    3    0    0 -0.62040759677E+02 -0.10951530044E+02  0.77013764006E+02  0.99499305113E+02  0.00000000000E+00 0.  1.
          2    1    1    2  501    0  0.22392380996E+02  0.38010637274E+01 -0.22465248956E+02  0.31946114361E+02  0.00000000000E+00 0. -1.
<scales pt_clust_5="13000.00000" pt_clust_6="13000.00000" pt_clust_7="13000.00000" pt_clust_8="13000.00000" pt_clust_9="22.71270"></scales>
<clustering>
<clus scale="   22.713">  2  9  1 -1</clus>
<clus scale="   81.678">  5  6 -1 -1</clus>
<clus scale="   89.319">  7  8 -1 -1</clus>
<clus scale="   90.174">  2  5  1 -1</clus>
<clus scale="   22.713">  2  5  1 -1</clus>
</clustering>
</event>
<event>
 9    1  0.4067873E-005  0.1140784E+03  0.7546771E-02  0.1259347E+00
         21   -1    0    0  501  502  0.00000000000E+00  0.00000000000E+00  0.60491538099E+02  0.60491538099E+02  0.00000000000E+00 0. -1.
          1   -1    0    0  502    0 -0.00000000000E+00 -0.00000000000E+00 -0.55839322822E+03  0.55839322822E+03  0.00000000000E+00 0. -1.
         23    2    1    2    0    0 -0.61245509216E+02  0.17512041116E+02 -0.45301235227E+03  0.46754628452E+03  0.96548707279E+02 0.  0.
        -24    2    1    2    0    0  0.42908564795E+02 -0.31745598294E+02 -0.68252167605E+02  0.11840431269E+03  0.80698791425E+02 0.  0.
         11    1    4    4    0    0  0.68198866735E+01 -0.53041980457E+02 -0.48010491410E+02  0.71867724539E+02  0.00000000000E+00 0. -1.
        -12    1    4    4    0    0  0.36088678122E+02  0.21296382162E+02 -0.20241676195E+02  0.46536588153E+02  0.00000000000E+00 0.  1.
        -13    1    3    3    0    0 -0.73745810792E+02  0.38171634555E+02 -0.40900436372E+03  0.41734888024E+03  0.00000000000E+00 0. -1.
         13    1    3    3    0    0  0.12500301576E+02 -0.20659593439E+02 -0.44007988550E+02  0.50197404283E+02  0.00000000000E+00 0.  1.
          2    1    1    2  501    0  0.18336944420E+02  0.14233557178E+02  0.23362829753E+02  0.32934169106E+02  0.00000000000E+00 0. -1.
<scales pt_clust_5="13000.00000" pt_clust_6="13000.00000" pt_clust_7="13000.00000" pt_clust_8="13000.00000" pt_clust_9="23.21288"></scales>
<clustering>
<clus scale="   23.213">  1  9  2 -1</clus>
<clus scale="   80.699">  5  6 -1 -1</clus>
<clus scale="   96.549">  7  8 -1 -1</clus>
<clus scale="  101.017">  1  5  2 -1</clus>
<clus scale="   23.213">  1  5  2 -1</clus>
</clustering>
</event>
<event>
 9    1  0.4067873E-005  0.1093944E+03  0.7546771E-02  0.1265516E+00
         21   -1    0    0  501  502  0.00000000000E+00  0.00000000000E+00  0.30392259755E+02  0.30392259755E+02  0.00000000000E+00 0.  1.
          1   -1    0    0  502    0 -0.00000000000E+00 -0.00000000000E+00 -0.60453341368E+03  0.60453341368E+03  0.00000000000E+00 0. -1.
         23    2    1    2    0    0 -0.23176852003E+02  0.63294363722E+02 -0.39222179877E+03  0.40809708376E+03  0.90343496663E+02 0.  0.
        -24    2    1    2    0    0  0.90972423079E+01 -0.45949186754E+02 -0.81169378240E+02  0.12363145590E+03  0.80636104458E+02 0.  0.
         11    1    4    4    0    0  0.51180804709E+00  0.23381349993E+02 -0.19716348973E+02  0.30588950485E+02  0.00000000000E+00 0. -1.
        -12    1    4    4    0    0  0.85854342608E+01 -0.69330536747E+02 -0.61453029267E+02  0.93042505411E+02  0.00000000000E+00 0.  1.
        -13    1    3    3    0    0  0.17432462554E+02 -0.13591486279E+02 -0.12914725728E+03  0.13102531554E+03  0.00000000000E+00 0.  1.
         13    1    3    3    0    0 -0.40609314557E+02  0.76885850001E+02 -0.26307454149E+03  0.27707176821E+03  0.00000000000E+00 0. -1.
          2    1    1    2  501    0  0.14079609695E+02 -0.17345176969E+02 -0.10074997691E+03  0.10319713378E+03  0.00000000000E+00 0. -1.
<scales pt_clust_5="13000.00000" pt_clust_6="13000.00000" pt_clust_7="13000.00000" pt_clust_8="13000.00000" pt_clust_9="22.34035"></scales>
<clustering>
<clus scale="   22.340">  1  9  2 -1</clus>
<clus scale="   80.636">  5  6 -1 -1</clus>
<clus scale="   90.343">  7  8 -1 -1</clus>
<clus scale="  101.525">  1  5  2 -1</clus>
<clus scale="   22.340">  1  5  2 -1</clus>
</clustering>
</event>
<event>
 9    1  0.4067873E-005  0.2011267E+03  0.7546771E-02  0.1176049E+00
          1   -1    0    0  502    0 -0.00000000000E+00  0.00000000000E+00  0.11599477131E+04  0.11599477131E+04  0.00000000000E+00 0. -1.
         21   -1    0    0  501  502  0.00000000000E+00 -0.00000000000E+00 -0.20889267484E+03  0.20889267484E+03  0.00000000000E+00 0. -1.
         23    2    1    2    0    0 -0.69701905437E+01  0.53673569100E+02  0.19728299331E+03  0.22439202527E+03  0.92205021434E+02 0.  0.
        -24    2    1    2    0    0  0.18997289723E+03 -0.40004179853E+02  0.89082271493E+03  0.91540747330E+03  0.81949354200E+02 0.  0.
         11    1    4    4    0    0  0.75179780053E+02 -0.56434098559E+02  0.43777729153E+03  0.44775636655E+03  0.00000000000E+00 0. -1.
        -12    1    4    4    0    0  0.11479311718E+03  0.16429918706E+02  0.45304542339E+03  0.46765110674E+03  0.00000000000E+00 0.  1.
        -11    1    3    3    0    0 -0.46312407873E+02  0.36843577346E+02  0.14639333371E+03  0.15790280704E+03  0.00000000000E+00 0.  1.
         11    1    3    3    0    0  0.39342217330E+02  0.16829991754E+02  0.50889659599E+02  0.66489218231E+02  0.00000000000E+00 0. -1.
          2    1    1    2  501    0 -0.18300270669E+03 -0.13669389247E+02 -0.13705066998E+03  0.22904088936E+03  0.00000000000E+00 0. -1.
<scales pt_clust_5="13000.00000" pt_clust_6="13000.00000" pt_clust_7="13000.00000" pt_clust_8="13000.00000" pt_clust_9="183.67428"></scales>
<clustering>
<clus scale="   81.949">  5  6 -1 -1</clus>
<clus scale="   92.205">  7  8 -1 -1</clus>
<clus scale="  106.917">  1  7  2 -1</clus>
<clus scale="  183.674">  2  9  1 -1</clus>
<clus scale="  183.674">  2  5  1 -1</clus>
</clustering>
</event>
<event>
 9    1  0.4067873E-005  0.1022546E+03  0.7546771E-02  0.1281244E+00
         -2   -1    0    0    0  501 -0.00000000000E+00  0.00000000000E+00  0.70592944335E+03  0.70592944335E+03  0.00000000000E+00 0.  1.
         21   -1    0    0  501  502  0.00000000000E+00 -0.00000000000E+00 -0.17567664271E+03  0.17567664271E+03  0.00000000000E+00 0.  1.
        -24    2    1    2    0    0  0.41568861895E+02  0.32916976120E+02  0.48038903185E+03  0.48991052087E+03  0.80169813125E+02 0.  0.
         23    2    1    2    0    0  0.22510062765E+01 -0.38293417365E+02  0.20633899917E+03  0.22911148020E+03  0.91895783043E+02 0.  0.
         11    1    3    3    0    0  0.42734988521E+02 -0.17142501554E+02  0.23038380795E+03  0.23494008506E+03  0.00000000000E+00 0. -1.
        -12    1    3    3    0    0 -0.11661266265E+01  0.50059477674E+02  0.25000522391E+03  0.25497043581E+03  0.00000000000E+00 0.  1.
        -13    1    4    4    0    0  0.29119918276E+02 -0.33415125813E+02  0.19425797263E+03  0.19925034555E+03  0.00000000000E+00 0.  1.
         13    1    4    4    0    0 -0.26868911999E+02 -0.48782915520E+01  0.12081026542E+02  0.29861134653E+02  0.00000000000E+00 0. -1.
         -1    1    1    2    0  502 -0.43819868171E+02  0.53764412453E+01 -0.15647523039E+03  0.16258408499E+03  0.00000000000E+00 0.  1.
<scales pt_clust_5="13000.00000" pt_clust_6="13000.00000" pt_clust_7="13000.00000" pt_clust_8="13000.00000" pt_clust_9="44.14847"></scales>
<clustering>
<clus scale="   44.148">  2  9  1 -1</clus>
<clus scale="   80.170">  5  6 -1 -1</clus>
<clus scale="   91.861">  1  5  2 -1</clus>
<clus scale="   91.896">  7  8 -1 -1</clus>
<clus scale="   44.148">  2  5  1 -1</clus>
</clustering>
</event>
<event>
 9    1  0.4067873E-005  0.9404517E+02  0.7546771E-02  0.1298674E+00
         -2   -1    0    0    0  501 -0.00000000000E+00  0.00000000000E+00  0.17575204013E+02  0.17575204013E+02  0.00000000000E+00 0.  1.
         21   -1    0    0  501  502  0.00000000000E+00 -0.00000000000E+00 -0.87699907463E+03  0.87699907463E+03  0.00000000000E+00 0.  1.
        -24    2    1    2    0    0  0.19086472668E+01 -0.17004360634E+00 -0.25863097855E+03  0.27127275279E+03  0.81824516446E+02 0.  0.
         23    2    1    2    0    0  0.14682431386E+02 -0.54768636809E+02 -0.35172430530E+03  0.36770676180E+03  0.91011528751E+02 0.  0.
         13    1    3    3    0    0 -0.30890101505E+02  0.18999039782E+02 -0.69805674892E+02  0.78663804451E+02  0.00000000000E+00 0. -1.
        -14    1    3    3    0    0  0.32798748771E+02 -0.19169083388E+02 -0.18882530366E+03  0.19260894834E+03  0.00000000000E+00 0.  1.
        -13    1    4    4    0    0 -0.17961104547E+02 -0.68990054658E+02 -0.24786277531E+03  0.25791119461E+03  0.00000000000E+00 0.  1.
         13    1    4    4    0    0  0.32643535933E+02  0.14221417849E+02 -0.10386152999E+03  0.10979556719E+03  0.00000000000E+00 0. -1.
         -1    1    1    2    0  502 -0.16591078653E+02  0.54938680415E+02 -0.24906858677E+03  0.25559476406E+03  0.00000000000E+00 0.  1.
<scales pt_clust_5="13000.00000" pt_clust_6="13000.00000" pt_clust_7="13000.00000" pt_clust_8="13000.00000" pt_clust_9="57.38922"></scales>
<clustering>
<clus scale="   57.389">  2  9  1 -1</clus>
<clus scale="   81.825">  5  6 -1 -1</clus>
<clus scale="   85.186">  1  5  2 -1</clus>
<clus scale="   91.012">  7  8 -1 -1</clus>
<clus scale="   57.389">  2  5  1 -1</clus>
</clustering>
</event>
<event>
 9    1  0.4067873E-005  0.1738720E+03  0.7546771E-02  0.1182382E+00
         -2   -1    0    0    0  501 -0.00000000000E+00  0.00000000000E+00  0.88910001971E+02  0.88910001971E+02  0.00000000000E+00 0.  1.
         21   -1    0    0  501  502  0.00000000000E+00 -0.00000000000E+00 -0.72692782512E+03  0.72692782512E+03  0.00000000000E+00 0.  1.
        -24    2    1    2    0    0  0.11777189773E+03 -0.18831518160E+02 -0.27489689714E+03  0.31009807662E+03  0.79797663485E+02 0.  0.
         23    2    1    2    0    0  0.25908593089E+02  0.13481518167E+03 -0.19912651548E+03  0.25877728302E+03  0.92021327064E+02 0.  0.
         13    1    3    3    0    0  0.75736634774E+02  0.22306283535E+02 -0.19892103493E+03  0.21401678969E+03  0.00000000000E+00 0. -1.
        -14    1    3    3    0    0  0.42035262954E+02 -0.41137801696E+02 -0.75975862207E+02  0.96081286930E+02  0.00000000000E+00 0.  1.
        -11    1    4    4    0    0  0.46998788878E+02  0.10577929692E+03 -0.98654010608E+02  0.15208799960E+03  0.00000000000E+00 0.  1.
         11    1    4    4    0    0 -0.21090195789E+02  0.29035884756E+02 -0.10047250488E+03  0.10668928343E+03  0.00000000000E+00 0. -1.
         -1    1    1    2    0  502 -0.14368049082E+03 -0.11598366351E+03 -0.16399441053E+03  0.24696246745E+03  0.00000000000E+00 0.  1.
<scales pt_clust_5="13000.00000" pt_clust_6="13000.00000" pt_clust_7="13000.00000" pt_clust_8="13000.00000" pt_clust_9="147.52484"></scales>
<clustering>
<clus scale="   79.798">  5  6 -1 -1</clus>
<clus scale="   92.021">  7  8 -1 -1</clus>
<clus scale="  143.501">  1  5  2 -1</clus>
<clus scale="  147.525">  2  9  1 -1</clus>
<clus scale="  147.525">  2  5  1 -1</clus>
</clustering>
</event>
<event>
 9    1  0.4067873E-005  0.1027079E+03  0.7546771E-02  0.1279921E+00
          1   -1    0    0  502    0 -0.00000000000E+00  0.00000000000E+00  0.23146918904E+03  0.23146918904E+03  0.00000000000E+00 0. -1.
         21   -1    0    0  501  502  0.00000000000E+00 -0.00000000000E+00 -0.12321107416E+03  0.12321107416E+03  0.00000000000E+00 0.  1.
        -24    2    1    2    0    0  0.51527647366E+02  0.68708968281E+01  0.12708014778E+03  0.15870289808E+03  0.79592325211E+02 0.  0.
         23    2    1    2    0    0 -0.29252186636E+02  0.64028315517E+02 -0.34651213919E+02  0.11999409437E+03  0.90788547996E+02 0.  0.
         11    1    3    3    0    0  0.15775377771E+02  0.42046511950E+02  0.59728524928E+02  0.74727962645E+02  0.00000000000E+00 0. -1.
        -12    1    3    3    0    0  0.35752269595E+02 -0.35175615121E+02  0.67351622856E+02  0.83974935438E+02  0.00000000000E+00 0.  1.
        -13    1    4    4    0    0 -0.43273853887E+02  0.81086886921E+02 -0.33690244768E+02  0.97891482026E+02  0.00000000000E+00 0.  1.
         13    1    4    4    0    0  0.14021667251E+02 -0.17058571404E+02 -0.96096915054E+00  0.22102612346E+02  0.00000000000E+00 0. -1.
          2    1    1    2  501    0 -0.22275460730E+02 -0.70899212345E+02  0.15829181015E+02  0.75983270748E+02  0.00000000000E+00 0. -1.
<scales pt_clust_5="13000.00000" pt_clust_6="13000.00000" pt_clust_7="13000.00000" pt_clust_8="13000.00000" pt_clust_9="74.31618"></scales>
<clustering>
<clus scale="   74.316">  2  9  1 -1</clus>
<clus scale="   79.592">  5  6 -1 -1</clus>
<clus scale="   90.789">  7  8 -1 -1</clus>
<clus scale="   92.959">  1  5  2 -1</clus>
<clus scale="   74.316">  2  5  1 -1</clus>
</clustering>
</event>
<event>
 9    1  0.4067873E-005  0.9556796E+02  0.7546771E-02  0.1292180E+00
         21   -1    0    0  501  502  0.00000000000E+00  0.00000000000E+00  0.57317886875E+03  0.57317886875E+03  0.00000000000E+00 0. -1.
         -4   -1    0    0    0  501 -0.00000000000E+00 -0.00000000000E+00 -0.43366425441E+02  0.43366425441E+02  0.00000000000E+00 0.  1.
         23    2    1    2    0    0 -0.11958449809E+02 -0.39278075236E+02  0.21641842692E+03  0.23646096800E+03  0.85971403173E+02 0.  0.
        -24    2    1    2    0    0 -0.60653344585E+02  0.33417856490E+02  0.28040907109E+03  0.30011669858E+03  0.81518122372E+02 0.  0.
         11    1    4    4    0    0 -0.80358188483E+02  0.29341758594E+02  0.20653168931E+03  0.22354801708E+03  0.00000000000E+00 0. -1.
        -12    1    4    4    0    0  0.19704843898E+02  0.40760978963E+01  0.73877381783E+02  0.76568681497E+02  0.00000000000E+00 0.  1.
        -11    1    3    3    0    0 -0.17299415764E+02  0.15819102053E+02  0.15612561552E+02  0.28164975656E+02  0.00000000000E+00 0.  1.
         11    1    3    3    0    0  0.53409659550E+01 -0.55097177289E+02  0.20080586536E+03  0.20829599235E+03  0.00000000000E+00 0. -1.
         -3    1    1    2    0  502  0.72611794394E+02  0.58602187461E+01  0.32984945303E+02  0.79967627610E+02  0.00000000000E+00 0.  1.
<scales pt_clust_5="13000.00000" pt_clust_6="13000.00000" pt_clust_7="13000.00000" pt_clust_8="13000.00000" pt_clust_9="72.84792"></scales>
<clustering>
<clus scale="   72.848">  1  9  2 -1</clus>
<clus scale="   81.518">  5  6 -1 -1</clus>
<clus scale="   85.971">  7  8 -1 -1</clus>
<clus scale="   91.583">  1  5  2 -1</clus>
<clus scale="   72.848">  1  5  2 -1</clus>
</clustering>
</event>
<event>
 9    1  0.4067873E-005  0.1263543E+03  0.7546771E-02  0.1238108E+00
          3   -1    0    0  502    0 -0.00000000000E+00  0.00000000000E+00  0.23673950946E+03  0.23673950946E+03  0.00000000000E+00 0. -1.
         21   -1    0    0  501  502  0.00000000000E+00 -0.00000000000E+00 -0.83565277763E+02  0.83565277763E+02  0.00000000000E+00 0.  1.
         23    2    1    2    0    0 -0.35194280742E+02  0.86408191577E+02  0.13363262334E+03  0.18611748072E+03  0.89872274033E+02 0.  0.
        -24    2    1    2    0    0  0.12595595112E+02 -0.80850874064E+02  0.93230792633E+01  0.10877072320E+03  0.71053765309E+02 0.  0.
         11    1    4    4    0    0 -0.87472148165E+01 -0.85904496609E+02  0.92000702415E+01  0.86837420488E+02  0.00000000000E+00 0. -1.
        -12    1    4    4    0    0  0.21342809928E+02  0.50536225451E+01  0.12300902177E+00  0.21933302708E+02  0.00000000000E+00 0.  1.
        -11    1    3    3    0    0  0.12459328084E+02  0.51987437385E+02  0.11085847062E+03  0.12307529813E+03  0.00000000000E+00 0. -1.
         11    1    3    3    0    0 -0.47653608826E+02  0.34420754191E+02  0.22774152721E+02  0.63042182588E+02  0.00000000000E+00 0.  1.
          4    1    1    2  501    0  0.22598685631E+02 -0.55573175130E+01  0.10218529093E+02  0.25416583307E+02  0.00000000000E+00 0. -1.
<scales pt_clust_5="13000.00000" pt_clust_6="13000.00000" pt_clust_7="13000.00000" pt_clust_8="13000.00000" pt_clust_9="23.27197"></scales>
<clustering>
<clus scale="   23.272">  2  9  1 -1</clus>
<clus scale="   71.054">  5  6 -1 -1</clus>
<clus scale="   89.872">  7  8 -1 -1</clus>
<clus scale="  113.741">  2  5  1 -1</clus>
<clus scale="   23.272">  2  5  1 -1</clus>
</clustering>
</event>
<event>
 9    1  0.4067873E-005  0.1357269E+03  0.7546771E-02  0.1221550E+00
         21   -1    0    0  501  502  0.00000000000E+00  0.00000000000E+00  0.31742411379E+02  0.31742411379E+02  0.00000000000E+00 0. -1.
          1   -1    0    0  502    0 -0.00000000000E+00 -0.00000000000E+00 -0.17150274010E+04  0.17150274010E+04  0.00000000000E+00 0. -1.
        -24    2    1    2    0    0  0.36109854252E+02  0.96440829614E+02 -0.31536055632E+03  0.34079561371E+03  0.78003939965E+02 0.  0.
         23    2    1    2    0    0  0.92937041232E+02 -0.11094777745E+02 -0.29968066853E+03  0.32658465324E+03  0.89936894087E+02 0.  0.
         13    1    3    3    0    0 -0.53171502219E+01  0.86385266899E+02 -0.20942646451E+03  0.22660567173E+03  0.00000000000E+00 0. -1.
        -14    1    3    3    0    0  0.41427004474E+02  0.10055562715E+02 -0.10593409181E+03  0.11418994198E+03  0.00000000000E+00 0.  1.
        -11    1    4    4    0    0  0.33601204548E+02  0.38074318314E+02 -0.14766315555E+03  0.15615089551E+03  0.00000000000E+00 0.  1.
         11    1    4    4    0    0  0.59335836684E+02 -0.49169096059E+02 -0.15201751298E+03  0.17043375773E+03  0.00000000000E+00 0. -1.
          2    1    1    2  501    0 -0.12904689548E+03 -0.85346051869E+02 -0.10682437648E+04  0.10793895454E+04  0.00000000000E+00 0. -1.
<scales pt_clust_5="13000.00000" pt_clust_6="13000.00000" pt_clust_7="13000.00000" pt_clust_8="13000.00000" pt_clust_9="101.65211"></scales>
<clustering>
<clus scale="   78.004">  5  6 -1 -1</clus>
<clus scale="   89.937">  7  8 -1 -1</clus>
<clus scale="  129.187">  2  5  1 -1</clus>
<clus scale="  101.652">  1  9  2 -1</clus>
<clus scale="  101.652">  1  5  2 -1</clus>
</clustering>
</event>
<event>
 9    1  0.4067873E-005  0.1165493E+03  0.7546771E-02  0.1252282E+00
         21   -1    0    0  501  502  0.00000000000E+00  0.00000000000E+00  0.31149175200E+03  0.31149175200E+03  0.00000000000E+00 0. -1.
          3   -1    0    0  502    0 -0.00000000000E+00 -0.00000000000E+00 -0.11166615313E+03  0.11166615313E+03  0.00000000000E+00 0. -1.
        -24    2    1    2    0    0 -0.61695392743E+02 -0.45810282736E+02  0.15828654013E+02  0.11257864998E+03  0.80737244530E+02 0.  0.
         23    2    1    2    0    0  0.89557619548E+02 -0.36813876327E+02  0.17955665410E+03  0.22327077030E+03  0.90738173480E+02 0.  0.
         11    1    3    3    0    0 -0.61052655874E+02  0.35318152697E+01  0.16073419955E+02  0.63231758931E+02  0.00000000000E+00 0. -1.
        -12    1    3    3    0    0 -0.64273686861E+00 -0.49342098006E+02 -0.24476594258E+00  0.49346891053E+02  0.00000000000E+00 0.  1.
        -13    1    4    4    0    0  0.28300659957E+02  0.15261382804E+02  0.70056337862E+01  0.32907690041E+02  0.00000000000E+00 0.  1.
         13    1    4    4    0    0  0.61256959591E+02 -0.52075259131E+02  0.17255102032E+03  0.19036308026E+03  0.00000000000E+00 0. -1.
          4    1    1    2  501    0 -0.27862226805E+02  0.82624159063E+02  0.44402907565E+01  0.87308484842E+02  0.00000000000E+00 0. -1.
<scales pt_clust_5="13000.00000" pt_clust_6="13000.00000" pt_clust_7="13000.00000" pt_clust_8="13000.00000" pt_clust_9="87.19554"></scales>
<clustering>
<clus scale="   80.737">  5  6 -1 -1</clus>
<clus scale="   87.196">  1  9  2 -1</clus>
<clus scale="   90.738">  7  8 -1 -1</clus>
<clus scale="  108.944">  2  5  1 -1</clus>
<clus scale="   87.196">  1  5  2 -1</clus>
</clustering>
</event>
<event>
 9    1  0.4067873E-005  0.9402699E+02  0.7546771E-02  0.1305611E+00
         -4   -1    0    0    0  501 -0.00000000000E+00  0.00000000000E+00  0.12521787942E+03  0.12521787942E+03  0.00000000000E+00 0.  1.
         21   -1    0    0  501  502  0.00000000000E+00 -0.00000000000E+00 -0.26044042015E+03  0.26044042015E+03  0.00000000000E+00 0.  1.
        -24    2    1    2    0    0 -0.55923852643E-01 -0.17010123288E+02  0.78299496921E+02  0.10810562486E+03  0.72571809174E+02 0.  0.
         23    2    1    2    0    0 -0.17952743000E+02  0.28296884926E+02 -0.45219470826E+02  0.10791347796E+03  0.92073359377E+02 0.  0.
         13    1    3    3    0    0 -0.31205695132E+02 -0.27400290296E+02  0.40040044327E+02  0.57686882968E+02  0.00000000000E+00 0. -1.
        -14    1    3    3    0    0  0.31149771279E+02  0.10390167008E+02  0.38259452595E+02  0.50418741893E+02  0.00000000000E+00 0.  1.
        -11    1    4    4    0    0  0.34946591339E+01 -0.21308810365E+02 -0.49193314843E+02  0.53723926391E+02  0.00000000000E+00 0. -1.
         11    1    4    4    0    0 -0.21447402133E+02  0.49605695290E+02  0.39738440172E+01  0.54189551574E+02  0.00000000000E+00 0.  1.
         -3    1    1    2    0  502  0.18008666852E+02 -0.11286761638E+02 -0.16830256683E+03  0.16963919674E+03  0.00000000000E+00 0.  1.
<scales pt_clust_5="13000.00000" pt_clust_6="13000.00000" pt_clust_7="13000.00000" pt_clust_8="13000.00000" pt_clust_9="21.25331"></scales>
<clustering>
<clus scale="   21.253">  2  9  1 -1</clus>
<clus scale="   72.572">  5  6 -1 -1</clus>
<clus scale="   75.035">  1  5  2 -1</clus>
<clus scale="   92.073">  7  8 -1 -1</clus>
<clus scale="   21.253">  2  5  1 -1</clus>
</clustering>
</event>
<event>
 9    1  0.4067873E-005  0.1150496E+03  0.7546771E-02  0.1263435E+00
          1   -1    0    0  502    0 -0.00000000000E+00  0.00000000000E+00  0.49417319763E+03  0.49417319763E+03  0.00000000000E+00 0. -1.
         21   -1    0    0  501  502  0.00000000000E+00 -0.00000000000E+00 -0.38445522975E+02  0.38445522975E+02  0.00000000000E+00 0. -1.
         23    2    1    2    0    0  0.40853850042E+02  0.22709470871E+02  0.36994480390E+03  0.38769803930E+03  0.10614073025E+03 0.  0.
        -24    2    1    2    0    0 -0.42939621388E+02 -0.18341295039E+00  0.82169382725E+02  0.12201149050E+03  0.79316780261E+02 0.  0.
         11    1    4    4    0    0 -0.39421224167E+02  0.26812197146E+02  0.81924026866E+02  0.94786460049E+02  0.00000000000E+00 0. -1.
        -12    1    4    4    0    0 -0.35183972214E+01 -0.26995610096E+02  0.24535585899E+00  0.27225030450E+02  0.00000000000E+00 0.  1.
        -11    1    3    3    0    0 -0.24774828367E+02  0.38157928665E+01  0.22753918818E+02  0.33853998544E+02  0.00000000000E+00 0.  1.
         11    1    3    3    0    0  0.65628678410E+02  0.18893678004E+02  0.34719088508E+03  0.35384404076E+03  0.00000000000E+00 0. -1.
          2    1    1    2  501    0  0.20857713461E+01 -0.22526057920E+02  0.36134880326E+01  0.22909190804E+02  0.00000000000E+00 0. -1.
<scales pt_clust_5="13000.00000" pt_clust_6="13000.00000" pt_clust_7="13000.00000" pt_clust_8="13000.00000" pt_clust_9="22.62242"></scales>
<clustering>
<clus scale="   22.622">  2  9  1 -1</clus>
<clus scale="   79.317">  5  6 -1 -1</clus>
<clus scale="   90.894">  2  5  1 -1</clus>
<clus scale="  106.141">  7  8 -1 -1</clus>
<clus scale="   22.622">  2  5  1 -1</clus>
</clustering>
</event>
<event>
 9    1  0.4067873E-005  0.1077262E+03  0.7546771E-02  0.1270267E+00
         21   -1    0    0  501  502  0.00000000000E+00  0.00000000000E+00  0.61564804048E+02  0.61564804048E+02  0.00000000000E+00 0.  1.
         -2   -1    0    0    0  501 -0.00000000000E+00 -0.00000000000E+00 -0.33378245204E+03  0.33378245204E+03  0.00000000000E+00 0.  1.
        -24    2    1    2    0    0  0.26859580233E+02 -0.23311180449E+02 -0.47308018514E+02  0.10020598097E+03  0.80860013742E+02 0.  0.
         23    2    1    2    0    0 -0.73450350334E+02  0.23093984693E+02 -0.85802059959E+02  0.14843864075E+03  0.93508023622E+02 0.  0.
         11    1    3    3    0    0  0.67101928892E+01  0.30295995728E+02 -0.15254714507E+02  0.34577165304E+02  0.00000000000E+00 0. -1.
        -12    1    3    3    0    0  0.20149387344E+02 -0.53607176177E+02 -0.32053304006E+02  0.65628815666E+02  0.00000000000E+00 0.  1.
        -13    1    4    4    0    0 -0.91944578155E+02  0.11008084808E+02 -0.85953931042E+02  0.12634501037E+03  0.00000000000E+00 0.  1.
         13    1    4    4    0    0  0.18494227821E+02  0.12085899885E+02  0.15187108312E+00  0.22093630384E+02  0.00000000000E+00 0. -1.
         -1    1    1    2    0  502  0.46590770101E+02  0.21719575601E+00 -0.13910756952E+03  0.14670263436E+03  0.00000000000E+00 0.  1.
<scales pt_clust_5="13000.00000" pt_clust_6="13000.00000" pt_clust_7="13000.00000" pt_clust_8="13000.00000" pt_clust_9="46.59130"></scales>
<clustering>
<clus scale="   46.591">  1  9  2 -1</clus>
<clus scale="   80.860">  5  6 -1 -1</clus>
<clus scale="   93.508">  7  8 -1 -1</clus>
<clus scale="   96.951">  2  5  1 -1</clus>
<clus scale="   46.591">  1  5  2 -1</clus>
</clustering>
</event>
<event>
 9    1  0.4067873E-005  0.1589043E+03  0.7546771E-02  0.1191718E+00
         21   -1    0    0  501  502  0.00000000000E+00  0.00000000000E+00  0.80360849263E+03  0.80360849263E+03  0.00000000000E+00 0. -1.
          1   -1    0    0  502    0 -0.00000000000E+00 -0.00000000000E+00 -0.49750743942E+02  0.49750743942E+02  0.00000000000E+00 0. -1.
        -24    2    1    2    0    0 -0.14595199465E+03 -0.38351457700E+01  0.23526476692E+03  0.28883255252E+03  0.82207297455E+02 0.  0.
         23    2    1    2    0    0  0.95944642320E+02  0.85589105419E+01  0.48723338568E+03  0.50531120037E+03  0.93082800570E+02 0.  0.
         13    1    3    3    0    0 -0.13136082953E+03  0.25398216612E+02  0.17505575629E+03  0.22032987712E+03  0.00000000000E+00 0. -1.
        -14    1    3    3    0    0 -0.14591165122E+02 -0.29233362382E+02  0.60209010627E+02  0.68502675396E+02  0.00000000000E+00 0.  1.
        -11    1    4    4    0    0 -0.59099733801E+01 -0.25453301128E+02  0.80098529430E+02  0.84253028079E+02  0.00000000000E+00 0.  1.
         11    1    4    4    0    0  0.10185461570E+03  0.34012211670E+02  0.40713485625E+03  0.42105817229E+03  0.00000000000E+00 0. -1.
          2    1    1    2  501    0  0.50007352328E+02 -0.47237647719E+01  0.31359596083E+02  0.59215483676E+02  0.00000000000E+00 0. -1.
<scales pt_clust_5="13000.00000" pt_clust_6="13000.00000" pt_clust_7="13000.00000" pt_clust_8="13000.00000" pt_clust_9="50.22999"></scales>
<clustering>
<clus scale="   50.230">  1  9  2 -1</clus>
<clus scale="   82.207">  5  6 -1 -1</clus>
<clus scale="   93.083">  7  8 -1 -1</clus>
<clus scale="  152.788">  2  5  1 -1</clus>
<clus scale="   50.230">  1  5  2 -1</clus>
</clustering>
</event>
<event>
 9    1  0.4067873E-005  0.1264200E+03  0.7546771E-02  0.1236798E+00
         21   -1    0    0  501  502  0.00000000000E+00  0.00000000000E+00  0.25313615702E+03  0.25313615702E+03  0.00000000000E+00 0.  1.
          1   -1    0    0  502    0 -0.00000000000E+00 -0.00000000000E+00 -0.13040328769E+03  0.13040328769E+03  0.00000000000E+00 0. -1.
        -24    2    1    2    0    0 -0.77364099354E+02  0.15361088187E+02 -0.57512925850E+02  0.12710902879E+03  0.81411311624E+02 0.  0.
         23    2    1    2    0    0  0.10299489488E+03 -0.29951373514E+01  0.10231617624E+03  0.17346729202E+03  0.94896692565E+02 0.  0.
         13    1    3    3    0    0 -0.73176700972E+02  0.28955914653E+02 -0.72101652228E+02  0.10673295092E+03  0.00000000000E+00 0. -1.
        -14    1    3    3    0    0 -0.41873983820E+01 -0.13594826466E+02  0.14588726378E+02  0.20376077866E+02  0.00000000000E+00 0.  1.
        -11    1    4    4    0    0  0.79085112299E+02  0.28240642558E+02  0.26507222103E+02  0.88060329905E+02  0.00000000000E+00 0.  1.
         11    1    4    4    0    0  0.23909782583E+02 -0.31235779909E+02  0.75808954138E+02  0.85406962112E+02  0.00000000000E+00 0. -1.
          2    1    1    2  501    0 -0.25630795528E+02 -0.12365950835E+02  0.77929618942E+02  0.82963123904E+02  0.00000000000E+00 0. -1.
<scales pt_clust_5="13000.00000" pt_clust_6="13000.00000" pt_clust_7="13000.00000" pt_clust_8="13000.00000" pt_clust_9="28.45794"></scales>
<clustering>
<clus scale="   28.458">  1  9  2 -1</clus>
<clus scale="   81.411">  5  6 -1 -1</clus>
<clus scale="   94.897">  7  8 -1 -1</clus>
<clus scale="  116.638">  2  5  1 -1</clus>
<clus scale="   28.458">  1  5  2 -1</clus>
</clustering>
</event>
<event>
 9    1  0.4067873E-005  0.9811335E+02  0.7546771E-02  0.1291434E+00
         21   -1    0    0  501  502  0.00000000000E+00  0.00000000000E+00  0.27614661154E+03  0.27614661154E+03  0.00000000000E+00 0. -1.
         -2   -1    0    0    0  501 -0.00000000000E+00 -0.00000000000E+00 -0.83741171609E+02  0.83741171609E+02  0.00000000000E+00 0.  1.
        -24    2    1    2    0    0 -0.64732662082E+01 -0.42655825623E+02  0.53728831939E+02  0.10568048655E+03  0.80125871108E+02 0.  0.
         23    2    1    2    0    0 -0.26387937899E+02  0.29615161104E+01  0.16872137165E+03  0.19455677467E+03  0.93168360909E+02 0.  0.
         11    1    3    3    0    0 -0.88439816044E+01 -0.50557155095E+02  0.70374802086E+02  0.87102552836E+02  0.00000000000E+00 0. -1.
        -12    1    3    3    0    0  0.23707153962E+01  0.79013294719E+01 -0.16645970147E+02  0.18577933713E+02  0.00000000000E+00 0.  1.
        -13    1    4    4    0    0  0.28310537308E+02 -0.75031831532E+00  0.11257683665E+03  0.11608442467E+03  0.00000000000E+00 0. -1.
         13    1    4    4    0    0 -0.54698475207E+02  0.37118344257E+01  0.56144535002E+02  0.78472350006E+02  0.00000000000E+00 0.  1.
         -1    1    1    2    0  502  0.32861204107E+02  0.39694309513E+02 -0.30044763659E+02  0.59650521929E+02  0.00000000000E+00 0.  1.
<scales pt_clust_5="13000.00000" pt_clust_6="13000.00000" pt_clust_7="13000.00000" pt_clust_8="13000.00000" pt_clust_9="51.53154"></scales>
<clustering>
<clus scale="   51.532">  1  9  2 -1</clus>
<clus scale="   80.126">  5  6 -1 -1</clus>
<clus scale="   85.826">  2  5  1 -1</clus>
<clus scale="   93.168">  7  8 -1 -1</clus>
<clus scale="   51.532">  1  5  2 -1</clus>
</clustering>
</event>
<event>
 9    1  0.4067873E-005  0.1520843E+03  0.7546771E-02  0.1225421E+00
         -2   -1    0    0    0  501 -0.00000000000E+00  0.00000000000E+00  0.57480722630E+02  0.57480722630E+02  0.00000000000E+00 0.  1.
         21   -1    0    0  501  502  0.00000000000E+00 -0.00000000000E+00 -0.73993586695E+03  0.73993586695E+03  0.00000000000E+00 0. -1.
        -24    2    1    2    0    0  0.72759937191E+01 -0.32785926968E+02 -0.11782809664E+03  0.14511112198E+03  0.77755516027E+02 0.  0.
         23    2    1    2    0    0  0.10229133265E+03  0.69259137620E+02 -0.49246731423E+03  0.51613527543E+03  0.92796670648E+02 0.  0.
         11    1    3    3    0    0 -0.46571289155E+00 -0.47142608269E+02 -0.30223303653E+02  0.56000807910E+02  0.00000000000E+00 0. -1.
        -12    1    3    3    0    0  0.77417066107E+01  0.14356681301E+02 -0.87604792986E+02  0.89110314068E+02  0.00000000000E+00 0.  1.
        -13    1    4    4    0    0  0.50273808646E+01  0.40465232388E+02 -0.64478975886E+02  0.76290549361E+02  0.00000000000E+00 0. -1.
         13    1    4    4    0    0  0.97263951787E+02  0.28793905232E+02 -0.42798833834E+03  0.43984472607E+03  0.00000000000E+00 0.  1.
         -1    1    1    2    0  502 -0.10956732637E+03 -0.36473210652E+02 -0.72159733453E+02  0.13617019217E+03  0.00000000000E+00 0.  1.
<scales pt_clust_5="13000.00000" pt_clust_6="13000.00000" pt_clust_7="13000.00000" pt_clust_8="13000.00000" pt_clust_9="120.49249"></scales>
<clustering>
<clus scale="   77.756">  5  6 -1 -1</clus>
<clus scale="   84.698">  1  5  2 -1</clus>
<clus scale="   92.797">  7  8 -1 -1</clus>
<clus scale="  120.492">  2  9  1 -1</clus>
<clus scale="  120.492">  2  5  1 -1</clus>
</clustering>
</event>
<event>
 9    1  0.4067873E-005  0.1242988E+03  0.7546771E-02  0.1256338E+00
         -4   -1    0    0    0  501 -0.00000000000E+00  0.00000000000E+00  0.88052497783E+02  0.88052497783E+02  0.00000000000E+00 0.  1.
         21   -1    0    0  501  502  0.00000000000E+00 -0.00000000000E+00 -0.34038734517E+03  0.34038734517E+03  0.00000000000E+00 0.  1.
        -24    2    1    2    0    0 -0.24534828690E+01  0.22261260009E+02 -0.61701229963E+02  0.10331576984E+03  0.79784229285E+02 0.  0.
         23    2    1    2    0    0  0.18798279205E+02  0.78198411988E+02 -0.18799310789E+03  0.22330919034E+03  0.89762012767E+02 0.  0.
         13    1    3    3    0    0  0.14259434287E+02  0.42459961027E+02 -0.10821781979E+02  0.46079178832E+02  0.00000000000E+00 0. -1.
        -14    1    3    3    0    0 -0.16712917156E+02 -0.20198701018E+02 -0.50879447984E+02  0.57236591005E+02  0.00000000000E+00 0.  1.
        -13    1    4    4    0    0  0.18968717995E+01  0.57072621613E+02 -0.32961013925E+02  0.65934139104E+02  0.00000000000E+00 0. -1.
         13    1    4    4    0    0  0.16901407405E+02  0.21125790376E+02 -0.15503209397E+03  0.15737505124E+03  0.00000000000E+00 0.  1.
         -3    1    1    2    0  502 -0.16344796336E+02 -0.10045967200E+03 -0.26405095339E+01  0.10181488278E+03  0.00000000000E+00 0.  1.
<scales pt_clust_5="13000.00000" pt_clust_6="13000.00000" pt_clust_7="13000.00000" pt_clust_8="13000.00000" pt_clust_9="85.98241"></scales>
<clustering>
<clus scale="   79.784">  5  6 -1 -1</clus>
<clus scale="   82.868">  1  5  2 -1</clus>
<clus scale="   85.982">  2  9  1 -1</clus>
<clus scale="   89.762">  7  8 -1 -1</clus>
<clus scale="   85.982">  2  5  1 -1</clus>
</clustering>
</event>
<event>
 9    1  0.4067873E-005  0.1064417E+03  0.7546771E-02  0.1271414E+00
         -2   -1    0    0    0  501 -0.00000000000E+00  0.00000000000E+00  0.15565408475E+03  0.15565408475E+03  0.00000000000E+00 0.  1.
         21   -1    0    0  501  502  0.00000000000E+00 -0.00000000000E+00 -0.13093148604E+03  0.13093148604E+03  0.00000000000E+00 0.  1.
        -24    2    1    2    0    0  0.35112338682E+02 -0.36182943113E+02  0.72335806031E+02  0.11965246498E+03  0.80883631483E+02 0.  0.
         23    2    1    2    0    0 -0.29503780349E+02  0.67125257137E+02 -0.86662726060E+01  0.11687567432E+03  0.90601025195E+02 0.  0.
         13    1    3    3    0    0 -0.23740329311E+02  0.34238821946E+01  0.13739686557E+02  0.27642452709E+02  0.00000000000E+00 0. -1.
        -14    1    3    3    0    0  0.58852667994E+02 -0.39606825307E+02  0.58596119474E+02  0.92010012272E+02  0.00000000000E+00 0.  1.
        -11    1    4    4    0    0 -0.41073206220E+02  0.27417267660E+02  0.32022538369E+02  0.58857096418E+02  0.00000000000E+00 0.  1.
         11    1    4    4    0    0  0.11569425871E+02  0.39707989477E+02 -0.40688810975E+02  0.58018577903E+02  0.00000000000E+00 0. -1.
         -1    1    1    2    0  502 -0.56085583337E+01 -0.30942314024E+02 -0.38946934718E+02  0.50057431493E+02  0.00000000000E+00 0.  1.
<scales pt_clust_5="13000.00000" pt_clust_6="13000.00000" pt_clust_7="13000.00000" pt_clust_8="13000.00000" pt_clust_9="31.44651"></scales>
<clustering>
<clus scale="   31.447">  2  9  1 -1</clus>
<clus scale="   80.884">  5  6 -1 -1</clus>
<clus scale="   90.601">  7  8 -1 -1</clus>
<clus scale="   98.303">  1  5  2 -1</clus>
<clus scale="   31.447">  2  5  1 -1</clus>
</clustering>
</event>
<event>
 9    1  0.4067873E-005  0.8889066E+02  0.7546771E-02  0.1310975E+00
         -2   -1    0    0    0  501 -0.00000000000E+00  0.00000000000E+00  0.81044738358E+02  0.81044738358E+02  0.00000000000E+00 0.  1.
         21   -1    0    0  501  502  0.00000000000E+00 -0.00000000000E+00 -0.27055966099E+03  0.27055966099E+03  0.00000000000E+00 0. -1.
         23    2    1    2    0    0 -0.56496623513E+01  0.57344590954E+01  0.35751719721E+02  0.95365080888E+02  0.88042662863E+02 0.  0.
        -24    2    1    2    0    0  0.77767663527E+01 -0.33586273517E+02 -0.12501841443E+03  0.15217224710E+03  0.79613271378E+02 0.  0.
         13    1    4    4    0    0 -0.25036499452E+02 -0.42204976413E+02 -0.51136984067E+02  0.70873672674E+02  0.00000000000E+00 0. -1.
        -14    1    4    4    0    0  0.32813265805E+02  0.86187028969E+01 -0.73881430359E+02  0.81298574430E+02  0.00000000000E+00 0.  1.
        -11    1    3    3    0    0  0.28878133377E+02  0.16720937261E+02  0.46805468189E+02  0.57482938188E+02  0.00000000000E+00 0.  1.
         11    1    3    3    0    0 -0.34527795729E+02 -0.10986478166E+02 -0.11053748468E+02  0.37882142700E+02  0.00000000000E+00 0. -1.
         -1    1    1    2    0  502 -0.21271040014E+01  0.27851814421E+02 -0.10024822793E+03  0.10406707136E+03  0.00000000000E+00 0.  1.
<scales pt_clust_5="13000.00000" pt_clust_6="13000.00000" pt_clust_7="13000.00000" pt_clust_8="13000.00000" pt_clust_9="27.93292"></scales>
<clustering>
<clus scale="   27.933">  2  9  1 -1</clus>
<clus scale="   79.613">  5  6 -1 -1</clus>
<clus scale="   80.550">  2  5  1 -1</clus>
<clus scale="   88.043">  7  8 -1 -1</clus>
<clus scale="   27.933">  2  5  1 -1</clus>
</clustering>
</event>
<event>
 9    1  0.4067873E-005  0.1033980E+03  0.7546771E-02  0.1277356E+00
          1   -1    0    0  502    0 -0.00000000000E+00  0.00000000000E+00  0.38254840294E+03  0.38254840294E+03  0.00000000000E+00 0. -1.
         21   -1    0    0  501  502  0.00000000000E+00 -0.00000000000E+00 -0.17729896758E+03  0.17729896758E+03  0.00000000000E+00 0.  1.
        -24    2    1    2    0    0  0.95760119191E+00 -0.49070327488E+02  0.28088758269E+03  0.29695993803E+03  0.82937064381E+02 0.  0.
         23    2    1    2    0    0 -0.59948967816E+02  0.18276636546E+02 -0.13421550694E+03  0.17423338691E+03  0.91736342986E+02 0.  0.
         13    1    3    3    0    0  0.73777305710E+01 -0.66039039447E+02  0.26378858188E+03  0.27202941306E+03  0.00000000000E+00 0. -1.
        -14    1    3    3    0    0 -0.64201293791E+01  0.16968711959E+02  0.17099000809E+02  0.24930524973E+02  0.00000000000E+00 0.  1.
        -13    1    4    4    0    0 -0.74349623676E+01 -0.23170157257E+02 -0.91916784897E+02  0.95083280331E+02  0.00000000000E+00 0. -1.
         13    1    4    4    0    0 -0.52514005449E+02  0.41446793803E+02 -0.42298722047E+02  0.79150106580E+02  0.00000000000E+00 0.  1.
          2    1    1    2  501    0  0.58991366624E+02  0.30793690942E+02  0.58577359618E+02  0.88654045581E+02  0.00000000000E+00 0. -1.
<scales pt_clust_5="13000.00000" pt_clust_6="13000.00000" pt_clust_7="13000.00000" pt_clust_8="13000.00000" pt_clust_9="66.54500"></scales>
<clustering>
<clus scale="   66.545">  2  9  1 -1</clus>
<clus scale="   82.937">  5  6 -1 -1</clus>
<clus scale="   91.736">  7  8 -1 -1</clus>
<clus scale="   95.677">  1  5  2 -1</clus>
<clus scale="   66.545">  2  5  1 -1</clus>
</clustering>
</event>
<event>
 9    1  0.4067873E-005  0.9740940E+02  0.7546771E-02  0.1292587E+00
          1   -1    0    0  502    0 -0.00000000000E+00  0.00000000000E+00  0.47753482827E+03  0.47753482827E+03  0.00000000000E+00 0. -1.
         21   -1    0    0  501  502  0.00000000000E+00 -0.00000000000E+00 -0.11971716342E+03  0.11971716342E+03  0.00000000000E+00 0. -1.
        -24    2    1    2    0    0  0.42894406561E+02  0.28433227647E+02  0.34546593331E+03  0.35802864973E+03  0.78672894971E+02 0.  0.
         23    2    1    2    0    0  0.45090818232E+02 -0.96602683638E+00  0.76206754600E+02  0.12709256620E+03  0.91164334257E+02 0.  0.
         11    1    3    3    0    0  0.50598469342E+02  0.42257220119E+02  0.32757534990E+03  0.33414291495E+03  0.00000000000E+00 0. -1.
        -12    1    3    3    0    0 -0.77040627810E+01 -0.13823992472E+02  0.17890583412E+02  0.23885734781E+02  0.00000000000E+00 0.  1.
        -11    1    4    4    0    0  0.69094274643E+02  0.14001261980E+02  0.67226330450E+02  0.97413724040E+02  0.00000000000E+00 0. -1.
         11    1    4    4    0    0 -0.24003456411E+02 -0.14967288816E+02  0.89804241496E+01  0.29678842162E+02  0.00000000000E+00 0.  1.
          2    1    1    2  501    0 -0.87985224793E+02 -0.27467200810E+02 -0.63855023060E+02  0.11213077576E+03  0.00000000000E+00 0. -1.
<scales pt_clust_5="13000.00000" pt_clust_6="13000.00000" pt_clust_7="13000.00000" pt_clust_8="13000.00000" pt_clust_9="92.17292"></scales>
<clustering>
<clus scale="   78.673">  5  6 -1 -1</clus>
<clus scale="   91.164">  7  8 -1 -1</clus>
<clus scale="   92.173">  2  9  1 -1</clus>
<clus scale="   85.832">  1  5  2 -1</clus>
<clus scale="   92.173">  2  5  1 -1</clus>
</clustering>
</event>
<event>
 9    1  0.4067873E-005  0.1337115E+03  0.7546771E-02  0.1246437E+00
          1   -1    0    0  502    0 -0.00000000000E+00  0.00000000000E+00  0.54309673073E+02  0.54309673073E+02  0.00000000000E+00 0. -1.
         21   -1    0    0  501  502  0.00000000000E+00 -0.00000000000E+00 -0.65248994504E+03  0.65248994504E+03  0.00000000000E+00 0.  1.
        -24    2    1    2    0    0  0.11667876516E+02 -0.10343393327E+02 -0.12175420447E+03  0.14628851140E+03  0.79580884217E+02 0.  0.
         23    2    1    2    0    0  0.18325058354E+02 -0.89152670171E+02 -0.42430728815E+03  0.44425531135E+03  0.95089960177E+02 0.  0.
         13    1    3    3    0    0  0.16294650427E+02  0.31773311493E+02 -0.75757448859E+02  0.83751119475E+02  0.00000000000E+00 0. -1.
        -14    1    3    3    0    0 -0.46267739111E+01 -0.42116704819E+02 -0.45996755614E+02  0.62537391924E+02  0.00000000000E+00 0.  1.
        -11    1    4    4    0    0  0.38676788254E+02 -0.90783413700E+02 -0.40234282417E+03  0.41426714848E+03  0.00000000000E+00 0.  1.
         11    1    4    4    0    0 -0.20351729900E+02  0.16307435286E+01 -0.21964463982E+02  0.29988162871E+02  0.00000000000E+00 0. -1.
          2    1    1    2  501    0 -0.29992934870E+02  0.99496063498E+02 -0.52118779338E+02  0.11625579535E+03  0.00000000000E+00 0. -1.
<scales pt_clust_5="13000.00000" pt_clust_6="13000.00000" pt_clust_7="13000.00000" pt_clust_8="13000.00000" pt_clust_9="94.00361"></scales>
<clustering>
<clus scale="   79.581">  5  6 -1 -1</clus>
<clus scale="   81.094">  1  5  2 -1</clus>
<clus scale="   94.004">  2  9  1 -1</clus>
<clus scale="   95.090">  7  8 -1 -1</clus>
<clus scale="   94.004">  2  5  1 -1</clus>
</clustering>
</event>
<event>
 9    1  0.4067873E-005  0.1206380E+03  0.7546771E-02  0.1254612E+00
         21   -1    0    0  501  502  0.00000000000E+00  0.00000000000E+00  0.38125871604E+02  0.38125871604E+02  0.00000000000E+00 0.  1.
          3   -1    0    0  502    0 -0.00000000000E+00 -0.00000000000E+00 -0.60574374114E+03  0.60574374114E+03  0.00000000000E+00 0. -1.
        -24    2    1    2    0    0 -0.42810959476E+02 -0.13427701475E+02 -0.22085997285E+03  0.23925293916E+03  0.80310397011E+02 0.  0.
         23    2    1    2    0    0  0.58660265715E+02 -0.55583752524E+02 -0.21117988044E+03  0.25166184437E+03  0.11048149932E+03 0.  0.
         13    1    3    3    0    0 -0.45439876664E+02  0.24709973863E+02 -0.15106223307E+03  0.15967204971E+03  0.00000000000E+00 0. -1.
        -14    1    3    3    0    0  0.26289171880E+01 -0.38137675338E+02 -0.69797739787E+02  0.79580889447E+02  0.00000000000E+00 0.  1.
        -13    1    4    4    0    0 -0.20594490180E+02 -0.52169761196E+02 -0.69751976540E+02  0.89505057066E+02  0.00000000000E+00 0.  1.
         13    1    4    4    0    0  0.79254755895E+02 -0.34139913284E+01 -0.14142790390E+03  0.16215678731E+03  0.00000000000E+00 0. -1.
          4    1    1    2  501    0 -0.15849306238E+02  0.69011453999E+02 -0.13557801624E+03  0.15295482921E+03  0.00000000000E+00 0. -1.
<scales pt_clust_5="13000.00000" pt_clust_6="13000.00000" pt_clust_7="13000.00000" pt_clust_8="13000.00000" pt_clust_9="70.80809"></scales>
<clustering>
<clus scale="   70.808">  1  9  2 -1</clus>
<clus scale="   80.310">  5  6 -1 -1</clus>
<clus scale="   93.793">  2  5  1 -1</clus>
<clus scale="  110.481">  7  8 -1 -1</clus>
<clus scale="   70.808">  1  5  2 -1</clus>
</clustering>
</event>
<event>
 9    1  0.4067873E-005  0.8669229E+02  0.7546771E-02  0.1316443E+00
         21   -1    0    0  501  502  0.00000000000E+00  0.00000000000E+00  0.30062080927E+03  0.30062080927E+03  0.00000000000E+00 0.  1.
         -4   -1    0    0    0  501 -0.00000000000E+00 -0.00000000000E+00 -0.16378719021E+03  0.16378719021E+03  0.00000000000E+00 0.  1.
        -24    2    1    2    0    0  0.16914935451E+02 -0.23073832680E+02 -0.13019227071E+03  0.15250429047E+03  0.74087883382E+02 0.  0.
         23    2    1    2    0    0 -0.24448795676E+02 -0.75553708401E+01  0.66864228668E+02  0.10927202901E+03  0.82551341660E+02 0.  0.
         11    1    3    3    0    0 -0.23296787229E+02  0.41600334198E+00 -0.13655887657E+02  0.27007343847E+02  0.00000000000E+00 0. -1.
        -12    1    3    3    0    0  0.40211722679E+02 -0.23489836022E+02 -0.11653638306E+03  0.12549694663E+03  0.00000000000E+00 0.  1.
        -11    1    4    4    0    0 -0.40018250264E+02 -0.23295653511E+02  0.72865138086E+02  0.86333517101E+02  0.00000000000E+00 0.  1.
         11    1    4    4    0    0  0.15569454588E+02  0.15740282671E+02 -0.60009094176E+01  0.22938511908E+02  0.00000000000E+00 0. -1.
         -3    1    1    2    0  502  0.75338602256E+01  0.30629203520E+02  0.20016166111E+03  0.20263167999E+03  0.00000000000E+00 0.  1.
<scales pt_clust_5="13000.00000" pt_clust_6="13000.00000" pt_clust_7="13000.00000" pt_clust_8="13000.00000" pt_clust_9="31.54215"></scales>
<clustering>
<clus scale="   31.542">  1  9  2 -1</clus>
<clus scale="   74.088">  5  6 -1 -1</clus>
<clus scale="   78.676">  2  5  1 -1</clus>
<clus scale="   82.551">  7  8 -1 -1</clus>
<clus scale="   31.542">  1  5  2 -1</clus>
</clustering>
</event>
<event>
 9    1  0.4067873E-005  0.1720730E+03  0.7546771E-02  0.1177344E+00
          1   -1    0    0  502    0 -0.00000000000E+00  0.00000000000E+00  0.41161411499E+03  0.41161411499E+03  0.00000000000E+00 0. -1.
         21   -1    0    0  501  502  0.00000000000E+00 -0.00000000000E+00 -0.84170736522E+02  0.84170736522E+02  0.00000000000E+00 0.  1.
        -24    2    1    2    0    0 -0.11862288748E+03  0.87574212584E+02  0.20946067240E+03  0.27588160962E+03  0.10245124255E+03 0.  0.
         23    2    1    2    0    0  0.10183757354E+03 -0.72401058797E+02  0.76735206622E+02  0.17285722644E+03  0.91534278259E+02 0.  0.
         11    1    3    3    0    0 -0.84066973310E+02  0.38703937768E+02  0.19262665721E+03  0.21370605950E+03  0.00000000000E+00 0. -1.
        -12    1    3    3    0    0 -0.34555914172E+02  0.48870274816E+02  0.16834015191E+02  0.62175550117E+02  0.00000000000E+00 0.  1.
        -11    1    4    4    0    0  0.62239739914E+02 -0.53255139285E+02 -0.28095373880E+01  0.81962116768E+02  0.00000000000E+00 0.  1.
         11    1    4    4    0    0  0.39597833625E+02 -0.19145919512E+02  0.79544744010E+02  0.90895109667E+02  0.00000000000E+00 0. -1.
          2    1    1    2  501    0  0.16785313943E+02 -0.15173153787E+02  0.41247499438E+02  0.47046015452E+02  0.00000000000E+00 0. -1.
<scales pt_clust_5="13000.00000" pt_clust_6="13000.00000" pt_clust_7="13000.00000" pt_clust_8="13000.00000" pt_clust_9="22.62680"></scales>
<clustering>
<clus scale="   22.627">  2  9  1 -1</clus>
<clus scale="   91.534">  7  8 -1 -1</clus>
<clus scale="  102.451">  5  6 -1 -1</clus>
<clus scale="  165.805">  2  7  1 -1</clus>
<clus scale="   22.627">  2  5  1 -1</clus>
</clustering>
</event>
<event>
 9    1  0.4067873E-005  0.9959674E+02  0.7546771E-02  0.1287216E+00
         21   -1    0    0  501  502  0.00000000000E+00  0.00000000000E+00  0.31306455811E+02  0.31306455811E+02  0.00000000000E+00 0. -1.
         -2   -1    0    0    0  501 -0.00000000000E+00 -0.00000000000E+00 -0.41683151228E+03  0.41683151228E+03  0.00000000000E+00 0.  1.
         23    2    1    2    0    0 -0.26433127574E+02  0.17855383250E+02 -0.23502855022E+03  0.25425923821E+03  0.91606854849E+02 0.  0.
        -24    2    1    2    0    0  0.50988876220E+02 -0.12112784722E+02 -0.13067537122E+03  0.16180319990E+03  0.79734796685E+02 0.  0.
         13    1    4    4    0    0  0.21291605174E+02  0.21013720362E+01  0.51817608323E+01  0.22013606262E+02  0.00000000000E+00 0. -1.
        -14    1    4    4    0    0  0.29697271046E+02 -0.14214156759E+02 -0.13585713205E+03  0.13978959364E+03  0.00000000000E+00 0.  1.
        -11    1    3    3    0    0  0.94803907890E+01 -0.26845202860E+02 -0.14316781773E+03  0.14597111618E+03  0.00000000000E+00 0.  1.
         11    1    3    3    0    0 -0.35913518363E+02  0.44700586110E+02 -0.91860732485E+02  0.10828812203E+03  0.00000000000E+00 0. -1.
         -1    1    1    2    0  502 -0.24555748646E+02 -0.57425985277E+01 -0.19821135033E+02  0.32075529979E+02  0.00000000000E+00 0.  1.
<scales pt_clust_5="13000.00000" pt_clust_6="13000.00000" pt_clust_7="13000.00000" pt_clust_8="13000.00000" pt_clust_9="25.21829"></scales>
<clustering>
<clus scale="   25.218">  1  9  2 -1</clus>
<clus scale="   79.735">  5  6 -1 -1</clus>
<clus scale="   88.799">  1  5  2 -1</clus>
<clus scale="   91.607">  7  8 -1 -1</clus>
<clus scale="   25.218">  1  5  2 -1</clus>
</clustering>
</event>
<event>
 9    1  0.4067873E-005  0.9369523E+02  0.7546771E-02  0.1302751E+00
         21   -1    0    0  501  502  0.00000000000E+00  0.00000000000E+00  0.98382367772E+02  0.98382367772E+02  0.00000000000E+00 0. -1.
          1   -1    0    0  502    0 -0.00000000000E+00 -0.00000000000E+00 -0.17881799919E+03  0.17881799919E+03  0.00000000000E+00 0. -1.
         23    2    1    2    0    0  0.31024845968E+00  0.62908722308E+00 -0.12603811930E+03  0.15696528033E+03  0.93552122945E+02 0.  0.
        -24    2    1    2    0    0 -0.16876459760E+02  0.16463100135E+02  0.20511141701E+02  0.85649571181E+02  0.79745178848E+02 0.  0.
         11    1    4    4    0    0 -0.35640940851E+02  0.39439975931E+02  0.16817652406E+02  0.55755015906E+02  0.00000000000E+00 0. -1.
        -12    1    4    4    0    0  0.18764481091E+02 -0.22976875796E+02  0.36934892946E+01  0.29894555276E+02  0.00000000000E+00 0.  1.
        -13    1    3    3    0    0  0.36760562147E+01  0.26912348634E+02  0.10122384597E+01  0.27181106029E+02  0.00000000000E+00 0.  1.
         13    1    3    3    0    0 -0.33658077550E+01 -0.26283261410E+02 -0.12705035776E+03  0.12978417430E+03  0.00000000000E+00 0. -1.
          2    1    1    2  501    0  0.16566211300E+02 -0.17092187358E+02  0.25091346183E+02  0.34585515448E+02  0.00000000000E+00 0. -1.
<scales pt_clust_5="13000.00000" pt_clust_6="13000.00000" pt_clust_7="13000.00000" pt_clust_8="13000.00000" pt_clust_9="23.80299"></scales>
<clustering>
<clus scale="   23.803">  1  9  2 -1</clus>
<clus scale="   79.745">  5  6 -1 -1</clus>
<clus scale="   79.913">  1  5  2 -1</clus>
<clus scale="   93.552">  7  8 -1 -1</clus>
<clus scale="   23.803">  1  5  2 -1</clus>
</clustering>
</event>
<event>
 9    1  0.4067873E-005  0.9733114E+02  0.7546771E-02  0.1292305E+00
         -4   -1    0    0    0  501 -0.00000000000E+00  0.00000000000E+00  0.44461277727E+03  0.44461277727E+03  0.00000000000E+00 0.  1.
         21   -1    0    0  501  502  0.00000000000E+00 -0.00000000000E+00 -0.73740341463E+02  0.73740341463E+02  0.00000000000E+00 0. -1.
        -24    2    1    2    0    0  0.18812411869E+02  0.28314799954E+02  0.37666750061E+03  0.38658301671E+03  0.80077387914E+02 0.  0.
         23    2    1    2    0    0 -0.33351483473E+02 -0.17098845563E+01  0.90934178985E+01  0.97993289800E+02  0.91677420567E+02 0.  0.
         13    1    3    3    0    0  0.42592521216E+02  0.40357025530E+02  0.22135001095E+03  0.22899484650E+03  0.00000000000E+00 0. -1.
        -14    1    3    3    0    0 -0.23780109347E+02 -0.12042225577E+02  0.15531748966E+03  0.15758817021E+03  0.00000000000E+00 0.  1.
        -13    1    4    4    0    0  0.25975795610E+02 -0.11853508939E+01  0.25517853592E+02  0.36432236635E+02  0.00000000000E+00 0. -1.
         13    1    4    4    0    0 -0.59327279083E+02 -0.52453366247E+00 -0.16424435693E+02  0.61561053165E+02  0.00000000000E+00 0.  1.
         -3    1    1    2    0  502  0.14539071604E+02 -0.26604915397E+02 -0.14888482707E+02  0.33776812220E+02  0.00000000000E+00 0.  1.
<scales pt_clust_5="13000.00000" pt_clust_6="13000.00000" pt_clust_7="13000.00000" pt_clust_8="13000.00000" pt_clust_9="30.31841"></scales>
<clustering>
<clus scale="   30.318">  2  9  1 -1</clus>
<clus scale="   80.077">  5  6 -1 -1</clus>
<clus scale="   86.493">  1  5  2 -1</clus>
<clus scale="   91.677">  7  8 -1 -1</clus>
<clus scale="   30.318">  2  5  1 -1</clus>
</clustering>
</event>
<event>
 9    1  0.4067873E-005  0.1322360E+03  0.7546771E-02  0.1225529E+00
         21   -1    0    0  501  502  0.00000000000E+00  0.00000000000E+00  0.40937638388E+03  0.40937638388E+03  0.00000000000E+00 0.  1.
          1   -1    0    0  502    0 -0.00000000000E+00 -0.00000000000E+00 -0.58600861469E+02  0.58600861469E+02  0.00000000000E+00 0. -1.
         23    2    1    2    0    0 -0.96177135958E+02 -0.48307277826E+02  0.12992443192E+03  0.19174247719E+03  0.91110838969E+02 0.  0.
        -24    2    1    2    0    0  0.56665328415E+02  0.62550419106E+02  0.18677082594E+03  0.22214674323E+03  0.85687337047E+02 0.  0.
         11    1    4    4    0    0  0.26064126458E+02  0.62829746331E+02  0.56788856832E+02  0.88610890822E+02  0.00000000000E+00 0. -1.
        -12    1    4    4    0    0  0.30601201957E+02 -0.27932722515E+00  0.12998196911E+03  0.13353585240E+03  0.00000000000E+00 0.  1.
        -11    1    3    3    0    0 -0.10284298769E+03 -0.13759347662E+02  0.11038739874E+03  0.15149712065E+03  0.00000000000E+00 0.  1.
         11    1    3    3    0    0  0.66658517285E+01 -0.34547930163E+02  0.19537033187E+02  0.40245356547E+02  0.00000000000E+00 0. -1.
          2    1    1    2  501    0  0.39511807543E+02 -0.14243141280E+02  0.34080264549E+02  0.54088024928E+02  0.00000000000E+00 0. -1.
<scales pt_clust_5="13000.00000" pt_clust_6="13000.00000" pt_clust_7="13000.00000" pt_clust_8="13000.00000" pt_clust_9="42.00062"></scales>
<clustering>
<clus scale="   42.001">  1  9  2 -1</clus>
<clus scale="   85.687">  5  6 -1 -1</clus>
<clus scale="   91.111">  7  8 -1 -1</clus>
<clus scale="  128.559">  1  5  2 -1</clus>
<clus scale="   42.001">  1  5  2 -1</clus>
</clustering>
</event>
<event>
 9    1  0.4067873E-005  0.2896509E+03  0.7546771E-02  0.1091387E+00
         21   -1    0    0  501  502  0.00000000000E+00  0.00000000000E+00  0.21741819427E+03  0.21741819427E+03  0.00000000000E+00 0.  1.
         -4   -1    0    0    0  501 -0.00000000000E+00 -0.00000000000E+00 -0.46795245987E+03  0.46795245987E+03  0.00000000000E+00 0.  1.
        -24    2    1    2    0    0 -0.16056597119E+03  0.21223078564E+03 -0.14692856777E+03  0.31122274214E+03  0.66695230109E+02 0.  0.
         23    2    1    2    0    0  0.16951214308E+03 -0.23527179166E+03 -0.40530279338E+02  0.30640257733E+03  0.90292044218E+02 0.  0.
         13    1    3    3    0    0 -0.23223448618E+02  0.28796837224E+02 -0.50516869241E+02  0.62614219453E+02  0.00000000000E+00 0. -1.
        -14    1    3    3    0    0 -0.13734252258E+03  0.18343394842E+03 -0.96411698524E+02  0.24860852268E+03  0.00000000000E+00 0.  1.
        -13    1    4    4    0    0  0.13213475917E+03 -0.19185100729E+03  0.53353518283E+01  0.23301259528E+03  0.00000000000E+00 0.  1.
         13    1    4    4    0    0  0.37377383912E+02 -0.43420784368E+02 -0.45865631167E+02  0.73389982052E+02  0.00000000000E+00 0. -1.
         -3    1    1    2    0  502 -0.89461718899E+01  0.23041006019E+02 -0.63075418505E+02  0.67745334669E+02  0.00000000000E+00 0.  1.
<scales pt_clust_5="13000.00000" pt_clust_6="13000.00000" pt_clust_7="13000.00000" pt_clust_8="13000.00000" pt_clust_9="24.71685"></scales>
<clustering>
<clus scale="   24.717">  1  9  2 -1</clus>
<clus scale="   66.695">  5  6 -1 -1</clus>
<clus scale="   90.292">  7  8 -1 -1</clus>
<clus scale="  283.184">  2  5  1 -1</clus>
<clus scale="   24.717">  1  5  2 -1</clus>
</clustering>
</event>
<event>
 9    1  0.4067873E-005  0.1154778E+03  0.7546771E-02  0.1254972E+00
         -2   -1    0    0    0  501 -0.00000000000E+00  0.00000000000E+00  0.17607797374E+03  0.17607797374E+03  0.00000000000E+00 0.  1.
         21   -1    0    0  501  502  0.00000000000E+00 -0.00000000000E+00 -0.38975781391E+03  0.38975781391E+03  0.00000000000E+00 0. -1.
        -24    2    1    2    0    0 -0.42500184256E+02 -0.53730632121E+02  0.14317280982E+03  0.17856987590E+03  0.81826038744E+02 0.  0.
         23    2    1    2    0    0  0.59598772428E+02  0.22914437747E+02 -0.24354128328E+03  0.26860056138E+03  0.93577880818E+02 0.  0.
         13    1    3    3    0    0  0.16406427878E+02 -0.18241709566E+02  0.62052789768E+01  0.25306843556E+02  0.00000000000E+00 0. -1.
        -14    1    3    3    0    0 -0.58906612134E+02 -0.35488922555E+02  0.13696753085E+03  0.15326303234E+03  0.00000000000E+00 0.  1.
        -13    1    4    4    0    0  0.57384281514E+02 -0.25118043794E+02 -0.10889661682E+03  0.12562780363E+03  0.00000000000E+00 0. -1.
         13    1    4    4    0    0  0.22144909137E+01  0.48032481542E+02 -0.13464466646E+03  0.14297275775E+03  0.00000000000E+00 0.  1.
         -1    1    1    2    0  502 -0.17098588172E+02  0.30816194374E+02 -0.11331136671E+03  0.11866535037E+03  0.00000000000E+00 0.  1.
<scales pt_clust_5="13000.00000" pt_clust_6="13000.00000" pt_clust_7="13000.00000" pt_clust_8="13000.00000" pt_clust_9="35.24201"></scales>
<clustering>
<clus scale="   35.242">  2  9  1 -1</clus>
<clus scale="   81.826">  5  6 -1 -1</clus>
<clus scale="   93.578">  7  8 -1 -1</clus>
<clus scale="  106.178">  1  5  2 -1</clus>
<clus scale="   35.242">  2  5  1 -1</clus>
</clustering>
</event>
<event>
 9    1  0.1008783E-004  0.1202264E+03  0.7546771E-02  0.1242898E+00
         21   -1    0    0  501  502  0.00000000000E+00  0.00000000000E+00  0.53143972692E+03  0.53143972692E+03  0.00000000000E+00 0.  1.
          1   -1    0    0  502    0 -0.00000000000E+00 -0.00000000000E+00 -0.41413177252E+03  0.41413177252E+03  0.00000000000E+00 0. -1.
         23    2    1    2    0    0  0.51023722458E+02  0.49222121822E+02 -0.38144194647E+03  0.40013043432E+03  0.97878334743E+02 0.  0.
        -24    2    1    2    0    0 -0.41014449526E+02  0.45099787610E+02  0.35346842322E+03  0.37193741706E+03  0.98393801045E+02 0.  0.
         11    1    4    4    0    0  0.93930310976E+01  0.23497186904E+02  0.15774063626E+02  0.29818918640E+02  0.00000000000E+00 0. -1.
        -12    1    4    4    0    0 -0.50407480624E+02  0.21602600706E+02  0.33769435959E+03  0.34211849842E+03  0.00000000000E+00 0.  1.
        -11    1    3    3    0    0  0.72234648368E+02  0.57158225497E+02 -0.34615464338E+03  0.35820098311E+03  0.00000000000E+00 0. -1.
         11    1    3    3    0    0 -0.21210925910E+02 -0.79361036746E+01 -0.35287303089E+02  0.41929451210E+02  0.00000000000E+00 0.  1.
          2    1    1    2  501    0 -0.10009272932E+02 -0.94321909432E+02  0.14528147765E+03  0.17350364806E+03  0.00000000000E+00 0. -1.
<scales pt_clust_5="13000.00000" pt_clust_6="13000.00000" pt_clust_7="13000.00000" pt_clust_8="13000.00000" pt_clust_9="94.85151"></scales>
<clustering>
<clus scale="   94.852">  1  9  2 -1</clus>
<clus scale="   97.878">  7  8 -1 -1</clus>
<clus scale="   98.394">  5  6 -1 -1</clus>
<clus scale="  119.805">  2  7  1 -1</clus>
<clus scale="   94.852">  1  5  2 -1</clus>
</clustering>
</event>
<event>
 9    1  0.4067873E-005  0.1585273E+03  0.7546771E-02  0.1211729E+00
          1   -1    0    0  502    0 -0.00000000000E+00  0.00000000000E+00  0.17347392726E+04  0.17347392726E+04  0.00000000000E+00 0. -1.
         21   -1    0    0  501  502  0.00000000000E+00 -0.00000000000E+00 -0.36505568567E+02  0.36505568567E+02  0.00000000000E+00 0. -1.
         23    2    1    2    0    0 -0.15913294333E+02  0.34673691651E+02  0.14185147770E+03  0.17342085338E+03  0.92181629570E+02 0.  0.
        -24    2    1    2    0    0  0.74812160700E+02  0.10720181092E+03  0.36128903460E+03  0.39289848321E+03  0.82160598388E+02 0.  0.
         13    1    4    4    0    0  0.33772555190E+02  0.82504000487E+02  0.31067794590E+03  0.32321553436E+03  0.00000000000E+00 0. -1.
        -14    1    4    4    0    0  0.41039605510E+02  0.24697810428E+02  0.50611088701E+02  0.69682948846E+02  0.00000000000E+00 0.  1.
        -11    1    3    3    0    0 -0.53799849825E+02  0.15431375562E+02  0.66544887302E+02  0.86952706795E+02  0.00000000000E+00 0. -1.
         11    1    3    3    0    0  0.37886555492E+02  0.19242316088E+02  0.75306590399E+02  0.86468146580E+02  0.00000000000E+00 0.  1.
          2    1    1    2  501    0 -0.58898866367E+02 -0.14187550257E+03  0.11950931917E+04  0.12049255046E+04  0.00000000000E+00 0. -1.
<scales pt_clust_5="13000.00000" pt_clust_6="13000.00000" pt_clust_7="13000.00000" pt_clust_8="13000.00000" pt_clust_9="135.57490"></scales>
<clustering>
<clus scale="   82.161">  5  6 -1 -1</clus>
<clus scale="   92.182">  7  8 -1 -1</clus>
<clus scale="   99.765">  1  7  2 -1</clus>
<clus scale="  135.575">  2  9  1 -1</clus>
<clus scale="  135.575">  2  5  1 -1</clus>
</clustering>
</event>
<event>
 9    1  0.4067873E-005  0.9008312E+02  0.7546771E-02  0.1309784E+00
         21   -1    0    0  501  502  0.00000000000E+00  0.00000000000E+00  0.41225476339E+03  0.41225476339E+03  0.00000000000E+00 0. -1.
          1   -1    0    0  502    0 -0.00000000000E+00 -0.00000000000E+00 -0.88817665445E+02  0.88817665445E+02  0.00000000000E+00 0. -1.
         23    2    1    2    0    0 -0.12026523057E+02 -0.95513807622E+00 -0.34704585765E+01  0.90205865043E+02  0.89328072070E+02 0.  0.
        -24    2    1    2    0    0 -0.35339425358E+02 -0.98170265857E+01  0.63253685466E+01  0.86625123123E+02  0.78221817118E+02 0.  0.
         11    1    4    4    0    0 -0.13486645240E+02 -0.21481700221E+02 -0.32097335751E+02  0.40909558865E+02  0.00000000000E+00 0. -1.
        -12    1    4    4    0    0 -0.21852780118E+02  0.11664673636E+02  0.38422704297E+02  0.45715564258E+02  0.00000000000E+00 0.  1.
        -13    1    3    3    0    0 -0.38543163050E+02 -0.17463973990E+02 -0.27785251971E+02  0.50621991590E+02  0.00000000000E+00 0. -1.
         13    1    3    3    0    0  0.26516639993E+02  0.16508835914E+02  0.24314793394E+02  0.39583873453E+02  0.00000000000E+00 0.  1.
          2    1    1    2  501    0  0.47365948415E+02  0.10772164662E+02  0.32058218797E+03  0.32424144067E+03  0.00000000000E+00 0. -1.
<scales pt_clust_5="13000.00000" pt_clust_6="13000.00000" pt_clust_7="13000.00000" pt_clust_8="13000.00000" pt_clust_9="48.57543"></scales>
<clustering>
<clus scale="   48.575">  1  9  2 -1</clus>
<clus scale="   78.222">  5  6 -1 -1</clus>
<clus scale="   79.083">  1  5  2 -1</clus>
<clus scale="   89.328">  7  8 -1 -1</clus>
<clus scale="   48.575">  1  5  2 -1</clus>
</clustering>
</event>
<event>
 9    1  0.4067873E-005  0.2789732E+03  0.7546771E-02  0.1128815E+00
          1   -1    0    0  502    0 -0.00000000000E+00  0.00000000000E+00  0.10885729576E+04  0.10885729576E+04  0.00000000000E+00 0. -1.
         21   -1    0    0  501  502  0.00000000000E+00 -0.00000000000E+00 -0.29710021894E+03  0.29710021894E+03  0.00000000000E+00 0. -1.
        -24    2    1    2    0    0  0.96034443832E+00 -0.94291092631E+02  0.39460254051E+03  0.41307907511E+03  0.77662248928E+02 0.  0.
         23    2    1    2    0    0 -0.21620906971E+03  0.16326829866E+03 -0.19083039929E+03  0.34292604530E+03  0.88199388211E+02 0.  0.
         13    1    3    3    0    0 -0.27781129930E+02 -0.88007705034E+02  0.28324946716E+03  0.29790503180E+03  0.00000000000E+00 0. -1.
        -14    1    3    3    0    0  0.28741474369E+02 -0.62833875971E+01  0.11135307335E+03  0.11517404331E+03  0.00000000000E+00 0.  1.
        -11    1    4    4    0    0 -0.17306476728E+03  0.86961969339E+02 -0.15562732317E+03  0.24846259578E+03  0.00000000000E+00 0. -1.
         11    1    4    4    0    0 -0.43144302430E+02  0.76306329323E+02 -0.35203076112E+02  0.94463449517E+02  0.00000000000E+00 0.  1.
          2    1    1    2  501    0  0.21524872527E+03 -0.68977206031E+02  0.58770059743E+03  0.62966805613E+03  0.00000000000E+00 0. -1.
<scales pt_clust_5="13000.00000" pt_clust_6="13000.00000" pt_clust_7="13000.00000" pt_clust_8="13000.00000" pt_clust_9="264.66390"></scales>
<clustering>
<clus scale="   77.662">  5  6 -1 -1</clus>
<clus scale="   88.199">  7  8 -1 -1</clus>
<clus scale="  122.160">  1  5  2 -1</clus>
<clus scale="  264.664">  2  9  1 -1</clus>
<clus scale="  264.664">  2  5  1 -1</clus>
</clustering>
</event>
<event>
 9    1  0.4067873E-005  0.1623749E+03  0.7546771E-02  0.1212597E+00
         -2   -1    0    0    0  501 -0.00000000000E+00  0.00000000000E+00  0.68943695289E+03  0.68943695289E+03  0.00000000000E+00 0.  1.
         21   -1    0    0  501  502  0.00000000000E+00 -0.00000000000E+00 -0.80580300988E+02  0.80580300988E+02  0.00000000000E+00 0. -1.
        -24    2    1    2    0    0 -0.40380144420E+02  0.24187938531E+01  0.25489161987E+03  0.27069556384E+03  0.81669723760E+02 0.  0.
         23    2    1    2    0    0  0.16555749145E+01  0.10092693693E+03  0.40226055388E+02  0.16673774902E+03  0.12646878622E+03 0.  0.
         11    1    3    3    0    0  0.22435745948E+02  0.98089804546E+01  0.42101340928E+02  0.48704226734E+02  0.00000000000E+00 0. -1.
        -12    1    3    3    0    0 -0.62815890368E+02 -0.73901866014E+01  0.21279027894E+03  0.22199133711E+03  0.00000000000E+00 0.  1.
        -11    1    4    4    0    0 -0.61494066516E+02  0.47720603227E+02  0.30461894347E+02  0.83586501280E+02  0.00000000000E+00 0.  1.
         11    1    4    4    0    0  0.63149641431E+02  0.53206333706E+02  0.97641610410E+01  0.83151247736E+02  0.00000000000E+00 0. -1.
         -1    1    1    2    0  502  0.38724569506E+02 -0.10334573079E+03  0.31373897665E+03  0.33258394102E+03  0.00000000000E+00 0.  1.
<scales pt_clust_5="13000.00000" pt_clust_6="13000.00000" pt_clust_7="13000.00000" pt_clust_8="13000.00000" pt_clust_9="101.83939"></scales>
<clustering>
<clus scale="   81.670">  5  6 -1 -1</clus>
<clus scale="   91.139">  1  5  2 -1</clus>
<clus scale="  101.839">  2  9  1 -1</clus>
<clus scale="  126.469">  7  8 -1 -1</clus>
<clus scale="  101.839">  2  5  1 -1</clus>
</clustering>
</event>
<event>
 9    1  0.4067873E-005  0.1126187E+03  0.7546771E-02  0.1260023E+00
          1   -1    0    0  502    0 -0.00000000000E+00  0.00000000000E+00  0.28515051272E+03  0.28515051272E+03  0.00000000000E+00 0. -1.
         21   -1    0    0  501  502  0.00000000000E+00 -0.00000000000E+00 -0.14773691864E+03  0.14773691864E+03  0.00000000000E+00 0. -1.
        -24    2    1    2    0    0  0.81099160389E+02 -0.15006330350E+02  0.17557109055E+03  0.20983846733E+03  0.80029436889E+02 0.  0.
         23    2    1    2    0    0 -0.79522621224E+01 -0.64115492432E+02 -0.16328731123E+02  0.11310704044E+03  0.91392233227E+02 0.  0.
         11    1    3    3    0    0  0.62485804649E+02  0.16931705131E+02  0.15396286191E+03  0.16702012235E+03  0.00000000000E+00 0. -1.
        -12    1    3    3    0    0  0.18613355740E+02 -0.31938035480E+02  0.21608228639E+02  0.42818344984E+02  0.00000000000E+00 0.  1.
        -11    1    4    4    0    0 -0.32129486294E+02 -0.29960521005E+02 -0.44602525926E+02  0.62604488876E+02  0.00000000000E+00 0. -1.
         11    1    4    4    0    0  0.24177224172E+02 -0.34154971427E+02  0.28273794803E+02  0.50502551564E+02  0.00000000000E+00 0.  1.
          2    1    1    2  501    0 -0.73146898267E+02  0.79121822782E+02 -0.21828765343E+02  0.10994192359E+03  0.00000000000E+00 0. -1.
<scales pt_clust_5="13000.00000" pt_clust_6="13000.00000" pt_clust_7="13000.00000" pt_clust_8="13000.00000" pt_clust_9="107.75310"></scales>
<clustering>
<clus scale="   80.029">  5  6 -1 -1</clus>
<clus scale="   91.392">  7  8 -1 -1</clus>
<clus scale="  107.753">  2  9  1 -1</clus>
<clus scale="  103.611">  1  5  2 -1</clus>
<clus scale="  107.753">  2  5  1 -1</clus>
</clustering>
</event>
<event>
 9    1  0.4067873E-005  0.1087600E+03  0.7546771E-02  0.1267787E+00
          1   -1    0    0  502    0 -0.00000000000E+00  0.00000000000E+00  0.55128893988E+03  0.55128893988E+03  0.00000000000E+00 0. -1.
         21   -1    0    0  501  502  0.00000000000E+00 -0.00000000000E+00 -0.55561753045E+02  0.55561753045E+02  0.00000000000E+00 0. -1.
        -24    2    1    2    0    0 -0.55239397359E+02  0.28716873063E+02  0.43582007631E+03  0.44753827968E+03  0.80469391952E+02 0.  0.
         23    2    1    2    0    0  0.28816515211E+02 -0.25065361139E+02  0.78247486513E+02  0.12694156784E+03  0.92373311206E+02 0.  0.
         11    1    3    3    0    0 -0.43128353625E+02 -0.22656016519E+02  0.22468611442E+03  0.22990693766E+03  0.00000000000E+00 0. -1.
        -12    1    3    3    0    0 -0.12111043734E+02  0.51372889582E+02  0.21113396189E+03  0.21763134202E+03  0.00000000000E+00 0.  1.
        -11    1    4    4    0    0  0.20814578264E+02  0.34837161250E+01  0.91905698904E+02  0.94297616287E+02  0.00000000000E+00 0. -1.
         11    1    4    4    0    0  0.80019369472E+01 -0.28549077264E+02 -0.13658212391E+02  0.32643951557E+02  0.00000000000E+00 0.  1.
          2    1    1    2  501    0  0.26422882148E+02 -0.36515119233E+01 -0.18340375993E+02  0.32370845399E+02  0.00000000000E+00 0. -1.
<scales pt_clust_5="13000.00000" pt_clust_6="13000.00000" pt_clust_7="13000.00000" pt_clust_8="13000.00000" pt_clust_9="26.67400"></scales>
<clustering>
<clus scale="   26.674">  2  9  1 -1</clus>
<clus scale="   80.469">  5  6 -1 -1</clus>
<clus scale="   92.373">  7  8 -1 -1</clus>
<clus scale="   98.850">  1  5  2 -1</clus>
<clus scale="   26.674">  2  5  1 -1</clus>
</clustering>
</event>
<event>
 9    1  0.4067873E-005  0.2278373E+03  0.7546771E-02  0.1128171E+00
          1   -1    0    0  502    0 -0.00000000000E+00  0.00000000000E+00  0.43670545423E+03  0.43670545423E+03  0.00000000000E+00 0. -1.
         21   -1    0    0  501  502  0.00000000000E+00 -0.00000000000E+00 -0.81467237628E+02  0.81467237628E+02  0.00000000000E+00 0. -1.
        -24    2    1    2    0    0  0.74537279870E+02 -0.40533183509E+01  0.84378099606E+02  0.13822120985E+03  0.80082480473E+02 0.  0.
         23    2    1    2    0    0  0.63290295757E+02 -0.38239130657E+02  0.90164071485E+02  0.14878887104E+03  0.92415776299E+02 0.  0.
         11    1    3    3    0    0  0.16433310666E+02  0.19925938729E+02 -0.75034172696E+01  0.26896059273E+02  0.00000000000E+00 0. -1.
        -12    1    3    3    0    0  0.58103969203E+02 -0.23979257080E+02  0.91881516876E+02  0.11132515058E+03  0.00000000000E+00 0.  1.
        -11    1    4    4    0    0 -0.19030092573E+02 -0.11653136133E+02 -0.19780102508E+01  0.22402065298E+02  0.00000000000E+00 0.  1.
         11    1    4    4    0    0  0.82320388330E+02 -0.26585994523E+02  0.92142081736E+02  0.12638680574E+03  0.00000000000E+00 0. -1.
          2    1    1    2  501    0 -0.13782757563E+03  0.42292449008E+02  0.18069604551E+03  0.23116261097E+03  0.00000000000E+00 0. -1.
<scales pt_clust_5="13000.00000" pt_clust_6="13000.00000" pt_clust_7="13000.00000" pt_clust_8="13000.00000" pt_clust_9="144.17043"></scales>
<clustering>
<clus scale="   80.082">  5  6 -1 -1</clus>
<clus scale="   92.416">  7  8 -1 -1</clus>
<clus scale="   99.134">  5  7 -1 -1</clus>
<clus scale="  144.170">  2  9  1 -1</clus>
<clus scale="  144.170">  2  5  1 -1</clus>
</clustering>
</event>
<event>
 9    1  0.4067873E-005  0.1930494E+03  0.7546771E-02  0.1156000E+00
          1   -1    0    0  502    0 -0.00000000000E+00  0.00000000000E+00  0.32621620721E+03  0.32621620721E+03  0.00000000000E+00 0. -1.
         21   -1    0    0  501  502  0.00000000000E+00 -0.00000000000E+00 -0.19697734470E+03  0.19697734470E+03  0.00000000000E+00 0. -1.
         23    2    1    2    0    0  0.16620244606E+03  0.45098194853E+02  0.19546697855E+03  0.27539173535E+03  0.89309394451E+02 0.  0.
        -24    2    1    2    0    0 -0.14948656038E+03 -0.61656311809E+02 -0.96472060848E+02  0.20948356676E+03  0.91808353095E+02 0.  0.
         13    1    4    4    0    0 -0.11961063141E+03 -0.16928285975E+02 -0.30936409376E+02  0.12470096807E+03  0.00000000000E+00 0. -1.
        -14    1    4    4    0    0 -0.29875928968E+02 -0.44728025833E+02 -0.65535651473E+02  0.84782598690E+02  0.00000000000E+00 0.  1.
        -13    1    3    3    0    0  0.97285695437E+02  0.67320923060E+02  0.95987876252E+02  0.15234922253E+03  0.00000000000E+00 0.  1.
         13    1    3    3    0    0  0.68916750623E+02 -0.22222728207E+02  0.99479102302E+02  0.12304251282E+03  0.00000000000E+00 0. -1.
          2    1    1    2  501    0 -0.16715885684E+02  0.16558116956E+02  0.30243944804E+02  0.38318249812E+02  0.00000000000E+00 0. -1.
<scales pt_clust_5="13000.00000" pt_clust_6="13000.00000" pt_clust_7="13000.00000" pt_clust_8="13000.00000" pt_clust_9="23.52855"></scales>
<clustering>
<clus scale="   23.529">  2  9  1 -1</clus>
<clus scale="   89.309">  7  8 -1 -1</clus>
<clus scale="   91.808">  5  6 -1 -1</clus>
<clus scale="  191.874">  1  7  2 -1</clus>
<clus scale="   23.529">  2  5  1 -1</clus>
</clustering>
</event>
<event>
 9    1  0.4067873E-005  0.9048250E+02  0.7546771E-02  0.1307398E+00
         21   -1    0    0  501  502  0.00000000000E+00  0.00000000000E+00  0.40499974814E+03  0.40499974814E+03  0.00000000000E+00 0. -1.
         -2   -1    0    0    0  501 -0.00000000000E+00 -0.00000000000E+00 -0.77985808037E+02  0.77985808037E+02  0.00000000000E+00 0.  1.
         23    2    1    2    0    0  0.24094974834E+02  0.55079105841E+00 -0.37397168173E+02  0.98520560893E+02  0.87902682258E+02 0.  0.
        -24    2    1    2    0    0  0.50157413419E+01 -0.25409940462E+02  0.27535281918E+03  0.28752795405E+03  0.78627772431E+02 0.  0.
         13    1    4    4    0    0  0.57341651515E+01 -0.53644211878E+02  0.19641705586E+03  0.20369153627E+03  0.00000000000E+00 0. -1.
        -14    1    4    4    0    0 -0.71842380959E+00  0.28234271415E+02  0.78935763323E+02  0.83836417782E+02  0.00000000000E+00 0.  1.
        -11    1    3    3    0    0  0.20384940020E+02  0.42530989857E+02 -0.98767892448E+01  0.48186946818E+02  0.00000000000E+00 0.  1.
         11    1    3    3    0    0  0.37100348140E+01 -0.41980198798E+02 -0.27520378929E+02  0.50333614075E+02  0.00000000000E+00 0. -1.
         -1    1    1    2    0  502 -0.29110716176E+02  0.24859149404E+02  0.89058289096E+02  0.96937041229E+02  0.00000000000E+00 0.  1.
<scales pt_clust_5="13000.00000" pt_clust_6="13000.00000" pt_clust_7="13000.00000" pt_clust_8="13000.00000" pt_clust_9="38.28069"></scales>
<clustering>
<clus scale="   38.281">  1  9  2 -1</clus>
<clus scale="   78.628">  5  6 -1 -1</clus>
<clus scale="   81.502">  1  5  2 -1</clus>
<clus scale="   87.903">  7  8 -1 -1</clus>
<clus scale="   38.281">  1  5  2 -1</clus>
</clustering>
</event>
<event>
 9    1  0.4067873E-005  0.1089899E+03  0.7546771E-02  0.1265658E+00
          1   -1    0    0  502    0 -0.00000000000E+00  0.00000000000E+00  0.25053860176E+03  0.25053860176E+03  0.00000000000E+00 0. -1.
         21   -1    0    0  501  502  0.00000000000E+00 -0.00000000000E+00 -0.12216318819E+03  0.12216318819E+03  0.00000000000E+00 0.  1.
        -24    2    1    2    0    0 -0.35397326149E+02  0.38926392429E+02  0.14500944358E+03  0.17605491632E+03  0.84849043052E+02 0.  0.
         23    2    1    2    0    0  0.92859270687E+02 -0.12244022824E+02 -0.29321118002E+01  0.13182738212E+03  0.92720554084E+02 0.  0.
         11    1    3    3    0    0 -0.32498441613E+02  0.54537898520E+02  0.14693153281E+03  0.16006063356E+03  0.00000000000E+00 0. -1.
        -12    1    3    3    0    0 -0.28988845360E+01 -0.15611506091E+02 -0.19220892285E+01  0.15994282759E+02  0.00000000000E+00 0.  1.
        -13    1    4    4    0    0  0.27723830843E+02 -0.25710453868E+02 -0.40525810924E+02  0.55425441683E+02  0.00000000000E+00 0.  1.
         13    1    4    4    0    0  0.65135439843E+02  0.13466431044E+02  0.37593699124E+02  0.76401940437E+02  0.00000000000E+00 0. -1.
          2    1    1    2  501    0 -0.57461944538E+02 -0.26682369605E+02 -0.13701918206E+02  0.64819491516E+02  0.00000000000E+00 0. -1.
<scales pt_clust_5="13000.00000" pt_clust_6="13000.00000" pt_clust_7="13000.00000" pt_clust_8="13000.00000" pt_clust_9="63.35475"></scales>
<clustering>
<clus scale="   63.355">  2  9  1 -1</clus>
<clus scale="   84.849">  5  6 -1 -1</clus>
<clus scale="   92.721">  7  8 -1 -1</clus>
<clus scale="  102.377">  1  5  2 -1</clus>
<clus scale="   63.355">  2  5  1 -1</clus>
</clustering>
</event>
<event>
 9    1  0.4067873E-005  0.9402112E+02  0.7546771E-02  0.1301395E+00
         21   -1    0    0  501  502  0.00000000000E+00  0.00000000000E+00  0.35632942329E+02  0.35632942329E+02  0.00000000000E+00 0.  1.
         -2   -1    0    0    0  501 -0.00000000000E+00 -0.00000000000E+00 -0.32334147692E+03  0.32334147692E+03  0.00000000000E+00 0.  1.
        -24    2    1    2    0    0 -0.21117037308E+01 -0.28976033508E+02 -0.19156559021E+03  0.20881813885E+03  0.77868928001E+02 0.  0.
         23    2    1    2    0    0 -0.61134737745E+01  0.74025642327E+01 -0.82088032629E+02  0.12312650671E+03  0.91266198754E+02 0.  0.
         11    1    3    3    0    0  0.34148078934E+02 -0.25657421184E+01 -0.11591621878E+03  0.12086870606E+03  0.00000000000E+00 0. -1.
        -12    1    3    3    0    0 -0.36259782665E+02 -0.26410291390E+02 -0.75649371432E+02  0.87949432791E+02  0.00000000000E+00 0.  1.
        -13    1    4    4    0    0  0.40785943258E+02 -0.82082587101E+01 -0.45329256739E+02  0.61527312594E+02  0.00000000000E+00 0. -1.
         13    1    4    4    0    0 -0.46899417032E+02  0.15610822943E+02 -0.36758775890E+02  0.61599194117E+02  0.00000000000E+00 0.  1.
         -1    1    1    2    0  502  0.82251775052E+01  0.21573469275E+02 -0.14054911753E+02  0.27029773694E+02  0.00000000000E+00 0.  1.
<scales pt_clust_5="13000.00000" pt_clust_6="13000.00000" pt_clust_7="13000.00000" pt_clust_8="13000.00000" pt_clust_9="23.08827"></scales>
<clustering>
<clus scale="   23.088">  1  9  2 -1</clus>
<clus scale="   77.869">  5  6 -1 -1</clus>
<clus scale="   81.080">  2  5  1 -1</clus>
<clus scale="   91.266">  7  8 -1 -1</clus>
<clus scale="   23.088">  1  5  2 -1</clus>
</clustering>
</event>
<event>
 9    1  0.4067873E-005  0.1541541E+03  0.7546771E-02  0.1199898E+00
          1   -1    0    0  502    0 -0.00000000000E+00  0.00000000000E+00  0.24116943023E+03  0.24116943023E+03  0.00000000000E+00 0. -1.
         21   -1    0    0  501  502  0.00000000000E+00 -0.00000000000E+00 -0.27985575080E+03  0.27985575080E+03  0.00000000000E+00 0. -1.
         23    2    1    2    0    0 -0.88669800712E+02 -0.39108933987E+02  0.83051989045E+02  0.16398483190E+03  0.10296382828E+03 0.  0.
        -24    2    1    2    0    0  0.16486086079E+03  0.11365368011E+03 -0.12705118376E+03  0.25031535936E+03  0.80121866023E+02 0.  0.
         13    1    4    4    0    0  0.10814022787E+03  0.80769018670E+02 -0.38923715356E+02  0.14047419292E+03  0.00000000000E+00 0. -1.
        -14    1    4    4    0    0  0.56720632918E+02  0.32884661440E+02 -0.88127468408E+02  0.10984116644E+03  0.00000000000E+00 0.  1.
        -11    1    3    3    0    0 -0.92952646240E+02 -0.62453608091E+02  0.48429985610E+02  0.12200865179E+03  0.00000000000E+00 0. -1.
         11    1    3    3    0    0  0.42828455276E+01  0.23344674104E+02  0.34622003435E+02  0.41976180111E+02  0.00000000000E+00 0.  1.
          2    1    1    2  501    0 -0.76191060074E+02 -0.74544746122E+02  0.53128741499E+01  0.10672498977E+03  0.00000000000E+00 0. -1.
<scales pt_clust_5="13000.00000" pt_clust_6="13000.00000" pt_clust_7="13000.00000" pt_clust_8="13000.00000" pt_clust_9="106.59272"></scales>
<clustering>
<clus scale="   80.122">  5  6 -1 -1</clus>
<clus scale="  102.964">  7  8 -1 -1</clus>
<clus scale="  106.593">  2  9  1 -1</clus>
<clus scale="  139.934">  2  5  1 -1</clus>
<clus scale="  106.593">  2  5  1 -1</clus>
</clustering>
</event>
<event>
 9    1  0.4067873E-005  0.1151833E+03  0.7546771E-02  0.1254380E+00
         21   -1    0    0  501  502  0.00000000000E+00  0.00000000000E+00  0.45180987305E+02  0.45180987305E+02  0.00000000000E+00 0. -1.
          1   -1    0    0  502    0 -0.00000000000E+00 -0.00000000000E+00 -0.49924259383E+03  0.49924259383E+03  0.00000000000E+00 0. -1.
         23    2    1    2    0    0  0.70075271734E+02  0.37708162653E+01 -0.13514525973E+03  0.17658363402E+03  0.89402325549E+02 0.  0.
        -24    2    1    2    0    0 -0.74454411463E+02  0.22567304009E+02 -0.10867603678E+03  0.15591104064E+03  0.80280938122E+02 0.  0.
         11    1    4    4    0    0 -0.90876123703E+02  0.19727021373E+02 -0.79649528242E+02  0.12244048587E+03  0.00000000000E+00 0. -1.
        -12    1    4    4    0    0  0.16421712240E+02  0.28402826352E+01 -0.29026508539E+02  0.33470554765E+02  0.00000000000E+00 0.  1.
        -13    1    3    3    0    0 -0.25717623946E+01 -0.23677591111E+02 -0.74009893099E+02  0.77747710957E+02  0.00000000000E+00 0. -1.
         13    1    3    3    0    0  0.72647034129E+02  0.27448407376E+02 -0.61135366629E+02  0.98835923065E+02  0.00000000000E+00 0.  1.
          2    1    1    2  501    0  0.43791397287E+01 -0.26338120274E+02 -0.21024031002E+03  0.21192890648E+03  0.00000000000E+00 0. -1.
<scales pt_clust_5="13000.00000" pt_clust_6="13000.00000" pt_clust_7="13000.00000" pt_clust_8="13000.00000" pt_clust_9="26.69970"></scales>
<clustering>
<clus scale="   26.700">  1  9  2 -1</clus>
<clus scale="   80.281">  5  6 -1 -1</clus>
<clus scale="   89.402">  7  8 -1 -1</clus>
<clus scale="  108.256">  1  5  2 -1</clus>
<clus scale="   26.700">  1  5  2 -1</clus>
</clustering>
</event>
<event>
 9    1  0.4067873E-005  0.1531288E+03  0.7546771E-02  0.1226060E+00
         21   -1    0    0  501  502  0.00000000000E+00  0.00000000000E+00  0.31275269525E+03  0.31275269525E+03  0.00000000000E+00 0.  1.
         -4   -1    0    0    0  501 -0.00000000000E+00 -0.00000000000E+00 -0.11977910578E+03  0.11977910578E+03  0.00000000000E+00 0.  1.
        -24    2    1    2    0    0 -0.51488368359E+01  0.14998131996E+02 -0.18950306465E+02  0.84045427965E+02  0.80330973867E+02 0.  0.
         23    2    1    2    0    0 -0.34573314246E+02  0.10902780645E+03  0.10836903176E+03  0.18210160036E+03  0.91294956979E+02 0.  0.
         11    1    3    3    0    0 -0.39844273213E+02  0.10826207420E+02  0.51305880563E+01  0.41606439511E+02  0.00000000000E+00 0. -1.
        -12    1    3    3    0    0  0.34695436377E+02  0.41719245757E+01 -0.24080894522E+02  0.42438988454E+02  0.00000000000E+00 0.  1.
        -11    1    4    4    0    0 -0.53818874848E+02  0.23599653529E+02  0.42424447535E+02  0.72479298322E+02  0.00000000000E+00 0.  1.
         11    1    4    4    0    0  0.19245560602E+02  0.85428152921E+02  0.65944584227E+02  0.10962230203E+03  0.00000000000E+00 0. -1.
         -3    1    1    2    0  502  0.39722151082E+02 -0.12402593845E+03  0.10355486418E+03  0.16638477271E+03  0.00000000000E+00 0.  1.
<scales pt_clust_5="13000.00000" pt_clust_6="13000.00000" pt_clust_7="13000.00000" pt_clust_8="13000.00000" pt_clust_9="122.93771"></scales>
<clustering>
<clus scale="   80.331">  5  6 -1 -1</clus>
<clus scale="   81.881">  2  5  1 -1</clus>
<clus scale="   91.295">  7  8 -1 -1</clus>
<clus scale="  122.938">  1  9  2 -1</clus>
<clus scale="  122.938">  1  5  2 -1</clus>
</clustering>
</event>
<event>
 9    1  0.4067873E-005  0.8720250E+02  0.7546771E-02  0.1314226E+00
         21   -1    0    0  501  502  0.00000000000E+00  0.00000000000E+00  0.28574748261E+03  0.28574748261E+03  0.00000000000E+00 0.  1.
          1   -1    0    0  502    0 -0.00000000000E+00 -0.00000000000E+00 -0.11618951270E+03  0.11618951270E+03  0.00000000000E+00 0. -1.
        -24    2    1    2    0    0  0.16307293989E+02  0.10954839016E+02 -0.84946814982E+02  0.11690132755E+03  0.77871834904E+02 0.  0.
         23    2    1    2    0    0 -0.84968669856E+01 -0.30612317845E+02  0.12820806407E+03  0.15697989502E+03  0.84829646918E+02 0.  0.
         11    1    3    3    0    0  0.10020666168E+02 -0.27064902171E+02 -0.69735839915E+02  0.75471915629E+02  0.00000000000E+00 0. -1.
        -12    1    3    3    0    0  0.62866278213E+01  0.38019741187E+02 -0.15210975067E+02  0.41429411917E+02  0.00000000000E+00 0.  1.
        -11    1    4    4    0    0 -0.30192682110E+02 -0.14668981901E+02  0.12550981059E+03  0.12992109004E+03  0.00000000000E+00 0.  1.
         11    1    4    4    0    0  0.21695815124E+02 -0.15943335944E+02  0.26982534742E+01  0.27058804976E+02  0.00000000000E+00 0. -1.
          2    1    1    2  501    0 -0.78104270038E+01  0.19657478829E+02  0.12629672082E+03  0.12805577274E+03  0.00000000000E+00 0. -1.
<scales pt_clust_5="13000.00000" pt_clust_6="13000.00000" pt_clust_7="13000.00000" pt_clust_8="13000.00000" pt_clust_9="21.15229"></scales>
<clustering>
<clus scale="   21.152">  1  9  2 -1</clus>
<clus scale="   77.872">  5  6 -1 -1</clus>
<clus scale="   80.450">  2  5  1 -1</clus>
<clus scale="   84.830">  7  8 -1 -1</clus>
<clus scale="   21.152">  1  5  2 -1</clus>
</clustering>
</event>
<event>
 9    1  0.4067873E-005  0.1320599E+03  0.7546771E-02  0.1227526E+00
         -2   -1    0    0    0  501 -0.00000000000E+00  0.00000000000E+00  0.96171439358E+02  0.96171439358E+02  0.00000000000E+00 0.  1.
         21   -1    0    0  501  502  0.00000000000E+00 -0.00000000000E+00 -0.37200663254E+03  0.37200663254E+03  0.00000000000E+00 0. -1.
        -24    2    1    2    0    0  0.48595515977E+02  0.79994402162E+02 -0.31194775233E+02  0.12719137449E+03  0.80273925981E+02 0.  0.
         23    2    1    2    0    0 -0.86691199578E+02 -0.52807901405E+02 -0.58845498733E+02  0.14938779621E+03  0.92465574142E+02 0.  0.
         11    1    3    3    0    0  0.41194073285E+02  0.61698158430E+02 -0.57813972601E+02  0.94053547808E+02  0.00000000000E+00 0. -1.
        -12    1    3    3    0    0  0.74014426917E+01  0.18296243732E+02  0.26619197368E+02  0.33137826681E+02  0.00000000000E+00 0.  1.
        -13    1    4    4    0    0 -0.28242083586E+01  0.23437771358E+02 -0.61677801829E+01  0.24399729332E+02  0.00000000000E+00 0.  1.
         13    1    4    4    0    0 -0.83866991219E+02 -0.76245672763E+02 -0.52677718550E+02  0.12498806688E+03  0.00000000000E+00 0. -1.
         -1    1    1    2    0  502  0.38095683601E+02 -0.27186500757E+02 -0.18579491922E+03  0.19159890120E+03  0.00000000000E+00 0.  1.
<scales pt_clust_5="13000.00000" pt_clust_6="13000.00000" pt_clust_7="13000.00000" pt_clust_8="13000.00000" pt_clust_9="46.80157"></scales>
<clustering>
<clus scale="   46.802">  2  9  1 -1</clus>
<clus scale="   80.274">  5  6 -1 -1</clus>
<clus scale="   92.466">  7  8 -1 -1</clus>
<clus scale="  123.830">  1  5  2 -1</clus>
<clus scale="   46.802">  2  5  1 -1</clus>
</clustering>
</event>
<event>
 9    1  0.4067873E-005  0.2191748E+03  0.7546771E-02  0.1134500E+00
          1   -1    0    0  502    0 -0.00000000000E+00  0.00000000000E+00  0.29729014575E+03  0.29729014575E+03  0.00000000000E+00 0. -1.
         21   -1    0    0  501  502  0.00000000000E+00 -0.00000000000E+00 -0.10839778478E+03  0.10839778478E+03  0.00000000000E+00 0.  1.
        -24    2    1    2    0    0  0.74486060810E+02  0.29942098364E+02  0.73819794328E+02  0.13518889950E+03  0.79887258090E+02 0.  0.
         23    2    1    2    0    0  0.47096958947E+02  0.27953245686E+02  0.75940139876E+02  0.13026476852E+03  0.90567640951E+02 0.  0.
         13    1    3    3    0    0 -0.49859561283E+01  0.33338466842E+02  0.21697896943E+02  0.40088799703E+02  0.00000000000E+00 0. -1.
        -14    1    3    3    0    0  0.79472016938E+02 -0.33963684787E+01  0.52121897386E+02  0.95100099801E+02  0.00000000000E+00 0.  1.
        -11    1    4    4    0    0  0.22031600241E+02  0.60594312306E+02  0.50315329368E+02  0.81784438999E+02  0.00000000000E+00 0. -1.
         11    1    4    4    0    0  0.25065358706E+02 -0.32641066620E+02  0.25624810509E+02  0.48480329524E+02  0.00000000000E+00 0.  1.
          2    1    1    2  501    0 -0.12158301976E+03 -0.57895344050E+02  0.39132426770E+02  0.14023426251E+03  0.00000000000E+00 0. -1.
<scales pt_clust_5="13000.00000" pt_clust_6="13000.00000" pt_clust_7="13000.00000" pt_clust_8="13000.00000" pt_clust_9="134.66366"></scales>
<clustering>
<clus scale="   79.887">  5  6 -1 -1</clus>
<clus scale="   90.568">  7  8 -1 -1</clus>
<clus scale="   91.367">  5  7 -1 -1</clus>
<clus scale="  134.664">  2  9  1 -1</clus>
<clus scale="  134.664">  2  5  1 -1</clus>
</clustering>
</event>
<event>
 9    1  0.4067873E-005  0.1067294E+03  0.7546771E-02  0.1271001E+00
         21   -1    0    0  501  502  0.00000000000E+00  0.00000000000E+00  0.59081647074E+02  0.59081647074E+02  0.00000000000E+00 0. -1.
          1   -1    0    0  502    0 -0.00000000000E+00 -0.00000000000E+00 -0.31087947073E+03  0.31087947073E+03  0.00000000000E+00 0. -1.
        -24    2    1    2    0    0 -0.39548888995E+02  0.54557425067E+02 -0.19148680385E+03  0.21799871028E+03  0.79470839817E+02 0.  0.
         23    2    1    2    0    0  0.12620193636E+01 -0.39150233590E+02 -0.37569056514E+02  0.10484062032E+03  0.89698317591E+02 0.  0.
         13    1    3    3    0    0 -0.16943781244E+02  0.57881036479E+02 -0.18449865081E+03  0.19410579140E+03  0.00000000000E+00 0. -1.
        -14    1    3    3    0    0 -0.22605107751E+02 -0.33236114122E+01 -0.69881530476E+01  0.23892918873E+02  0.00000000000E+00 0.  1.
        -13    1    4    4    0    0 -0.40282652523E+02 -0.38040929210E+02 -0.14346517297E+02  0.57233093120E+02  0.00000000000E+00 0. -1.
         13    1    4    4    0    0  0.41544671887E+02 -0.11093043793E+01 -0.23222539217E+02  0.47607527200E+02  0.00000000000E+00 0.  1.
          2    1    1    2  501    0  0.38286869632E+02 -0.15407191477E+02 -0.22741963287E+02  0.47121787207E+02  0.00000000000E+00 0. -1.
<scales pt_clust_5="13000.00000" pt_clust_6="13000.00000" pt_clust_7="13000.00000" pt_clust_8="13000.00000" pt_clust_9="41.27064"></scales>
<clustering>
<clus scale="   41.271">  1  9  2 -1</clus>
<clus scale="   79.471">  5  6 -1 -1</clus>
<clus scale="   89.698">  7  8 -1 -1</clus>
<clus scale="   98.290">  2  5  1 -1</clus>
<clus scale="   41.271">  1  5  2 -1</clus>
</clustering>
</event>
<event>
 9    1  0.4067873E-005  0.9402871E+02  0.7546771E-02  0.1299971E+00
         21   -1    0    0  501  502  0.00000000000E+00  0.00000000000E+00  0.31760401710E+03  0.31760401710E+03  0.00000000000E+00 0. -1.
         -2   -1    0    0    0  501 -0.00000000000E+00 -0.00000000000E+00 -0.36678230642E+02  0.36678230642E+02  0.00000000000E+00 0.  1.
        -24    2    1    2    0    0 -0.24634788755E+02 -0.71804462531E+01  0.93973213491E+02  0.12580889703E+03  0.79614584678E+02 0.  0.
         23    2    1    2    0    0  0.23452149874E+02 -0.14278161457E+02  0.18365338298E+03  0.20673041773E+03  0.90857202848E+02 0.  0.
         11    1    3    3    0    0  0.14820388595E+02  0.17798281906E+02  0.69146085553E+02  0.72921902774E+02  0.00000000000E+00 0. -1.
        -12    1    3    3    0    0 -0.39455177349E+02 -0.24978728159E+02  0.24827127938E+02  0.52886994259E+02  0.00000000000E+00 0.  1.
        -11    1    4    4    0    0 -0.24109748219E+01  0.28938509861E+02  0.19385027698E+02  0.34914602267E+02  0.00000000000E+00 0.  1.
         11    1    4    4    0    0  0.25863124696E+02 -0.43216671318E+02  0.16426835528E+03  0.17181581547E+03  0.00000000000E+00 0. -1.
         -1    1    1    2    0  502  0.11826388813E+01  0.21458607710E+02  0.32991899858E+01  0.21742932970E+02  0.00000000000E+00 0.  1.
<scales pt_clust_5="13000.00000" pt_clust_6="13000.00000" pt_clust_7="13000.00000" pt_clust_8="13000.00000" pt_clust_9="21.49118"></scales>
<clustering>
<clus scale="   21.491">  1  9  2 -1</clus>
<clus scale="   79.615">  5  6 -1 -1</clus>
<clus scale="   83.216">  2  5  1 -1</clus>
<clus scale="   90.857">  7  8 -1 -1</clus>
<clus scale="   21.491">  1  5  2 -1</clus>
</clustering>
</event>
<event>
 9    1  0.4067873E-005  0.1003605E+03  0.7546771E-02  0.1285667E+00
         21   -1    0    0  501  502  0.00000000000E+00  0.00000000000E+00  0.44978702925E+02  0.44978702925E+02  0.00000000000E+00 0.  1.
          1   -1    0    0  502    0 -0.00000000000E+00 -0.00000000000E+00 -0.62215435252E+03  0.62215435252E+03  0.00000000000E+00 0. -1.
        -24    2    1    2    0    0  0.27418870932E+02  0.11233686397E+02 -0.40200015362E+03  0.41110625036E+03  0.80785118541E+02 0.  0.
         23    2    1    2    0    0 -0.65134911215E+02 -0.26937765886E+02 -0.18047171710E+03  0.21483010904E+03  0.92810210585E+02 0.  0.
         11    1    3    3    0    0 -0.18624340423E+02  0.11689882772E+02 -0.35737246900E+02  0.41960341174E+02  0.00000000000E+00 0. -1.
        -12    1    3    3    0    0  0.46043211354E+02 -0.45619637520E+00 -0.36626290672E+03  0.36914590918E+03  0.00000000000E+00 0.  1.
        -11    1    4    4    0    0 -0.63422439925E+02 -0.48868500228E+02 -0.17456912261E+03  0.19205445783E+03  0.00000000000E+00 0. -1.
         11    1    4    4    0    0 -0.17124712901E+01  0.21930734342E+02 -0.59025944851E+01  0.22775651217E+02  0.00000000000E+00 0.  1.
          2    1    1    2  501    0  0.37716040283E+02  0.15704079489E+02  0.52962211215E+01  0.41196696050E+02  0.00000000000E+00 0. -1.
<scales pt_clust_5="13000.00000" pt_clust_6="13000.00000" pt_clust_7="13000.00000" pt_clust_8="13000.00000" pt_clust_9="40.85484"></scales>
<clustering>
<clus scale="   40.855">  1  9  2 -1</clus>
<clus scale="   80.785">  5  6 -1 -1</clus>
<clus scale="   89.357">  2  5  1 -1</clus>
<clus scale="   92.810">  7  8 -1 -1</clus>
<clus scale="   40.855">  1  5  2 -1</clus>
</clustering>
</event>
<event>
 9    1  0.4067873E-005  0.9024950E+02  0.7546771E-02  0.1316477E+00
         -4   -1    0    0    0  501 -0.00000000000E+00  0.00000000000E+00  0.93700754243E+02  0.93700754243E+02  0.00000000000E+00 0.  1.
         21   -1    0    0  501  502  0.00000000000E+00 -0.00000000000E+00 -0.11184524227E+03  0.11184524227E+03  0.00000000000E+00 0. -1.
        -24    2    1    2    0    0 -0.78197516712E+01  0.37394566684E+01  0.15504874898E+01  0.67807712155E+02  0.67233546417E+02 0.  0.
         23    2    1    2    0    0 -0.29504175080E+01 -0.40206225800E+02 -0.59563962240E+01  0.97308464226E+02  0.88364093372E+02 0.  0.
         13    1    3    3    0    0 -0.34005569129E+02 -0.62032672713E+01 -0.12132823916E+02  0.36634200862E+02  0.00000000000E+00 0. -1.
        -14    1    3    3    0    0  0.26185817458E+02  0.99427239397E+01  0.13683311405E+02  0.31173511292E+02  0.00000000000E+00 0.  1.
        -13    1    4    4    0    0 -0.13900900161E+02  0.23809259183E+02  0.11785188790E+02  0.29983437477E+02  0.00000000000E+00 0.  1.
         13    1    4    4    0    0  0.10950482653E+02 -0.64015484983E+02 -0.17741585014E+02  0.67325026749E+02  0.00000000000E+00 0. -1.
         -3    1    1    2    0  502  0.10770169179E+02  0.36466769132E+02 -0.13738579296E+02  0.40429820135E+02  0.00000000000E+00 0.  1.
<scales pt_clust_5="13000.00000" pt_clust_6="13000.00000" pt_clust_7="13000.00000" pt_clust_8="13000.00000" pt_clust_9="38.02396"></scales>
<clustering>
<clus scale="   38.024">  2  9  1 -1</clus>
<clus scale="   67.234">  5  6 -1 -1</clus>
<clus scale="   69.693">  1  5  2 -1</clus>
<clus scale="   88.364">  7  8 -1 -1</clus>
<clus scale="   38.024">  2  5  1 -1</clus>
</clustering>
</event>
<event>
 9    1  0.4067873E-005  0.1543147E+03  0.7546771E-02  0.1197648E+00
         21   -1    0    0  501  502  0.00000000000E+00  0.00000000000E+00  0.18382459969E+03  0.18382459969E+03  0.00000000000E+00 0. -1.
         -2   -1    0    0    0  501 -0.00000000000E+00 -0.00000000000E+00 -0.25373447958E+03  0.25373447958E+03  0.00000000000E+00 0.  1.
        -24    2    1    2    0    0 -0.65737480797E+02 -0.84192523961E+02 -0.10028748593E+03  0.16705319070E+03  0.80245817434E+02 0.  0.
         23    2    1    2    0    0  0.12793209882E+03  0.11736861162E+03  0.12098687592E+02  0.19768458562E+03  0.93759288853E+02 0.  0.
         13    1    3    3    0    0 -0.64487773104E+02 -0.98281197832E+02 -0.97305536919E+02  0.15259827732E+03  0.00000000000E+00 0. -1.
        -14    1    3    3    0    0 -0.12497076931E+01  0.14088673871E+02 -0.29819490129E+01  0.14454913375E+02  0.00000000000E+00 0.  1.
        -11    1    4    4    0    0  0.95315361281E+02  0.72968692823E+02 -0.35178103878E+02  0.12508775808E+03  0.00000000000E+00 0.  1.
         11    1    4    4    0    0  0.32616737541E+02  0.44399918798E+02  0.47276791470E+02  0.72596827540E+02  0.00000000000E+00 0. -1.
         -1    1    1    2    0  502 -0.62194618024E+02 -0.33176087660E+02  0.18278918452E+02  0.72821302950E+02  0.00000000000E+00 0.  1.
<scales pt_clust_5="13000.00000" pt_clust_6="13000.00000" pt_clust_7="13000.00000" pt_clust_8="13000.00000" pt_clust_9="70.48988"></scales>
<clustering>
<clus scale="   70.490">  1  9  2 -1</clus>
<clus scale="   80.246">  5  6 -1 -1</clus>
<clus scale="   93.759">  7  8 -1 -1</clus>
<clus scale="  146.498">  2  5  1 -1</clus>
<clus scale="   70.490">  1  5  2 -1</clus>
</clustering>
</event>
<event>
 9    1  0.4067873E-005  0.9619772E+02  0.7546771E-02  0.1309354E+00
         -2   -1    0    0    0  501 -0.00000000000E+00  0.00000000000E+00  0.18347205391E+03  0.18347205391E+03  0.00000000000E+00 0.  1.
         21   -1    0    0  501  502  0.00000000000E+00 -0.00000000000E+00 -0.11598743106E+03  0.11598743106E+03  0.00000000000E+00 0. -1.
        -24    2    1    2    0    0  0.73242041203E+01 -0.41163267630E+02  0.13234758697E+03  0.14768838674E+03  0.50476898009E+02 0.  0.
         23    2    1    2    0    0  0.12918529866E+02  0.42917646160E+02 -0.16074592588E+02  0.98920825575E+02  0.86707118738E+02 0.  0.
         13    1    3    3    0    0 -0.20591703436E+02 -0.93920358314E+01  0.36859854743E+02  0.43253641224E+02  0.00000000000E+00 0. -1.
        -14    1    3    3    0    0  0.27915907557E+02 -0.31771231799E+02  0.95487732231E+02  0.10443474552E+03  0.00000000000E+00 0.  1.
        -13    1    4    4    0    0  0.41545257294E+02  0.39899657062E+02  0.11858827513E+02  0.58810057195E+02  0.00000000000E+00 0.  1.
         13    1    4    4    0    0 -0.28626727428E+02  0.30179890982E+01 -0.27933420102E+02  0.40110768380E+02  0.00000000000E+00 0. -1.
         -1    1    1    2    0  502 -0.20242733986E+02 -0.17543785297E+01 -0.48788371527E+02  0.52850272654E+02  0.00000000000E+00 0.  1.
<scales pt_clust_5="13000.00000" pt_clust_6="13000.00000" pt_clust_7="13000.00000" pt_clust_8="13000.00000" pt_clust_9="20.31862"></scales>
<clustering>
<clus scale="   20.319">  2  9  1 -1</clus>
<clus scale="   50.477">  5  6 -1 -1</clus>
<clus scale="   65.451">  1  5  2 -1</clus>
<clus scale="   86.707">  7  8 -1 -1</clus>
<clus scale="   20.319">  2  5  1 -1</clus>
</clustering>
</event>
<event>
 9    1  0.4067873E-005  0.1127435E+03  0.7546771E-02  0.1258830E+00
          3   -1    0    0  502    0 -0.00000000000E+00  0.00000000000E+00  0.35664668174E+03  0.35664668174E+03  0.00000000000E+00 0. -1.
         21   -1    0    0  501  502  0.00000000000E+00 -0.00000000000E+00 -0.14609500638E+03  0.14609500638E+03  0.00000000000E+00 0. -1.
        -24    2    1    2    0    0  0.71043439509E+02  0.44694757431E+02  0.46114538772E+02  0.12554936695E+03  0.81186829076E+02 0.  0.
         23    2    1    2    0    0 -0.43454567628E+02  0.27304131402E+02 -0.73464188368E+02  0.12710828277E+03  0.90142739787E+02 0.  0.
         11    1    3    3    0    0  0.83301825385E+02  0.49569606537E+02  0.24101501368E+02  0.99886046938E+02  0.00000000000E+00 0. -1.
        -12    1    3    3    0    0 -0.12258385876E+02 -0.48748491055E+01  0.22013037404E+02  0.25663320008E+02  0.00000000000E+00 0.  1.
        -11    1    4    4    0    0  0.20152504137E+02 -0.76985385099E+01 -0.43520210325E+02  0.48573651550E+02  0.00000000000E+00 0.  1.
         11    1    4    4    0    0 -0.63607071765E+02  0.35002669912E+02 -0.29943978044E+02  0.78534631218E+02  0.00000000000E+00 0. -1.
          4    1    1    2  501    0 -0.27588871881E+02 -0.71998888834E+02  0.23790132496E+03  0.25008403840E+03  0.00000000000E+00 0. -1.
<scales pt_clust_5="13000.00000" pt_clust_6="13000.00000" pt_clust_7="13000.00000" pt_clust_8="13000.00000" pt_clust_9="77.10377"></scales>
<clustering>
<clus scale="   77.104">  2  9  1 -1</clus>
<clus scale="   81.187">  5  6 -1 -1</clus>
<clus scale="   90.143">  7  8 -1 -1</clus>
<clus scale="  105.720">  1  5  2 -1</clus>
<clus scale="   77.104">  2  5  1 -1</clus>
</clustering>
</event>
<event>
 9    1  0.4067873E-005  0.1056325E+03  0.7546771E-02  0.1274787E+00
         -2   -1    0    0    0  501 -0.00000000000E+00  0.00000000000E+00  0.45413195833E+02  0.45413195833E+02  0.00000000000E+00 0.  1.
         21   -1    0    0  501  502  0.00000000000E+00 -0.00000000000E+00 -0.56019201794E+03  0.56019201794E+03  0.00000000000E+00 0.  1.
        -24    2    1    2    0    0  0.52429032836E+02 -0.47400174313E+02 -0.10821948493E+03  0.15129070893E+03  0.78624688747E+02 0.  0.
         23    2    1    2    0    0  0.33168483091E+02  0.37525588309E+02 -0.29708871610E+03  0.31500097693E+03  0.91954293987E+02 0.  0.
         11    1    3    3    0    0  0.39186205848E+02 -0.16936680145E+02 -0.11003279203E+03  0.11802383312E+03  0.00000000000E+00 0. -1.
        -12    1    3    3    0    0  0.13242826988E+02 -0.30463494168E+02  0.18133070950E+01  0.33266875810E+02  0.00000000000E+00 0.  1.
        -11    1    4    4    0    0  0.56499025907E+02  0.13593625966E+01 -0.11831887595E+03  0.13112339304E+03  0.00000000000E+00 0.  1.
         11    1    4    4    0    0 -0.23330542817E+02  0.36166225712E+02 -0.17876984015E+03  0.18387758389E+03  0.00000000000E+00 0. -1.
         -1    1    1    2    0  502 -0.85597515926E+02  0.98745860042E+01 -0.10947062108E+03  0.13931352792E+03  0.00000000000E+00 0.  1.
<scales pt_clust_5="13000.00000" pt_clust_6="13000.00000" pt_clust_7="13000.00000" pt_clust_8="13000.00000" pt_clust_9="86.16525"></scales>
<clustering>
<clus scale="   78.625">  5  6 -1 -1</clus>
<clus scale="   86.165">  2  9  1 -1</clus>
<clus scale="   91.954">  7  8 -1 -1</clus>
<clus scale="   94.258">  1  5  2 -1</clus>
<clus scale="   86.165">  2  5  1 -1</clus>
</clustering>
</event>
<event>
 9    1  0.4067873E-005  0.1056569E+03  0.7546771E-02  0.1273033E+00
         21   -1    0    0  501  502  0.00000000000E+00  0.00000000000E+00  0.31993269518E+03  0.31993269518E+03  0.00000000000E+00 0. -1.
          1   -1    0    0  502    0 -0.00000000000E+00 -0.00000000000E+00 -0.89207077552E+02  0.89207077552E+02  0.00000000000E+00 0. -1.
        -24    2    1    2    0    0  0.49768743592E+02  0.54852452960E+02  0.11681892169E+02  0.10882896165E+03  0.78876846129E+02 0.  0.
         23    2    1    2    0    0 -0.53714944936E+02  0.15722729064E+02  0.48435962025E+02  0.11563964991E+03  0.88848110256E+02 0.  0.
         13    1    3    3    0    0  0.14701881910E+02  0.59513979522E+02 -0.16630604350E+02  0.63518785342E+02  0.00000000000E+00 0. -1.
        -14    1    3    3    0    0  0.35066861683E+02 -0.46615265627E+01  0.28312496518E+02  0.45310176311E+02  0.00000000000E+00 0.  1.
        -11    1    4    4    0    0  0.12458838309E+02 -0.19446813385E+02  0.31071889673E+02  0.38715158926E+02  0.00000000000E+00 0.  1.
         11    1    4    4    0    0 -0.66173783245E+02  0.35169542449E+02  0.17364072353E+02  0.76924490987E+02  0.00000000000E+00 0. -1.
          2    1    1    2  501    0  0.39462013432E+01 -0.70575182023E+02  0.17060776343E+03  0.18467116117E+03  0.00000000000E+00 0. -1.
<scales pt_clust_5="13000.00000" pt_clust_6="13000.00000" pt_clust_7="13000.00000" pt_clust_8="13000.00000" pt_clust_9="70.68542"></scales>
<clustering>
<clus scale="   70.685">  1  9  2 -1</clus>
<clus scale="   78.877">  5  6 -1 -1</clus>
<clus scale="   88.848">  7  8 -1 -1</clus>
<clus scale="   97.421">  2  5  1 -1</clus>
<clus scale="   70.685">  1  5  2 -1</clus>
</clustering>
</event>
<event>
 9    1  0.4067873E-005  0.9999187E+02  0.7546771E-02  0.1284711E+00
         21   -1    0    0  501  502  0.00000000000E+00  0.00000000000E+00  0.88032145982E+02  0.88032145982E+02  0.00000000000E+00 0. -1.
         -4   -1    0    0    0  501 -0.00000000000E+00 -0.00000000000E+00 -0.14106721196E+03  0.14106721196E+03  0.00000000000E+00 0.  1.
         23    2    1    2    0    0  0.53771106581E+01 -0.53723695850E+02 -0.43977795455E+02  0.11347989216E+03  0.89601844938E+02 0.  0.
        -24    2    1    2    0    0 -0.12593075102E+02  0.30079785896E+02  0.51991305735E+01  0.87082654593E+02  0.80579021538E+02 0.  0.
         11    1    4    4    0    0  0.31718598701E+01  0.54411983088E+02  0.14909583545E+02  0.56506816227E+02  0.00000000000E+00 0. -1.
        -12    1    4    4    0    0 -0.15764934972E+02 -0.24332197192E+02 -0.97104529714E+01  0.30575838366E+02  0.00000000000E+00 0.  1.
        -13    1    3    3    0    0 -0.23812231970E+02  0.11740361237E+02  0.45285783344E+01  0.26932628819E+02  0.00000000000E+00 0. -1.
         13    1    3    3    0    0  0.29189342628E+02 -0.65464057086E+02 -0.48506373790E+02  0.86547263339E+02  0.00000000000E+00 0.  1.
         -3    1    1    2    0  502  0.72159644440E+01  0.23643909953E+02 -0.14256401097E+02  0.28536811191E+02  0.00000000000E+00 0.  1.
<scales pt_clust_5="13000.00000" pt_clust_6="13000.00000" pt_clust_7="13000.00000" pt_clust_8="13000.00000" pt_clust_9="24.72054"></scales>
<clustering>
<clus scale="   24.721">  1  9  2 -1</clus>
<clus scale="   80.579">  5  6 -1 -1</clus>
<clus scale="   89.602">  7  8 -1 -1</clus>
<clus scale="   91.994">  1  5  2 -1</clus>
<clus scale="   24.721">  1  5  2 -1</clus>
</clustering>
</event>
<event>
 9    1  0.4067873E-005  0.1301786E+03  0.7546771E-02  0.1229156E+00
         -2   -1    0    0    0  501 -0.00000000000E+00  0.00000000000E+00  0.43240009442E+03  0.43240009442E+03  0.00000000000E+00 0.  1.
         21   -1    0    0  501  502  0.00000000000E+00 -0.00000000000E+00 -0.77419945180E+02  0.77419945180E+02  0.00000000000E+00 0. -1.
        -24    2    1    2    0    0  0.61272705220E+02 -0.96239708966E+02  0.14352097505E+03  0.20018654543E+03  0.80373855844E+02 0.  0.
         23    2    1    2    0    0 -0.93212126738E+02  0.12521020586E+02  0.84270893177E+02  0.15405134784E+03  0.88232407915E+02 0.  0.
         11    1    3    3    0    0  0.23328561608E+02 -0.92832457244E+01 -0.33571952344E+01  0.25331229692E+02  0.00000000000E+00 0. -1.
        -12    1    3    3    0    0  0.37944143612E+02 -0.86956463242E+02  0.14687817029E+03  0.17485531573E+03  0.00000000000E+00 0.  1.
        -11    1    4    4    0    0 -0.60739524080E+02  0.50439252746E+02  0.54318861749E+02  0.95832910552E+02  0.00000000000E+00 0.  1.
         11    1    4    4    0    0 -0.32472602658E+02 -0.37918232160E+02  0.29952031428E+02  0.58218437287E+02  0.00000000000E+00 0. -1.
         -1    1    1    2    0  502  0.31939421518E+02  0.83718688381E+02  0.12718828101E+03  0.15558214633E+03  0.00000000000E+00 0.  1.
<scales pt_clust_5="13000.00000" pt_clust_6="13000.00000" pt_clust_7="13000.00000" pt_clust_8="13000.00000" pt_clust_9="89.60443"></scales>
<clustering>
<clus scale="   80.374">  5  6 -1 -1</clus>
<clus scale="   88.232">  7  8 -1 -1</clus>
<clus scale="   89.604">  2  9  1 -1</clus>
<clus scale="  124.986">  1  5  2 -1</clus>
<clus scale="   89.604">  2  5  1 -1</clus>
</clustering>
</event>
<event>
 9    1  0.4067873E-005  0.1025878E+03  0.7546771E-02  0.1280015E+00
          3   -1    0    0  502    0 -0.00000000000E+00  0.00000000000E+00  0.44168761520E+03  0.44168761520E+03  0.00000000000E+00 0. -1.
         21   -1    0    0  501  502  0.00000000000E+00 -0.00000000000E+00 -0.50633112994E+02  0.50633112994E+02  0.00000000000E+00 0.  1.
        -24    2    1    2    0    0 -0.27128750284E+02  0.33082289029E+02  0.33242862042E+03  0.34492927149E+03  0.81467832415E+02 0.  0.
         23    2    1    2    0    0  0.23249832641E+02 -0.53774076332E+02  0.62752735228E+02  0.12593855519E+03  0.92143409433E+02 0.  0.
         11    1    3    3    0    0 -0.36282402580E+02  0.52071737507E+02  0.29698406699E+03  0.30368966830E+03  0.00000000000E+00 0. -1.
        -12    1    3    3    0    0  0.91536522961E+01 -0.18989448478E+02  0.35444553423E+02  0.41239603189E+02  0.00000000000E+00 0.  1.
        -13    1    4    4    0    0 -0.47977509971E+01 -0.68353904158E+02  0.64735944690E+02  0.94265673303E+02  0.00000000000E+00 0. -1.
         13    1    4    4    0    0  0.28047583638E+02  0.14579827826E+02 -0.19832094624E+01  0.31672881889E+02  0.00000000000E+00 0.  1.
          4    1    1    2  501    0  0.38789176428E+01  0.20691787303E+02 -0.41268534408E+01  0.21452901510E+02  0.00000000000E+00 0. -1.
<scales pt_clust_5="13000.00000" pt_clust_6="13000.00000" pt_clust_7="13000.00000" pt_clust_8="13000.00000" pt_clust_9="21.05222"></scales>
<clustering>
<clus scale="   21.052">  2  9  1 -1</clus>
<clus scale="   81.468">  5  6 -1 -1</clus>
<clus scale="   92.143">  7  8 -1 -1</clus>
<clus scale="   93.117">  1  5  2 -1</clus>
<clus scale="   21.052">  2  5  1 -1</clus>
</clustering>
</event>
<event>
 9    1  0.4067873E-005  0.1170408E+03  0.7546771E-02  0.1251814E+00
          1   -1    0    0  502    0 -0.00000000000E+00  0.00000000000E+00  0.20381694293E+03  0.20381694293E+03  0.00000000000E+00 0. -1.
         21   -1    0    0  501  502  0.00000000000E+00 -0.00000000000E+00 -0.18434203709E+03  0.18434203709E+03  0.00000000000E+00 0. -1.
        -24    2    1    2    0    0  0.81233975455E+02 -0.16376801841E+02  0.14684759760E+03  0.18708316272E+03  0.81047729428E+02 0.  0.
         23    2    1    2    0    0 -0.24027768599E+02  0.10803414430E+02 -0.62263661867E+02  0.11422653104E+03  0.92070024319E+02 0.  0.
         11    1    3    3    0    0  0.68266063336E+02  0.78499739785E+01  0.14387658296E+03  0.15944387294E+03  0.00000000000E+00 0. -1.
        -12    1    3    3    0    0  0.12967912120E+02 -0.24226775820E+02  0.29710146401E+01  0.27639289777E+02  0.00000000000E+00 0.  1.
        -13    1    4    4    0    0  0.22714244945E+02  0.22223996408E+02 -0.57727500828E+02  0.65896185713E+02  0.00000000000E+00 0. -1.
         13    1    4    4    0    0 -0.46742013544E+02 -0.11420581978E+02 -0.45361610394E+01  0.48330345331E+02  0.00000000000E+00 0.  1.
          2    1    1    2  501    0 -0.57206206856E+02  0.55733874114E+01 -0.65109029890E+02  0.86849286257E+02  0.00000000000E+00 0. -1.
<scales pt_clust_5="13000.00000" pt_clust_6="13000.00000" pt_clust_7="13000.00000" pt_clust_8="13000.00000" pt_clust_9="57.47706"></scales>
<clustering>
<clus scale="   57.477">  2  9  1 -1</clus>
<clus scale="   81.048">  5  6 -1 -1</clus>
<clus scale="   92.070">  7  8 -1 -1</clus>
<clus scale="  108.584">  1  5  2 -1</clus>
<clus scale="   57.477">  2  5  1 -1</clus>
</clustering>
</event>
<event>
 9    1  0.4067873E-005  0.1139174E+03  0.7546771E-02  0.1257152E+00
         21   -1    0    0  501  502  0.00000000000E+00  0.00000000000E+00  0.52559408691E+02  0.52559408691E+02  0.00000000000E+00 0.  1.
          1   -1    0    0  502    0 -0.00000000000E+00 -0.00000000000E+00 -0.49177005460E+03  0.49177005460E+03  0.00000000000E+00 0. -1.
        -24    2    1    2    0    0  0.57308892434E+00 -0.76305768659E+02 -0.30641186216E+03  0.32586715118E+03  0.80487714490E+02 0.  0.
         23    2    1    2    0    0 -0.13934226175E+02  0.38499558109E+02 -0.23845380644E+02  0.10236462224E+03  0.90738828928E+02 0.  0.
         11    1    3    3    0    0 -0.11925738243E+02 -0.90835941376E+02 -0.25911307643E+03  0.27483263609E+03  0.00000000000E+00 0. -1.
        -12    1    3    3    0    0  0.12498827168E+02  0.14530172717E+02 -0.47298785723E+02  0.51034515092E+02  0.00000000000E+00 0.  1.
        -11    1    4    4    0    0  0.36046586231E+02  0.30385045277E+02 -0.21111560102E+02  0.51655641757E+02  0.00000000000E+00 0. -1.
         11    1    4    4    0    0 -0.49980812406E+02  0.81145128328E+01 -0.27338205420E+01  0.50708980487E+02  0.00000000000E+00 0.  1.
          2    1    1    2  501    0  0.13361137251E+02  0.37806210549E+02 -0.10895340310E+03  0.11609768987E+03  0.00000000000E+00 0. -1.
<scales pt_clust_5="13000.00000" pt_clust_6="13000.00000" pt_clust_7="13000.00000" pt_clust_8="13000.00000" pt_clust_9="40.09777"></scales>
<clustering>
<clus scale="   40.098">  1  9  2 -1</clus>
<clus scale="   80.488">  5  6 -1 -1</clus>
<clus scale="   90.739">  7  8 -1 -1</clus>
<clus scale="  105.933">  2  5  1 -1</clus>
<clus scale="   40.098">  1  5  2 -1</clus>
</clustering>
</event>
<event>
 9    1  0.4067873E-005  0.1887114E+03  0.7546771E-02  0.1159674E+00
          1   -1    0    0  502    0 -0.00000000000E+00  0.00000000000E+00  0.11281231647E+04  0.11281231647E+04  0.00000000000E+00 0. -1.
         21   -1    0    0  501  502  0.00000000000E+00 -0.00000000000E+00 -0.69817007381E+02  0.69817007381E+02  0.00000000000E+00 0. -1.
         23    2    1    2    0    0  0.64765469194E+02 -0.16508482771E+03  0.61104986866E+03  0.64153103874E+03  0.82052211077E+02 0.  0.
        -24    2    1    2    0    0 -0.12833791131E+03  0.11340913378E+03  0.43369045040E+03  0.47336778996E+03  0.81592932913E+02 0.  0.
         13    1    4    4    0    0 -0.92973325425E+01  0.38423266354E+02  0.44472357447E+02  0.59502759319E+02  0.00000000000E+00 0. -1.
        -14    1    4    4    0    0 -0.11904057877E+03  0.74985867426E+02  0.38921809296E+03  0.41386503065E+03  0.00000000000E+00 0.  1.
        -13    1    3    3    0    0  0.97385653743E+01 -0.25701132245E+02  0.26867503725E+02  0.38435018025E+02  0.00000000000E+00 0.  1.
         13    1    3    3    0    0  0.55026903820E+02 -0.13938369547E+03  0.58418236493E+03  0.60309602072E+03  0.00000000000E+00 0. -1.
          2    1    1    2  501    0  0.63572442116E+02  0.51675693934E+02  0.13565838247E+02  0.83041343363E+02  0.00000000000E+00 0. -1.
<scales pt_clust_5="13000.00000" pt_clust_6="13000.00000" pt_clust_7="13000.00000" pt_clust_8="13000.00000" pt_clust_9="81.92578"></scales>
<clustering>
<clus scale="   81.593">  5  6 -1 -1</clus>
<clus scale="   81.926">  2  9  1 -1</clus>
<clus scale="   82.052">  7  8 -1 -1</clus>
<clus scale="  188.512">  2  5  1 -1</clus>
<clus scale="   81.926">  2  5  1 -1</clus>
</clustering>
</event>
<event>
 9    1  0.4067873E-005  0.2253241E+03  0.7546771E-02  0.1131238E+00
         21   -1    0    0  501  502  0.00000000000E+00  0.00000000000E+00  0.68698832358E+02  0.68698832358E+02  0.00000000000E+00 0.  1.
         -4   -1    0    0    0  501 -0.00000000000E+00 -0.00000000000E+00 -0.11732899904E+04  0.11732899904E+04  0.00000000000E+00 0.  1.
        -24    2    1    2    0    0  0.21622536305E+03 -0.71719421413E+02 -0.44015777792E+03  0.50166938716E+03  0.77693123957E+02 0.  0.
         23    2    1    2    0    0 -0.15851888198E+03  0.80406583754E+02 -0.24728205777E+03  0.31910603305E+03  0.95324653585E+02 0.  0.
         13    1    3    3    0    0  0.54625709398E+02 -0.19878197121E+01 -0.51873241737E+02  0.75357499711E+02  0.00000000000E+00 0. -1.
        -14    1    3    3    0    0  0.16159965365E+03 -0.69731601701E+02 -0.38828453619E+03  0.42631188745E+03  0.00000000000E+00 0.  1.
        -13    1    4    4    0    0 -0.96067768404E+02  0.47264639870E+02 -0.21743195260E+03  0.24236257203E+03  0.00000000000E+00 0. -1.
         13    1    4    4    0    0 -0.62451113580E+02  0.33141943884E+02 -0.29850105167E+02  0.76743461026E+02  0.00000000000E+00 0.  1.
         -3    1    1    2    0  502 -0.57706481067E+02 -0.86871623408E+01 -0.41715132233E+03  0.42121340253E+03  0.00000000000E+00 0.  1.
<scales pt_clust_5="13000.00000" pt_clust_6="13000.00000" pt_clust_7="13000.00000" pt_clust_8="13000.00000" pt_clust_9="58.35673"></scales>
<clustering>
<clus scale="   58.357">  1  9  2 -1</clus>
<clus scale="   77.693">  5  6 -1 -1</clus>
<clus scale="   95.325">  7  8 -1 -1</clus>
<clus scale="  218.450">  2  5  1 -1</clus>
<clus scale="   58.357">  1  5  2 -1</clus>
</clustering>
</event>
<event>
 9    1  0.4067873E-005  0.1180827E+03  0.7546771E-02  0.1249719E+00
         21   -1    0    0  501  502  0.00000000000E+00  0.00000000000E+00  0.35236257591E+03  0.35236257591E+03  0.00000000000E+00 0. -1.
          1   -1    0    0  502    0 -0.00000000000E+00 -0.00000000000E+00 -0.46679754806E+02  0.46679754806E+02  0.00000000000E+00 0. -1.
        -24    2    1    2    0    0  0.72138082667E+02  0.23073255363E+02  0.95068029069E+02  0.14640003651E+03  0.81601240533E+02 0.  0.
         23    2    1    2    0    0 -0.73220803638E+02 -0.20699717047E+01  0.18838071144E+03  0.22203731832E+03  0.91911410679E+02 0.  0.
         13    1    3    3    0    0  0.90066219240E+02  0.23053522252E+02  0.74672542565E+02  0.11924503071E+03  0.00000000000E+00 0. -1.
        -14    1    3    3    0    0 -0.17928136573E+02  0.19733110616E-01  0.20395486504E+02  0.27155005802E+02  0.00000000000E+00 0.  1.
        -11    1    4    4    0    0 -0.93587278959E+02 -0.11220050129E+02  0.14026158043E+03  0.16899047090E+03  0.00000000000E+00 0. -1.
         11    1    4    4    0    0  0.20366475321E+02  0.91500784241E+01  0.48119131009E+02  0.53046847420E+02  0.00000000000E+00 0.  1.
          2    1    1    2  501    0  0.10827209713E+01 -0.21003283658E+02  0.22234080593E+02  0.30604975886E+02  0.00000000000E+00 0. -1.
<scales pt_clust_5="13000.00000" pt_clust_6="13000.00000" pt_clust_7="13000.00000" pt_clust_8="13000.00000" pt_clust_9="21.03118"></scales>
<clustering>
<clus scale="   21.031">  1  9  2 -1</clus>
<clus scale="   81.601">  5  6 -1 -1</clus>
<clus scale="   91.911">  7  8 -1 -1</clus>
<clus scale="  110.248">  2  5  1 -1</clus>
<clus scale="   21.031">  1  5  2 -1</clus>
</clustering>
</event>
<event>
 9    1  0.4067873E-005  0.9514196E+02  0.7546771E-02  0.1296481E+00
          1   -1    0    0  502    0 -0.00000000000E+00  0.00000000000E+00  0.80652703575E+02  0.80652703575E+02  0.00000000000E+00 0. -1.
         21   -1    0    0  501  502  0.00000000000E+00 -0.00000000000E+00 -0.26870745940E+03  0.26870745940E+03  0.00000000000E+00 0. -1.
        -24    2    1    2    0    0  0.30810972503E+02 -0.17133463076E+02 -0.38566662502E+02  0.96706067362E+02  0.81374470348E+02 0.  0.
         23    2    1    2    0    0 -0.15971230661E+02 -0.56528653415E+02 -0.13964171286E+03  0.17686968725E+03  0.91282580099E+02 0.  0.
         13    1    3    3    0    0  0.31124066755E+02  0.28999741025E+02 -0.19161403172E+02  0.46656745305E+02  0.00000000000E+00 0. -1.
        -14    1    3    3    0    0 -0.31309425238E+00 -0.46133204102E+02 -0.19405259330E+02  0.50049322057E+02  0.00000000000E+00 0.  1.
        -13    1    4    4    0    0 -0.51328883286E+02 -0.49405539281E+02 -0.10479164904E+03  0.12671563155E+03  0.00000000000E+00 0. -1.
         13    1    4    4    0    0  0.35357652625E+02 -0.71231141336E+01 -0.34850063820E+02  0.50154055692E+02  0.00000000000E+00 0.  1.
          2    1    1    2  501    0 -0.14839741842E+02  0.73662116491E+02 -0.98463804655E+01  0.75784408371E+02  0.00000000000E+00 0. -1.
<scales pt_clust_5="13000.00000" pt_clust_6="13000.00000" pt_clust_7="13000.00000" pt_clust_8="13000.00000" pt_clust_9="75.14207"></scales>
<clustering>
<clus scale="   75.142">  2  9  1 -1</clus>
<clus scale="   81.374">  5  6 -1 -1</clus>
<clus scale="   85.681">  1  5  2 -1</clus>
<clus scale="   91.283">  7  8 -1 -1</clus>
<clus scale="   75.142">  2  5  1 -1</clus>
</clustering>
</event>
<event>
 9    1  0.4067873E-005  0.9598944E+02  0.7546771E-02  0.1295467E+00
         21   -1    0    0  501  502  0.00000000000E+00  0.00000000000E+00  0.35692737179E+02  0.35692737179E+02  0.00000000000E+00 0.  1.
          3   -1    0    0  502    0 -0.00000000000E+00 -0.00000000000E+00 -0.49736410022E+03  0.49736410022E+03  0.00000000000E+00 0. -1.
         23    2    1    2    0    0  0.34816253207E+02 -0.11411092993E+02 -0.27902564188E+03  0.29599508712E+03  0.91735479714E+02 0.  0.
        -24    2    1    2    0    0 -0.16766922573E+02 -0.33967288334E+02 -0.16065003724E+03  0.18350070157E+03  0.80182084300E+02 0.  0.
         13    1    4    4    0    0 -0.20465203888E+02  0.18834787105E+02 -0.95990845745E+02  0.99939062645E+02  0.00000000000E+00 0. -1.
        -14    1    4    4    0    0  0.36982813147E+01 -0.52802075439E+02 -0.64659191494E+02  0.83561638926E+02  0.00000000000E+00 0.  1.
        -11    1    3    3    0    0 -0.15456352834E+02 -0.29425986077E+02 -0.44946199404E+02  0.55901237378E+02  0.00000000000E+00 0.  1.
         11    1    3    3    0    0  0.50272606041E+02  0.18014893084E+02 -0.23407944248E+03  0.24009384974E+03  0.00000000000E+00 0. -1.
          4    1    1    2  501    0 -0.18049330633E+02  0.45378381327E+02 -0.21995683921E+02  0.53561048714E+02  0.00000000000E+00 0. -1.
<scales pt_clust_5="13000.00000" pt_clust_6="13000.00000" pt_clust_7="13000.00000" pt_clust_8="13000.00000" pt_clust_9="48.83621"></scales>
<clustering>
<clus scale="   48.836">  1  9  2 -1</clus>
<clus scale="   80.182">  5  6 -1 -1</clus>
<clus scale="   85.016">  1  5  2 -1</clus>
<clus scale="   91.735">  7  8 -1 -1</clus>
<clus scale="   48.836">  1  5  2 -1</clus>
</clustering>
</event>
<event>
 9    1  0.4067873E-005  0.1661921E+03  0.7546771E-02  0.1183208E+00
         -4   -1    0    0    0  501 -0.00000000000E+00  0.00000000000E+00  0.37336611417E+03  0.37336611417E+03  0.00000000000E+00 0.  1.
         21   -1    0    0  501  502  0.00000000000E+00 -0.00000000000E+00 -0.96453785941E+02  0.96453785941E+02  0.00000000000E+00 0.  1.
        -24    2    1    2    0    0  0.30671866665E+02  0.15320721920E+03  0.17991741604E+03  0.25081445136E+03  0.78258526663E+02 0.  0.
         23    2    1    2    0    0 -0.46374089967E+02 -0.11161827932E+03  0.59466120338E+02  0.16082804803E+03  0.87864925121E+02 0.  0.
         13    1    3    3    0    0  0.28376497321E+02  0.13365611611E+02  0.15592624030E+02  0.35028489807E+02  0.00000000000E+00 0. -1.
        -14    1    3    3    0    0  0.22953693437E+01  0.13984160759E+03  0.16432479201E+03  0.21578596155E+03  0.00000000000E+00 0.  1.
        -13    1    4    4    0    0  0.17744837016E+02 -0.71493543987E+02  0.32677751563E+02  0.80585616085E+02  0.00000000000E+00 0.  1.
         13    1    4    4    0    0 -0.64118926983E+02 -0.40124735337E+02  0.26788368774E+02  0.80242431948E+02  0.00000000000E+00 0. -1.
         -3    1    1    2    0  502  0.15702223302E+02 -0.41588939875E+02  0.37528791848E+02  0.58177400716E+02  0.00000000000E+00 0.  1.
<scales pt_clust_5="13000.00000" pt_clust_6="13000.00000" pt_clust_7="13000.00000" pt_clust_8="13000.00000" pt_clust_9="44.45449"></scales>
<clustering>
<clus scale="   44.454">  2  9  1 -1</clus>
<clus scale="   78.259">  5  6 -1 -1</clus>
<clus scale="   87.865">  7  8 -1 -1</clus>
<clus scale="  161.319">  1  5  2 -1</clus>
<clus scale="   44.454">  2  5  1 -1</clus>
</clustering>
</event>
<event>
 9    1  0.4067873E-005  0.2047624E+03  0.7546771E-02  0.1166482E+00
         21   -1    0    0  501  502  0.00000000000E+00  0.00000000000E+00  0.42272064519E+02  0.42272064519E+02  0.00000000000E+00 0. -1.
          1   -1    0    0  502    0 -0.00000000000E+00 -0.00000000000E+00 -0.19135927090E+04  0.19135927090E+04  0.00000000000E+00 0. -1.
        -24    2    1    2    0    0 -0.88767463800E+02 -0.37258476047E+02 -0.65262539825E+03  0.66468578990E+03  0.81359892996E+02 0.  0.
         23    2    1    2    0    0  0.36562253746E+02 -0.17030332483E+03 -0.41135824942E+03  0.45595427639E+03  0.91316329016E+02 0.  0.
         13    1    3    3    0    0 -0.32362303407E+01 -0.39783941584E+02 -0.23784145506E+03  0.24116756195E+03  0.00000000000E+00 0. -1.
        -14    1    3    3    0    0 -0.85531233460E+02  0.25254655371E+01 -0.41478394319E+03  0.42351822795E+03  0.00000000000E+00 0.  1.
        -13    1    4    4    0    0  0.73708606068E+00 -0.27654656799E+02 -0.11600087351E+02  0.29998089357E+02  0.00000000000E+00 0.  1.
         13    1    4    4    0    0  0.35825167686E+02 -0.14264866804E+03 -0.39975816206E+03  0.42595618703E+03  0.00000000000E+00 0. -1.
          2    1    1    2  501    0  0.52205210054E+02  0.20756180088E+03 -0.80733699679E+03  0.83522470721E+03  0.00000000000E+00 0. -1.
<scales pt_clust_5="13000.00000" pt_clust_6="13000.00000" pt_clust_7="13000.00000" pt_clust_8="13000.00000" pt_clust_9="183.27306"></scales>
<clustering>
<clus scale="   81.360">  5  6 -1 -1</clus>
<clus scale="   91.316">  7  8 -1 -1</clus>
<clus scale="  126.045">  2  5  1 -1</clus>
<clus scale="  183.273">  1  9  2 -1</clus>
<clus scale="  183.273">  1  5  2 -1</clus>
</clustering>
</event>
<event>
 9    1  0.4067873E-005  0.1194198E+03  0.7546771E-02  0.1245137E+00
         21   -1    0    0  501  502  0.00000000000E+00  0.00000000000E+00  0.42079713199E+02  0.42079713199E+02  0.00000000000E+00 0.  1.
          3   -1    0    0  502    0 -0.00000000000E+00 -0.00000000000E+00 -0.78596428904E+03  0.78596428904E+03  0.00000000000E+00 0. -1.
        -24    2    1    2    0    0  0.54510711073E+02 -0.87913450707E+02 -0.56593026625E+03  0.58084075045E+03  0.79991991458E+02 0.  0.
         23    2    1    2    0    0 -0.44450164484E+02  0.12828267331E+02 -0.93451600970E+02  0.13371445443E+03  0.83701684775E+02 0.  0.
         11    1    3    3    0    0  0.63476679467E+02 -0.47920132988E+02 -0.46751697972E+03  0.47423386036E+03  0.00000000000E+00 0. -1.
        -12    1    3    3    0    0 -0.89659683940E+01 -0.39993317720E+02 -0.98413286527E+02  0.10660689010E+03  0.00000000000E+00 0.  1.
        -11    1    4    4    0    0 -0.53223151614E+02 -0.22714127744E+02 -0.67108150153E+02  0.88612297588E+02  0.00000000000E+00 0. -1.
         11    1    4    4    0    0  0.87729871299E+01  0.35542395075E+02 -0.26343450817E+02  0.45102156842E+02  0.00000000000E+00 0.  1.
          4    1    1    2  501    0 -0.10060546589E+02  0.75085183377E+02 -0.84502708625E+02  0.11348879736E+03  0.00000000000E+00 0. -1.
<scales pt_clust_5="13000.00000" pt_clust_6="13000.00000" pt_clust_7="13000.00000" pt_clust_8="13000.00000" pt_clust_9="75.75618"></scales>
<clustering>
<clus scale="   75.756">  1  9  2 -1</clus>
<clus scale="   79.992">  5  6 -1 -1</clus>
<clus scale="   83.702">  7  8 -1 -1</clus>
<clus scale="  116.850">  2  5  1 -1</clus>
<clus scale="   75.756">  1  5  2 -1</clus>
</clustering>
</event>
<event>
 9    1  0.4067873E-005  0.1341435E+03  0.7546771E-02  0.1224470E+00
          1   -1    0    0  502    0 -0.00000000000E+00  0.00000000000E+00  0.68625303270E+02  0.68625303270E+02  0.00000000000E+00 0. -1.
         21   -1    0    0  501  502  0.00000000000E+00 -0.00000000000E+00 -0.34239136897E+03  0.34239136897E+03  0.00000000000E+00 0. -1.
         23    2    1    2    0    0 -0.19379767028E+02 -0.95457588130E+02 -0.89200233357E+02  0.16071947900E+03  0.91576977446E+02 0.  0.
        -24    2    1    2    0    0 -0.86369141483E+01  0.10041660886E+03 -0.10438198287E+03  0.16521502104E+03  0.79008310992E+02 0.  0.
         11    1    4    4    0    0 -0.37036701916E+02  0.90173038865E+02 -0.74046434670E+02  0.12241637437E+03  0.00000000000E+00 0. -1.
        -12    1    4    4    0    0  0.28399787768E+02  0.10243570000E+02 -0.30335548205E+02  0.42798646666E+02  0.00000000000E+00 0.  1.
        -13    1    3    3    0    0 -0.46381993044E+02 -0.33034255762E+02 -0.69624637966E+02  0.89945214127E+02  0.00000000000E+00 0.  1.
         13    1    3    3    0    0  0.27002226015E+02 -0.62423332369E+02 -0.19575595391E+02  0.70774264876E+02  0.00000000000E+00 0. -1.
          2    1    1    2  501    0  0.28016681177E+02 -0.49590207338E+01 -0.80183849465E+02  0.85082172197E+02  0.00000000000E+00 0. -1.
<scales pt_clust_5="13000.00000" pt_clust_6="13000.00000" pt_clust_7="13000.00000" pt_clust_8="13000.00000" pt_clust_9="28.45218"></scales>
<clustering>
<clus scale="   28.452">  2  9  1 -1</clus>
<clus scale="   79.008">  5  6 -1 -1</clus>
<clus scale="   91.577">  7  8 -1 -1</clus>
<clus scale="  125.899">  2  5  1 -1</clus>
<clus scale="   28.452">  2  5  1 -1</clus>
</clustering>
</event>
<event>
 9    1  0.4067873E-005  0.1083109E+03  0.7546771E-02  0.1268347E+00
         21   -1    0    0  501  502  0.00000000000E+00  0.00000000000E+00  0.28628010581E+03  0.28628010581E+03  0.00000000000E+00 0. -1.
          1   -1    0    0  502    0 -0.00000000000E+00 -0.00000000000E+00 -0.11791185684E+03  0.11791185684E+03  0.00000000000E+00 0. -1.
        -24    2    1    2    0    0 -0.41425563444E+02  0.30877858511E+02 -0.36850261298E+02  0.10400673936E+03  0.82401096001E+02 0.  0.
         23    2    1    2    0    0 -0.19017249956E+01 -0.10030723081E+03  0.12250027797E+03  0.18382372786E+03  0.93379268113E+02 0.  0.
         11    1    3    3    0    0 -0.33414276667E+02  0.59011052762E+02 -0.28726411895E+02  0.73647980105E+02  0.00000000000E+00 0. -1.
        -12    1    3    3    0    0 -0.80112867771E+01 -0.28133194250E+02 -0.81238494032E+01  0.30358759258E+02  0.00000000000E+00 0.  1.
        -13    1    4    4    0    0  0.22095633182E+01 -0.74779921313E+02  0.13557725990E+03  0.15484867518E+03  0.00000000000E+00 0. -1.
         13    1    4    4    0    0 -0.41112883138E+01 -0.25527309498E+02 -0.13076981934E+02  0.28975052689E+02  0.00000000000E+00 0.  1.
          2    1    1    2  501    0  0.43327288440E+02  0.69429372300E+02  0.82718232298E+02  0.11636149542E+03  0.00000000000E+00 0. -1.
<scales pt_clust_5="13000.00000" pt_clust_6="13000.00000" pt_clust_7="13000.00000" pt_clust_8="13000.00000" pt_clust_9="81.83943"></scales>
<clustering>
<clus scale="   81.839">  1  9  2 -1</clus>
<clus scale="   82.401">  5  6 -1 -1</clus>
<clus scale="   93.379">  7  8 -1 -1</clus>
<clus scale="   99.003">  2  5  1 -1</clus>
<clus scale="   81.839">  1  5  2 -1</clus>
</clustering>
</event>
<event>
 9    1  0.4067873E-005  0.1200305E+03  0.7546771E-02  0.1247121E+00
          1   -1    0    0  502    0 -0.00000000000E+00  0.00000000000E+00  0.45464721857E+02  0.45464721857E+02  0.00000000000E+00 0. -1.
         21   -1    0    0  501  502  0.00000000000E+00 -0.00000000000E+00 -0.42614501419E+03  0.42614501419E+03  0.00000000000E+00 0. -1.
        -24    2    1    2    0    0 -0.19176397288E+01  0.62092640699E+02 -0.12972765182E+03  0.16472503412E+03  0.80286361526E+02 0.  0.
         23    2    1    2    0    0 -0.25147502139E+02 -0.93612241687E+02 -0.17824738529E+03  0.22314665032E+03  0.92879753056E+02 0.  0.
         13    1    3    3    0    0  0.20582822498E+02  0.56822699463E+02 -0.12800111826E+03  0.14155125585E+03  0.00000000000E+00 0. -1.
        -14    1    3    3    0    0 -0.22500462227E+02  0.52699412364E+01 -0.17265335577E+01  0.23173778267E+02  0.00000000000E+00 0.  1.
        -13    1    4    4    0    0  0.75728624565E+01 -0.81153531648E+02 -0.63927804427E+02  0.10358575251E+03  0.00000000000E+00 0. -1.
         13    1    4    4    0    0 -0.32720364595E+02 -0.12458710039E+02 -0.11431958087E+03  0.11956089781E+03  0.00000000000E+00 0.  1.
          2    1    1    2  501    0  0.27065141867E+02  0.31519600988E+02 -0.72705255213E+02  0.83738051604E+02  0.00000000000E+00 0. -1.
<scales pt_clust_5="13000.00000" pt_clust_6="13000.00000" pt_clust_7="13000.00000" pt_clust_8="13000.00000" pt_clust_9="41.54524"></scales>
<clustering>
<clus scale="   41.545">  2  9  1 -1</clus>
<clus scale="   80.286">  5  6 -1 -1</clus>
<clus scale="   92.880">  7  8 -1 -1</clus>
<clus scale="  110.574">  1  5  2 -1</clus>
<clus scale="   41.545">  2  5  1 -1</clus>
</clustering>
</event>
<event>
 9    1  0.4067873E-005  0.1289743E+03  0.7546771E-02  0.1242837E+00
         21   -1    0    0  501  502  0.00000000000E+00  0.00000000000E+00  0.27155999588E+03  0.27155999588E+03  0.00000000000E+00 0. -1.
          1   -1    0    0  502    0 -0.00000000000E+00 -0.00000000000E+00 -0.29609036403E+03  0.29609036403E+03  0.00000000000E+00 0. -1.
         23    2    1    2    0    0  0.53329919546E+02  0.24132931596E+02 -0.24793657550E+03  0.28103589268E+03  0.11866822994E+03 0.  0.
        -24    2    1    2    0    0 -0.24396260614E+02  0.10165324499E+02  0.36573921958E+02  0.94469131994E+02  0.82995504566E+02 0.  0.
         11    1    4    4    0    0 -0.49374670830E+02 -0.55684585283E+01  0.41251895778E+02  0.64580064689E+02  0.00000000000E+00 0. -1.
        -12    1    4    4    0    0  0.24978410217E+02  0.15733783027E+02 -0.46779738193E+01  0.29889067305E+02  0.00000000000E+00 0.  1.
        -13    1    3    3    0    0  0.88454682494E+02  0.16016204246E+02 -0.21134834581E+03  0.22967122791E+03  0.00000000000E+00 0. -1.
         13    1    3    3    0    0 -0.35124762948E+02  0.81167273500E+01 -0.36588229689E+02  0.51364664769E+02  0.00000000000E+00 0.  1.
          2    1    1    2  501    0 -0.28933658932E+02 -0.34298256095E+02  0.18683228539E+03  0.19214533524E+03  0.00000000000E+00 0. -1.
<scales pt_clust_5="13000.00000" pt_clust_6="13000.00000" pt_clust_7="13000.00000" pt_clust_8="13000.00000" pt_clust_9="44.87234"></scales>
<clustering>
<clus scale="   44.872">  1  9  2 -1</clus>
<clus scale="   82.996">  5  6 -1 -1</clus>
<clus scale="   97.162">  1  5  2 -1</clus>
<clus scale="  118.668">  7  8 -1 -1</clus>
<clus scale="   44.872">  1  5  2 -1</clus>
</clustering>
</event>
<event>
 9    1  0.4067873E-005  0.9117723E+02  0.7546771E-02  0.1307218E+00
         -2   -1    0    0    0  501 -0.00000000000E+00  0.00000000000E+00  0.13144052977E+03  0.13144052977E+03  0.00000000000E+00 0.  1.
         21   -1    0    0  501  502  0.00000000000E+00 -0.00000000000E+00 -0.10303166889E+03  0.10303166889E+03  0.00000000000E+00 0. -1.
        -24    2    1    2    0    0 -0.57002094164E+01  0.50013333364E+01  0.40960563482E+02  0.89768190321E+02  0.79517636473E+02 0.  0.
         23    2    1    2    0    0 -0.32814874251E+02  0.12247643171E+02  0.81687722672E+01  0.97690425845E+02  0.90828793485E+02 0.  0.
         13    1    3    3    0    0  0.19178863255E+02 -0.28701429021E+02  0.31698289395E+02  0.46865577711E+02  0.00000000000E+00 0. -1.
        -14    1    3    3    0    0 -0.24879072672E+02  0.33702762357E+02  0.92622740869E+01  0.42902612610E+02  0.00000000000E+00 0.  1.
        -11    1    4    4    0    0 -0.39025922383E+02  0.44615113298E+02  0.20173899255E+02  0.62614033281E+02  0.00000000000E+00 0.  1.
         11    1    4    4    0    0  0.62110481321E+01 -0.32367470127E+02 -0.12005126988E+02  0.35076392564E+02  0.00000000000E+00 0. -1.
         -1    1    1    2    0  502  0.38515083668E+02 -0.17248976508E+02 -0.20720474861E+02  0.47013582494E+02  0.00000000000E+00 0.  1.
<scales pt_clust_5="13000.00000" pt_clust_6="13000.00000" pt_clust_7="13000.00000" pt_clust_8="13000.00000" pt_clust_9="42.20117"></scales>
<clustering>
<clus scale="   42.201">  2  9  1 -1</clus>
<clus scale="   79.518">  5  6 -1 -1</clus>
<clus scale="   79.915">  1  5  2 -1</clus>
<clus scale="   90.829">  7  8 -1 -1</clus>
<clus scale="   42.201">  2  5  1 -1</clus>
</clustering>
</event>
<event>
 9    1  0.4067873E-005  0.1265011E+03  0.7546771E-02  0.1242213E+00
          3   -1    0    0  502    0 -0.00000000000E+00  0.00000000000E+00  0.66933433148E+02  0.66933433148E+02  0.00000000000E+00 0. -1.
         21   -1    0    0  501  502  0.00000000000E+00 -0.00000000000E+00 -0.88984930752E+03  0.88984930752E+03  0.00000000000E+00 0. -1.
        -24    2    1    2    0    0  0.53242899549E+00 -0.65573661786E+02 -0.50937577443E+00  0.10428277104E+03  0.81082971531E+02 0.  0.
         23    2    1    2    0    0  0.38845248542E+02 -0.41825815278E+02 -0.33280831942E+03  0.34971609337E+03  0.91003386374E+02 0.  0.
         13    1    3    3    0    0  0.18737094706E+02 -0.49778451624E+02  0.33307160007E+02  0.62756193892E+02  0.00000000000E+00 0. -1.
        -14    1    3    3    0    0 -0.18204665710E+02 -0.15795210162E+02 -0.33816535782E+02  0.41526577152E+02  0.00000000000E+00 0.  1.
        -11    1    4    4    0    0  0.54560284790E+02  0.68780324963E+01 -0.19888643609E+03  0.20634908885E+03  0.00000000000E+00 0.  1.
         11    1    4    4    0    0 -0.15715036248E+02 -0.48703847774E+02 -0.13392188332E+03  0.14336700452E+03  0.00000000000E+00 0. -1.
          4    1    1    2  501    0 -0.39377677538E+02  0.10739947706E+03 -0.48959817919E+03  0.50278387626E+03  0.00000000000E+00 0. -1.
<scales pt_clust_5="13000.00000" pt_clust_6="13000.00000" pt_clust_7="13000.00000" pt_clust_8="13000.00000" pt_clust_9="87.86877"></scales>
<clustering>
<clus scale="   81.083">  5  6 -1 -1</clus>
<clus scale="   91.003">  7  8 -1 -1</clus>
<clus scale="  104.282">  1  5  2 -1</clus>
<clus scale="   87.869">  2  9  1 -1</clus>
<clus scale="   87.869">  2  5  1 -1</clus>
</clustering>
</event>
<event>
 9    1  0.4067873E-005  0.1004312E+03  0.7546771E-02  0.1284741E+00
         21   -1    0    0  501  502  0.00000000000E+00  0.00000000000E+00  0.61326487500E+02  0.61326487500E+02  0.00000000000E+00 0. -1.
          1   -1    0    0  502    0 -0.00000000000E+00 -0.00000000000E+00 -0.58356107546E+03  0.58356107546E+03  0.00000000000E+00 0. -1.
         23    2    1    2    0    0  0.87351937944E+00  0.39864865310E+02 -0.49881354890E+03  0.50877423359E+03  0.91903719598E+02 0.  0.
        -24    2    1    2    0    0  0.31158442258E+02 -0.44028245736E+02 -0.32157227088E+02  0.10265139152E+03  0.81202746140E+02 0.  0.
         13    1    4    4    0    0  0.53358035809E+02 -0.46165308994E+02 -0.10086391360E+02  0.71274476712E+02  0.00000000000E+00 0. -1.
        -14    1    4    4    0    0 -0.22199593551E+02  0.21370632578E+01 -0.22070835728E+02  0.31376914809E+02  0.00000000000E+00 0.  1.
        -13    1    3    3    0    0 -0.41055686135E+02  0.40945540892E+02 -0.30712135096E+03  0.31254700590E+03  0.00000000000E+00 0.  1.
         13    1    3    3    0    0  0.41929205514E+02 -0.10806755812E+01 -0.19169219794E+03  0.19622722769E+03  0.00000000000E+00 0. -1.
          2    1    1    2  501    0 -0.32031961637E+02  0.41633804255E+01  0.87361880339E+01  0.33461937844E+02  0.00000000000E+00 0. -1.
<scales pt_clust_5="13000.00000" pt_clust_6="13000.00000" pt_clust_7="13000.00000" pt_clust_8="13000.00000" pt_clust_9="32.30140"></scales>
<clustering>
<clus scale="   32.301">  1  9  2 -1</clus>
<clus scale="   81.203">  5  6 -1 -1</clus>
<clus scale="   90.741">  1  5  2 -1</clus>
<clus scale="   91.904">  7  8 -1 -1</clus>
<clus scale="   32.301">  1  5  2 -1</clus>
</clustering>
</event>
<event>
 9    1  0.4067873E-005  0.8788497E+02  0.7546771E-02  0.1310013E+00
         -2   -1    0    0    0  501 -0.00000000000E+00  0.00000000000E+00  0.97087071832E+02  0.97087071832E+02  0.00000000000E+00 0.  1.
         21   -1    0    0  501  502  0.00000000000E+00 -0.00000000000E+00 -0.44528322321E+03  0.44528322321E+03  0.00000000000E+00 0.  1.
        -24    2    1    2    0    0  0.52322496409E+02  0.88572006946E+01 -0.18379002165E+03  0.20732557205E+03  0.79931390171E+02 0.  0.
         23    2    1    2    0    0  0.14306406600E+01  0.19851654730E+02 -0.23007378786E+03  0.24545767343E+03  0.83182850724E+02 0.  0.
         13    1    3    3    0    0 -0.77511604270E+01 -0.24904655386E+02 -0.38262365094E+02  0.46306920978E+02  0.00000000000E+00 0. -1.
        -14    1    3    3    0    0  0.60073656836E+02  0.33761856081E+02 -0.14552765656E+03  0.16101865108E+03  0.00000000000E+00 0.  1.
        -13    1    4    4    0    0  0.21135436189E+02 -0.23668344908E+02 -0.50533412528E+02  0.59670118110E+02  0.00000000000E+00 0. -1.
         13    1    4    4    0    0 -0.19704795529E+02  0.43519999638E+02 -0.17954037533E+03  0.18578755532E+03  0.00000000000E+00 0.  1.
         -1    1    1    2    0  502 -0.53753137069E+02 -0.28708855425E+02  0.65667658134E+02  0.89587049562E+02  0.00000000000E+00 0.  1.
<scales pt_clust_5="13000.00000" pt_clust_6="13000.00000" pt_clust_7="13000.00000" pt_clust_8="13000.00000" pt_clust_9="60.93933"></scales>
<clustering>
<clus scale="   60.939">  2  9  1 -1</clus>
<clus scale="   79.931">  5  6 -1 -1</clus>
<clus scale="   83.183">  7  8 -1 -1</clus>
<clus scale="   84.814">  1  5  2 -1</clus>
<clus scale="   60.939">  2  5  1 -1</clus>
</clustering>
</event>
<event>
 9    1  0.4067873E-005  0.2236084E+03  0.7546771E-02  0.1151208E+00
         21   -1    0    0  501  502  0.00000000000E+00  0.00000000000E+00  0.17695580208E+03  0.17695580208E+03  0.00000000000E+00 0.  1.
          1   -1    0    0  502    0 -0.00000000000E+00 -0.00000000000E+00 -0.50338070210E+03  0.50338070210E+03  0.00000000000E+00 0. -1.
        -24    2    1    2    0    0 -0.13600778112E+02 -0.11304260799E+03 -0.84230385111E+02  0.16185611409E+03  0.78351971939E+02 0.  0.
         23    2    1    2    0    0 -0.17737359788E+03  0.15809935820E+03 -0.18372066744E+03  0.31373539293E+03  0.90663183527E+02 0.  0.
         13    1    3    3    0    0 -0.18573506881E+02 -0.93728615049E+02 -0.98578648018E+02  0.13728721092E+03  0.00000000000E+00 0. -1.
        -14    1    3    3    0    0  0.49727287698E+01 -0.19313992938E+02  0.14348262906E+02  0.24568903172E+02  0.00000000000E+00 0.  1.
        -13    1    4    4    0    0 -0.18551379565E+03  0.13497866611E+03 -0.17085326456E+03  0.28605147560E+03  0.00000000000E+00 0.  1.
         13    1    4    4    0    0  0.81401977685E+01  0.23120692081E+02 -0.12867402878E+02  0.27683917332E+02  0.00000000000E+00 0. -1.
          2    1    1    2  501    0  0.19097437599E+03 -0.45056750209E+02 -0.58473847470E+02  0.20474499716E+03  0.00000000000E+00 0. -1.
<scales pt_clust_5="13000.00000" pt_clust_6="13000.00000" pt_clust_7="13000.00000" pt_clust_8="13000.00000" pt_clust_9="204.40383"></scales>
<clustering>
<clus scale="   78.352">  5  6 -1 -1</clus>
<clus scale="   90.663">  7  8 -1 -1</clus>
<clus scale="  138.212">  2  5  1 -1</clus>
<clus scale="  204.404">  1  9  2 -1</clus>
<clus scale="  204.404">  1  5  2 -1</clus>
</clustering>
</event>
<event>
 9    1  0.4067873E-005  0.9499244E+02  0.7546771E-02  0.1295924E+00
         21   -1    0    0  501  502  0.00000000000E+00  0.00000000000E+00  0.19376503191E+03  0.19376503191E+03  0.00000000000E+00 0. -1.
         -4   -1    0    0    0  501 -0.00000000000E+00 -0.00000000000E+00 -0.63758189875E+02  0.63758189875E+02  0.00000000000E+00 0.  1.
        -24    2    1    2    0    0 -0.10234014512E+02 -0.38054425572E+02  0.56770724302E+01  0.89730636495E+02  0.80414449049E+02 0.  0.
         23    2    1    2    0    0  0.56746826109E+01  0.16632014133E+02  0.10189733973E+03  0.13644101229E+03  0.89018290675E+02 0.  0.
         13    1    3    3    0    0  0.25389277873E+02  0.49931966429E+01  0.19224904716E+02  0.32235762825E+02  0.00000000000E+00 0. -1.
        -14    1    3    3    0    0 -0.35623292384E+02 -0.43047622215E+02 -0.13547832285E+02  0.57494873670E+02  0.00000000000E+00 0.  1.
        -13    1    4    4    0    0 -0.35746325693E+01 -0.36215687480E+02  0.33065918773E+02  0.49170204413E+02  0.00000000000E+00 0. -1.
         13    1    4    4    0    0  0.92493151802E+01  0.52847701614E+02  0.68831420954E+02  0.87270807879E+02  0.00000000000E+00 0.  1.
         -3    1    1    2    0  502  0.45593319009E+01  0.21422411439E+02  0.22432429876E+02  0.31351572997E+02  0.00000000000E+00 0.  1.
<scales pt_clust_5="13000.00000" pt_clust_6="13000.00000" pt_clust_7="13000.00000" pt_clust_8="13000.00000" pt_clust_9="21.90222"></scales>
<clustering>
<clus scale="   21.902">  1  9  2 -1</clus>
<clus scale="   80.414">  5  6 -1 -1</clus>
<clus scale="   86.982">  2  5  1 -1</clus>
<clus scale="   89.018">  7  8 -1 -1</clus>
<clus scale="   21.902">  1  5  2 -1</clus>
</clustering>
</event>
<event>
 9    1  0.4067873E-005  0.9119353E+02  0.7546771E-02  0.1307242E+00
         -4   -1    0    0    0  501 -0.00000000000E+00  0.00000000000E+00  0.13147941977E+03  0.13147941977E+03  0.00000000000E+00 0.  1.
         21   -1    0    0  501  502  0.00000000000E+00 -0.00000000000E+00 -0.76250544163E+02  0.76250544163E+02  0.00000000000E+00 0.  1.
         23    2    1    2    0    0 -0.88933795844E+01  0.68311873811E+01  0.22326004796E+02  0.94441989930E+02  0.91077338841E+02 0.  0.
        -24    2    1    2    0    0 -0.15813564044E+02  0.23300034138E+01  0.18946432226E+02  0.83469478766E+02  0.79703756924E+02 0.  0.
         13    1    4    4    0    0 -0.37934072566E+02  0.23115178362E+01  0.38389000666E+02  0.54018999882E+02  0.00000000000E+00 0. -1.
        -14    1    4    4    0    0  0.22120508522E+02  0.18485577618E-01 -0.19442568440E+02  0.29450478884E+02  0.00000000000E+00 0.  1.
        -11    1    3    3    0    0  0.24411305263E+02 -0.22229505412E+02 -0.15305786577E+02  0.36391342902E+02  0.00000000000E+00 0. -1.
         11    1    3    3    0    0 -0.33304684848E+02  0.29060692793E+02  0.37631791372E+02  0.58050647027E+02  0.00000000000E+00 0.  1.
         -3    1    1    2    0  502  0.24706943628E+02 -0.91611907949E+01  0.13956438586E+02  0.29818495238E+02  0.00000000000E+00 0.  1.
<scales pt_clust_5="13000.00000" pt_clust_6="13000.00000" pt_clust_7="13000.00000" pt_clust_8="13000.00000" pt_clust_9="26.35073"></scales>
<clustering>
<clus scale="   26.351">  2  9  1 -1</clus>
<clus scale="   79.704">  5  6 -1 -1</clus>
<clus scale="   79.837">  2  5  1 -1</clus>
<clus scale="   91.077">  7  8 -1 -1</clus>
<clus scale="   26.351">  2  5  1 -1</clus>
</clustering>
</event>
<event>
 9    1  0.4067873E-005  0.1672977E+03  0.7546771E-02  0.1182356E+00
         21   -1    0    0  501  502  0.00000000000E+00  0.00000000000E+00  0.59200820310E+02  0.59200820310E+02  0.00000000000E+00 0. -1.
          1   -1    0    0  502    0 -0.00000000000E+00 -0.00000000000E+00 -0.81515284972E+03  0.81515284972E+03  0.00000000000E+00 0. -1.
         23    2    1    2    0    0 -0.17281641700E+03 -0.67266044061E+02 -0.40529062355E+03  0.45501926013E+03  0.91606784009E+02 0.  0.
        -24    2    1    2    0    0  0.95066412419E+02  0.15285103620E+02 -0.13391625096E+03  0.18327182593E+03  0.79898327552E+02 0.  0.
         11    1    4    4    0    0  0.54821018549E+02 -0.82820532140E+01 -0.12365882720E+03  0.13551915741E+03  0.00000000000E+00 0. -1.
        -12    1    4    4    0    0  0.40245393871E+02  0.23567156834E+02 -0.10257423765E+02  0.47752668526E+02  0.00000000000E+00 0.  1.
        -11    1    3    3    0    0 -0.34921784429E+02  0.19884335744E+02 -0.50611803292E+02  0.64625633213E+02  0.00000000000E+00 0.  1.
         11    1    3    3    0    0 -0.13789463257E+03 -0.87150379806E+02 -0.35467882026E+03  0.39039362691E+03  0.00000000000E+00 0. -1.
          2    1    1    2  501    0  0.77750004583E+02  0.51980940441E+02 -0.21674515490E+03  0.23606258397E+03  0.00000000000E+00 0. -1.
<scales pt_clust_5="13000.00000" pt_clust_6="13000.00000" pt_clust_7="13000.00000" pt_clust_8="13000.00000" pt_clust_9="93.52588"></scales>
<clustering>
<clus scale="   79.898">  5  6 -1 -1</clus>
<clus scale="   91.607">  7  8 -1 -1</clus>
<clus scale="   93.526">  1  9  2 -1</clus>
<clus scale="  161.185">  1  5  2 -1</clus>
<clus scale="   93.526">  1  5  2 -1</clus>
</clustering>
</event>
<event>
 9    1  0.4067873E-005  0.1278640E+03  0.7546771E-02  0.1232451E+00
         -4   -1    0    0    0  501 -0.00000000000E+00  0.00000000000E+00  0.86559538086E+02  0.86559538086E+02  0.00000000000E+00 0.  1.
         21   -1    0    0  501  502  0.00000000000E+00 -0.00000000000E+00 -0.31256845045E+03  0.31256845045E+03  0.00000000000E+00 0.  1.
        -24    2    1    2    0    0  0.94220254516E+02  0.57633371060E+02 -0.67113459332E+02  0.15120995114E+03  0.78493127584E+02 0.  0.
         23    2    1    2    0    0 -0.36696746050E+02 -0.69987822691E+02 -0.14756776112E+03  0.18800223727E+03  0.85578330200E+02 0.  0.
         13    1    3    3    0    0  0.18803857827E+02  0.53162117070E+02 -0.45983743564E+02  0.72761943575E+02  0.00000000000E+00 0. -1.
        -14    1    3    3    0    0  0.75416396689E+02  0.44712539897E+01 -0.21129715768E+02  0.78448007561E+02  0.00000000000E+00 0.  1.
        -11    1    4    4    0    0  0.18382099171E+01 -0.36429275733E+02 -0.12831138873E+03  0.13339521590E+03  0.00000000000E+00 0.  1.
         11    1    4    4    0    0 -0.38534955967E+02 -0.33558546958E+02 -0.19256372390E+02  0.54607021370E+02  0.00000000000E+00 0. -1.
         -3    1    1    2    0  502 -0.57523508466E+02  0.12354451631E+02 -0.11327691907E+02  0.59915800131E+02  0.00000000000E+00 0.  1.
<scales pt_clust_5="13000.00000" pt_clust_6="13000.00000" pt_clust_7="13000.00000" pt_clust_8="13000.00000" pt_clust_9="58.83528"></scales>
<clustering>
<clus scale="   58.835">  2  9  1 -1</clus>
<clus scale="   78.493">  5  6 -1 -1</clus>
<clus scale="   85.578">  7  8 -1 -1</clus>
<clus scale="  123.234">  1  5  2 -1</clus>
<clus scale="   58.835">  2  5  1 -1</clus>
</clustering>
</event>
<event>
 9    1  0.4067873E-005  0.1664293E+03  0.7546771E-02  0.1192317E+00
         21   -1    0    0  501  502  0.00000000000E+00  0.00000000000E+00  0.59848205338E+02  0.59848205338E+02  0.00000000000E+00 0.  1.
          1   -1    0    0  502    0 -0.00000000000E+00 -0.00000000000E+00 -0.87890167742E+03  0.87890167742E+03  0.00000000000E+00 0. -1.
         23    2    1    2    0    0 -0.71656617396E+02 -0.61263371166E+02 -0.26597387974E+03  0.29659341767E+03  0.91310893302E+02 0.  0.
        -24    2    1    2    0    0  0.16083401009E+03 -0.46348236860E+02 -0.29003388889E+03  0.34428752133E+03  0.79990641823E+02 0.  0.
         11    1    4    4    0    0  0.87517080025E+02 -0.62980468202E+02 -0.14241893186E+03  0.17863071075E+03  0.00000000000E+00 0. -1.
        -12    1    4    4    0    0  0.73316930069E+02  0.16632231343E+02 -0.14761495702E+03  0.16565681058E+03  0.00000000000E+00 0.  1.
        -13    1    3    3    0    0  0.80409731486E+01 -0.45632918284E+02 -0.64958000177E+02  0.79790740486E+02  0.00000000000E+00 0.  1.
         13    1    3    3    0    0 -0.79697590544E+02 -0.15630452881E+02 -0.20101587956E+03  0.21680267718E+03  0.00000000000E+00 0. -1.
          2    1    1    2  501    0 -0.89177392698E+02  0.10761160803E+03 -0.26304570346E+03  0.29786894377E+03  0.00000000000E+00 0. -1.
<scales pt_clust_5="13000.00000" pt_clust_6="13000.00000" pt_clust_7="13000.00000" pt_clust_8="13000.00000" pt_clust_9="145.94603"></scales>
<clustering>
<clus scale="   79.991">  5  6 -1 -1</clus>
<clus scale="   91.311">  7  8 -1 -1</clus>
<clus scale="  131.246">  2  7  1 -1</clus>
<clus scale="  145.946">  1  9  2 -1</clus>
<clus scale="  145.946">  1  5  2 -1</clus>
</clustering>
</event>
<event>
 9    1  0.4067873E-005  0.9614739E+02  0.7546771E-02  0.1293042E+00
         -2   -1    0    0    0  501 -0.00000000000E+00  0.00000000000E+00  0.20727513567E+03  0.20727513567E+03  0.00000000000E+00 0.  1.
         21   -1    0    0  501  502  0.00000000000E+00 -0.00000000000E+00 -0.17015545473E+03  0.17015545473E+03  0.00000000000E+00 0. -1.
        -24    2    1    2    0    0 -0.23412715606E+02  0.22576537137E+02  0.87704143991E+02  0.12443635866E+03  0.82064213888E+02 0.  0.
         23    2    1    2    0    0  0.83634973879E+01 -0.44637139941E+02 -0.13261912261E+03  0.16672236765E+03  0.90255713629E+02 0.  0.
         13    1    3    3    0    0  0.10676562679E+02 -0.25565087705E+02  0.17628751168E+02  0.32838020156E+02  0.00000000000E+00 0. -1.
        -14    1    3    3    0    0 -0.34089278285E+02  0.48141624842E+02  0.70075392823E+02  0.91598338499E+02  0.00000000000E+00 0.  1.
        -13    1    4    4    0    0 -0.17096570481E+02  0.23012543401E+02 -0.40828597446E+02  0.49888317725E+02  0.00000000000E+00 0.  1.
         13    1    4    4    0    0  0.25460067869E+02 -0.67649683343E+02 -0.91790525159E+02  0.11683404992E+03  0.00000000000E+00 0. -1.
         -1    1    1    2    0  502  0.15049218218E+02  0.22060602805E+02  0.82034659560E+02  0.86271864094E+02  0.00000000000E+00 0.  1.
<scales pt_clust_5="13000.00000" pt_clust_6="13000.00000" pt_clust_7="13000.00000" pt_clust_8="13000.00000" pt_clust_9="26.70487"></scales>
<clustering>
<clus scale="   26.705">  2  9  1 -1</clus>
<clus scale="   82.064">  5  6 -1 -1</clus>
<clus scale="   88.503">  1  5  2 -1</clus>
<clus scale="   90.256">  7  8 -1 -1</clus>
<clus scale="   26.705">  2  5  1 -1</clus>
</clustering>
</event>
<event>
 9    1  0.4067873E-005  0.1158918E+03  0.7546771E-02  0.1253304E+00
         21   -1    0    0  501  502  0.00000000000E+00  0.00000000000E+00  0.40538514977E+03  0.40538514977E+03  0.00000000000E+00 0. -1.
          1   -1    0    0  502    0 -0.00000000000E+00 -0.00000000000E+00 -0.25895789872E+03  0.25895789872E+03  0.00000000000E+00 0. -1.
        -24    2    1    2    0    0 -0.60779700385E+02 -0.41554462712E+02 -0.20877822178E+03  0.23536718627E+03  0.79927599316E+02 0.  0.
         23    2    1    2    0    0  0.10212429356E+03 -0.28027230563E+02  0.30137772213E+03  0.33177290871E+03  0.89609344198E+02 0.  0.
         11    1    3    3    0    0 -0.27156305573E+02 -0.29257561957E+02 -0.19149660317E+03  0.19561293130E+03  0.00000000000E+00 0. -1.
        -12    1    3    3    0    0 -0.33623394812E+02 -0.12296900755E+02 -0.17281618612E+02  0.39754254976E+02  0.00000000000E+00 0.  1.
        -11    1    4    4    0    0  0.42466163887E+02 -0.50671710305E+02  0.94894833546E+02  0.11565477394E+03  0.00000000000E+00 0. -1.
         11    1    4    4    0    0  0.59658129677E+02  0.22644479742E+02  0.20648288859E+03  0.21611813477E+03  0.00000000000E+00 0.  1.
          2    1    1    2  501    0 -0.41344593178E+02  0.69581693276E+02  0.53827750703E+02  0.97202953504E+02  0.00000000000E+00 0. -1.
<scales pt_clust_5="13000.00000" pt_clust_6="13000.00000" pt_clust_7="13000.00000" pt_clust_8="13000.00000" pt_clust_9="80.93817"></scales>
<clustering>
<clus scale="   79.928">  5  6 -1 -1</clus>
<clus scale="   80.938">  1  9  2 -1</clus>
<clus scale="   89.609">  7  8 -1 -1</clus>
<clus scale="  108.579">  2  5  1 -1</clus>
<clus scale="   80.938">  1  5  2 -1</clus>
</clustering>
</event>
<event>
 9    1  0.4067873E-005  0.8960110E+02  0.7546771E-02  0.1307762E+00
         21   -1    0    0  501  502  0.00000000000E+00  0.00000000000E+00  0.49634078833E+03  0.49634078833E+03  0.00000000000E+00 0.  1.
         -2   -1    0    0    0  501 -0.00000000000E+00 -0.00000000000E+00 -0.39256989974E+03  0.39256989974E+03  0.00000000000E+00 0.  1.
        -24    2    1    2    0    0  0.30685386044E+00  0.20738667647E+02 -0.37631914623E+03  0.38549054063E+03  0.80973270904E+02 0.  0.
         23    2    1    2    0    0 -0.17355636271E+02  0.20537816685E+02  0.20140552555E+03  0.22118006374E+03  0.87369415974E+02 0.  0.
         11    1    3    3    0    0 -0.18437970640E+02  0.36046631195E+02 -0.96810692309E+02  0.10493630700E+03  0.00000000000E+00 0. -1.
        -12    1    3    3    0    0  0.18744824500E+02 -0.15307963548E+02 -0.27950845392E+03  0.28055423362E+03  0.00000000000E+00 0.  1.
        -13    1    4    4    0    0 -0.21273798848E+02 -0.32158822547E+02  0.83138444334E+02  0.91644777873E+02  0.00000000000E+00 0. -1.
         13    1    4    4    0    0  0.39181625763E+01  0.52696639232E+02  0.11826708121E+03  0.12953528586E+03  0.00000000000E+00 0.  1.
         -1    1    1    2    0  502  0.17048782411E+02 -0.41276484332E+02  0.27868450927E+03  0.28224008371E+03  0.00000000000E+00 0.  1.
<scales pt_clust_5="13000.00000" pt_clust_6="13000.00000" pt_clust_7="13000.00000" pt_clust_8="13000.00000" pt_clust_9="44.65881"></scales>
<clustering>
<clus scale="   44.659">  1  9  2 -1</clus>
<clus scale="   80.973">  5  6 -1 -1</clus>
<clus scale="   83.376">  2  5  1 -1</clus>
<clus scale="   87.369">  7  8 -1 -1</clus>
<clus scale="   44.659">  1  5  2 -1</clus>
</clustering>
</event>
<event>
 9    1  0.4067873E-005  0.1476175E+03  0.7546771E-02  0.1214517E+00
         21   -1    0    0  501  502  0.00000000000E+00  0.00000000000E+00  0.21180682019E+03  0.21180682019E+03  0.00000000000E+00 0. -1.
          3   -1    0    0  502    0 -0.00000000000E+00 -0.00000000000E+00 -0.35141809869E+03  0.35141809869E+03  0.00000000000E+00 0. -1.
         23    2    1    2    0    0 -0.30135024463E+02 -0.67448632295E+02  0.36122903653E+02  0.12192834205E+03  0.90023434335E+02 0.  0.
        -24    2    1    2    0    0  0.11375612947E+03 -0.26454218126E+02 -0.25526217615E+03  0.29251843210E+03  0.82267684408E+02 0.  0.
         11    1    4    4    0    0  0.69225617926E+02 -0.35817683894E+02 -0.22435986388E+03  0.23751303370E+03  0.00000000000E+00 0. -1.
        -12    1    4    4    0    0  0.44530511547E+02  0.93634657677E+01 -0.30902312266E+02  0.55005398401E+02  0.00000000000E+00 0.  1.
        -13    1    3    3    0    0 -0.26721101402E+02 -0.30439911716E+01 -0.22276726468E+02  0.34921851104E+02  0.00000000000E+00 0.  1.
         13    1    3    3    0    0 -0.34139230609E+01 -0.64404641123E+02  0.58399630121E+02  0.87006490948E+02  0.00000000000E+00 0. -1.
          4    1    1    2  501    0 -0.83621105009E+02  0.93902850421E+02  0.79527993999E+02  0.14877814473E+03  0.00000000000E+00 0. -1.
<scales pt_clust_5="13000.00000" pt_clust_6="13000.00000" pt_clust_7="13000.00000" pt_clust_8="13000.00000" pt_clust_9="122.56812"></scales>
<clustering>
<clus scale="   82.268">  5  6 -1 -1</clus>
<clus scale="   90.023">  7  8 -1 -1</clus>
<clus scale="  116.455">  2  7  1 -1</clus>
<clus scale="  122.568">  1  9  2 -1</clus>
<clus scale="  122.568">  1  5  2 -1</clus>
</clustering>
</event>
<event>
 9    1  0.4067873E-005  0.1418460E+03  0.7546771E-02  0.1226140E+00
          1   -1    0    0  502    0 -0.00000000000E+00  0.00000000000E+00  0.62328891838E+02  0.62328891838E+02  0.00000000000E+00 0. -1.
         21   -1    0    0  501  502  0.00000000000E+00 -0.00000000000E+00 -0.63425243972E+03  0.63425243972E+03  0.00000000000E+00 0. -1.
        -24    2    1    2    0    0 -0.15194682321E+02 -0.64038281025E+02 -0.47050922018E+02  0.11309749816E+03  0.79028317828E+02 0.  0.
         23    2    1    2    0    0 -0.20608930673E+02 -0.64065856498E+02 -0.19201990426E+03  0.22503787788E+03  0.96131372894E+02 0.  0.
         13    1    3    3    0    0 -0.35925736944E+02 -0.70163474191E+02 -0.26208055428E+02  0.83068850087E+02  0.00000000000E+00 0. -1.
        -14    1    3    3    0    0  0.20731054623E+02  0.61251931658E+01 -0.20842866590E+02  0.30028648068E+02  0.00000000000E+00 0.  1.
        -13    1    4    4    0    0 -0.89194699901E+01 -0.41981008882E+02 -0.19518748158E+03  0.19985023147E+03  0.00000000000E+00 0. -1.
         13    1    4    4    0    0 -0.11689460683E+02 -0.22084847616E+02  0.31675773247E+01  0.25187646405E+02  0.00000000000E+00 0.  1.
          2    1    1    2  501    0  0.35803612994E+02  0.12810413752E+03 -0.33285272160E+03  0.35844595553E+03  0.00000000000E+00 0. -1.
<scales pt_clust_5="13000.00000" pt_clust_6="13000.00000" pt_clust_7="13000.00000" pt_clust_8="13000.00000" pt_clust_9="104.30276"></scales>
<clustering>
<clus scale="   79.028">  5  6 -1 -1</clus>
<clus scale="   96.131">  7  8 -1 -1</clus>
<clus scale="  102.846">  1  5  2 -1</clus>
<clus scale="  104.303">  2  9  1 -1</clus>
<clus scale="  104.303">  2  5  1 -1</clus>
</clustering>
</event>
<event>
 9    1  0.4067873E-005  0.1175955E+03  0.7546771E-02  0.1255383E+00
         21   -1    0    0  501  502  0.00000000000E+00  0.00000000000E+00  0.80791018080E+02  0.80791018080E+02  0.00000000000E+00 0. -1.
         -2   -1    0    0    0  501 -0.00000000000E+00 -0.00000000000E+00 -0.29820352536E+03  0.29820352536E+03  0.00000000000E+00 0.  1.
         23    2    1    2    0    0  0.61614511257E+02 -0.38825279273E+02 -0.14439427693E+03  0.18577046705E+03  0.91417771308E+02 0.  0.
        -24    2    1    2    0    0 -0.90339821428E+02 -0.14971985444E+02 -0.26327647228E+02  0.11641717769E+03  0.66890736039E+02 0.  0.
         13    1    4    4    0    0 -0.41263850955E+02 -0.31403338112E+02  0.10488441712E+02  0.52904465310E+02  0.00000000000E+00 0. -1.
        -14    1    4    4    0    0 -0.49075970474E+02  0.16431352668E+02 -0.36816088940E+02  0.63512712375E+02  0.00000000000E+00 0.  1.
        -13    1    3    3    0    0  0.35653423215E+02 -0.65066955587E+02 -0.66766358781E+02  0.99812934839E+02  0.00000000000E+00 0.  1.
         13    1    3    3    0    0  0.25961088042E+02  0.26241676314E+02 -0.77627918152E+02  0.85957532216E+02  0.00000000000E+00 0. -1.
         -1    1    1    2    0  502  0.28725310171E+02  0.53797264717E+02 -0.46690583116E+02  0.76806898695E+02  0.00000000000E+00 0.  1.
<scales pt_clust_5="13000.00000" pt_clust_6="13000.00000" pt_clust_7="13000.00000" pt_clust_8="13000.00000" pt_clust_9="60.98601"></scales>
<clustering>
<clus scale="   60.986">  1  9  2 -1</clus>
<clus scale="   66.891">  5  6 -1 -1</clus>
<clus scale="   91.418">  7  8 -1 -1</clus>
<clus scale="   99.729">  1  5  2 -1</clus>
<clus scale="   60.986">  1  5  2 -1</clus>
</clustering>
</event>
<event>
 9    1  0.4067873E-005  0.3828425E+03  0.7546771E-02  0.1049888E+00
         21   -1    0    0  501  502  0.00000000000E+00  0.00000000000E+00  0.11178495066E+04  0.11178495066E+04  0.00000000000E+00 0. -1.
          3   -1    0    0  502    0 -0.00000000000E+00 -0.00000000000E+00 -0.18530727630E+03  0.18530727630E+03  0.00000000000E+00 0. -1.
        -24    2    1    2    0    0 -0.64089402156E+01  0.21837333116E+03  0.11775021878E+02  0.23243479270E+03  0.78481178888E+02 0.  0.
         23    2    1    2    0    0  0.15263869628E+02  0.10949019152E+03  0.70167177993E+02  0.15907879736E+03  0.90341259391E+02 0.  0.
         11    1    3    3    0    0  0.16015945821E+02  0.19276869454E+03 -0.70077775866E+01  0.19355978163E+03  0.00000000000E+00 0. -1.
        -12    1    3    3    0    0 -0.22424886037E+02  0.25604636615E+02  0.18782799465E+02  0.38875011070E+02  0.00000000000E+00 0.  1.
        -11    1    4    4    0    0  0.35151950929E+02  0.11423691998E+03  0.70235995190E+02  0.13863198968E+03  0.00000000000E+00 0. -1.
         11    1    4    4    0    0 -0.19888081300E+02 -0.47467284609E+01 -0.68817197785E-01  0.20446807690E+02  0.00000000000E+00 0.  1.
          4    1    1    2  501    0 -0.88549294126E+01 -0.32786352268E+03  0.85060003039E+03  0.91164319280E+03  0.00000000000E+00 0. -1.
<scales pt_clust_5="13000.00000" pt_clust_6="13000.00000" pt_clust_7="13000.00000" pt_clust_8="13000.00000" pt_clust_9="327.98308"></scales>
<clustering>
<clus scale="   78.481">  5  6 -1 -1</clus>
<clus scale="   90.341">  7  8 -1 -1</clus>
<clus scale="  100.147">  5  7 -1 -1</clus>
<clus scale="  327.983">  1  9  2 -1</clus>
<clus scale="  327.983">  1  5  2 -1</clus>
</clustering>
</event>
<event>
 9    1  0.4067873E-005  0.9751570E+02  0.7546771E-02  0.1289530E+00
         -4   -1    0    0    0  501 -0.00000000000E+00  0.00000000000E+00  0.79331752681E+02  0.79331752681E+02  0.00000000000E+00 0.  1.
         21   -1    0    0  501  502  0.00000000000E+00 -0.00000000000E+00 -0.31327754528E+03  0.31327754528E+03  0.00000000000E+00 0.  1.
        -24    2    1    2    0    0 -0.16960319387E+02  0.38048448113E+02  0.28977653056E+02  0.10346775164E+03  0.90169476076E+02 0.  0.
         23    2    1    2    0    0  0.17195803508E+02 -0.38719470301E+01 -0.20733510593E+03  0.22388702776E+03  0.82624859550E+02 0.  0.
         11    1    3    3    0    0 -0.49318533197E+02  0.35926089014E-01  0.12217186313E+02  0.50809237829E+02  0.00000000000E+00 0. -1.
        -12    1    3    3    0    0  0.32358213810E+02  0.38012522024E+02  0.16760466743E+02  0.52658513813E+02  0.00000000000E+00 0.  1.
        -13    1    4    4    0    0 -0.22900462314E+02  0.13749209190E+01 -0.15147565599E+02  0.27491277259E+02  0.00000000000E+00 0. -1.
         13    1    4    4    0    0  0.40096265822E+02 -0.52468679491E+01 -0.19218754033E+03  0.19639575050E+03  0.00000000000E+00 0.  1.
         -3    1    1    2    0  502 -0.23548412123E+00 -0.34176501083E+02 -0.55588339716E+02  0.65254518552E+02  0.00000000000E+00 0.  1.
<scales pt_clust_5="13000.00000" pt_clust_6="13000.00000" pt_clust_7="13000.00000" pt_clust_8="13000.00000" pt_clust_9="34.17731"></scales>
<clustering>
<clus scale="   34.177">  2  9  1 -1</clus>
<clus scale="   82.625">  7  8 -1 -1</clus>
<clus scale="   90.169">  5  6 -1 -1</clus>
<clus scale="   90.585">  2  7  1 -1</clus>
<clus scale="   34.177">  2  5  1 -1</clus>
</clustering>
</event>
<event>
 9    1  0.4067873E-005  0.1111356E+03  0.7546771E-02  0.1262263E+00
         21   -1    0    0  501  502  0.00000000000E+00  0.00000000000E+00  0.29303489343E+03  0.29303489343E+03  0.00000000000E+00 0. -1.
          1   -1    0    0  502    0 -0.00000000000E+00 -0.00000000000E+00 -0.13746897355E+03  0.13746897355E+03  0.00000000000E+00 0. -1.
        -24    2    1    2    0    0 -0.65659601702E+02 -0.93834769230E+01 -0.56735179607E+02  0.11826097354E+03  0.79796894187E+02 0.  0.
         23    2    1    2    0    0  0.63670989768E+02 -0.68709657131E+02  0.19160245332E+03  0.23142874792E+03  0.89848502071E+02 0.  0.
         13    1    3    3    0    0 -0.82859602063E+02 -0.19598400308E+01 -0.36137591678E+02  0.90418361848E+02  0.00000000000E+00 0. -1.
        -14    1    3    3    0    0  0.17200000361E+02 -0.74236368922E+01 -0.20597587929E+02  0.27842611688E+02  0.00000000000E+00 0.  1.
        -13    1    4    4    0    0  0.44311420905E+02 -0.89133120033E+02  0.16502511667E+03  0.19272131237E+03  0.00000000000E+00 0. -1.
         13    1    4    4    0    0  0.19359568863E+02  0.20423462903E+02  0.26577336653E+02  0.38707435553E+02  0.00000000000E+00 0.  1.
          2    1    1    2  501    0  0.19886119335E+01  0.78093134054E+02  0.20698646169E+02  0.80814145525E+02  0.00000000000E+00 0. -1.
<scales pt_clust_5="13000.00000" pt_clust_6="13000.00000" pt_clust_7="13000.00000" pt_clust_8="13000.00000" pt_clust_9="78.11849"></scales>
<clustering>
<clus scale="   78.118">  1  9  2 -1</clus>
<clus scale="   79.797">  5  6 -1 -1</clus>
<clus scale="   89.849">  7  8 -1 -1</clus>
<clus scale="  103.179">  2  5  1 -1</clus>
<clus scale="   78.118">  1  5  2 -1</clus>
</clustering>
</event>
<event>
 9    1  0.4067873E-005  0.1206146E+03  0.7546771E-02  0.1259998E+00
         -2   -1    0    0    0  501 -0.00000000000E+00  0.00000000000E+00  0.29526305145E+03  0.29526305145E+03  0.00000000000E+00 0.  1.
         21   -1    0    0  501  502  0.00000000000E+00 -0.00000000000E+00 -0.29306858062E+03  0.29306858062E+03  0.00000000000E+00 0.  1.
        -24    2    1    2    0    0  0.26935583421E+02 -0.34211608394E+01  0.24514452843E+03  0.25926083550E+03  0.79894374067E+02 0.  0.
         23    2    1    2    0    0  0.55761910029E+02 -0.14787533285E+02 -0.50982025647E+02  0.11925621830E+03  0.91075885461E+02 0.  0.
         13    1    3    3    0    0 -0.21959648802E+02 -0.70211649558E+01  0.26223014732E+02  0.34916606858E+02  0.00000000000E+00 0. -1.
        -14    1    3    3    0    0  0.48895232223E+02  0.36000041164E+01  0.21892151370E+03  0.22434422864E+03  0.00000000000E+00 0.  1.
        -11    1    4    4    0    0  0.75875888933E+02  0.82308904876E+01 -0.43255809126E+02  0.87726638501E+02  0.00000000000E+00 0.  1.
         11    1    4    4    0    0 -0.20113978904E+02 -0.23018423772E+02 -0.77262165207E+01  0.31529579795E+02  0.00000000000E+00 0. -1.
         -1    1    1    2    0  502 -0.82697493450E+02  0.18208694124E+02 -0.19196803195E+03  0.20981457827E+03  0.00000000000E+00 0.  1.
<scales pt_clust_5="13000.00000" pt_clust_6="13000.00000" pt_clust_7="13000.00000" pt_clust_8="13000.00000" pt_clust_9="79.07638"></scales>
<clustering>
<clus scale="   79.894">  5  6 -1 -1</clus>
<clus scale="   84.382">  1  5  2 -1</clus>
<clus scale="   79.076">  2  9  1 -1</clus>
<clus scale="   91.076">  7  8 -1 -1</clus>
<clus scale="   79.076">  2  5  1 -1</clus>
</clustering>
</event>
<event>
 9    1  0.4067873E-005  0.2105533E+03  0.7546771E-02  0.1167881E+00
         21   -1    0    0  501  502  0.00000000000E+00  0.00000000000E+00  0.11059565620E+03  0.11059565620E+03  0.00000000000E+00 0. -1.
          1   -1    0    0  502    0 -0.00000000000E+00 -0.00000000000E+00 -0.71287060203E+03  0.71287060203E+03  0.00000000000E+00 0. -1.
        -24    2    1    2    0    0 -0.77279842861E+02  0.99781476947E+01 -0.13522753639E+03  0.17575273856E+03  0.80813371218E+02 0.  0.
         23    2    1    2    0    0  0.17314817296E+03  0.10684819007E+03 -0.93868795469E+02  0.24509532854E+03  0.99315375373E+02 0.  0.
         13    1    3    3    0    0  0.30390258078E+01  0.24661318642E+02 -0.59132644094E+02  0.64141140561E+02  0.00000000000E+00 0. -1.
        -14    1    3    3    0    0 -0.80318868669E+02 -0.14683170947E+02 -0.76094892301E+02  0.11161159800E+03  0.00000000000E+00 0.  1.
        -13    1    4    4    0    0  0.14095868733E+03  0.73972267338E+02 -0.11304903507E+03  0.19524684940E+03  0.00000000000E+00 0. -1.
         13    1    4    4    0    0  0.32189485631E+02  0.32875922736E+02  0.19180239606E+02  0.49848479137E+02  0.00000000000E+00 0.  1.
          2    1    1    2  501    0 -0.95868330098E+02 -0.11682633777E+03 -0.37317861396E+03  0.40261819113E+03  0.00000000000E+00 0. -1.
<scales pt_clust_5="13000.00000" pt_clust_6="13000.00000" pt_clust_7="13000.00000" pt_clust_8="13000.00000" pt_clust_9="185.65881"></scales>
<clustering>
<clus scale="   80.813">  5  6 -1 -1</clus>
<clus scale="   99.315">  7  8 -1 -1</clus>
<clus scale="  112.261">  2  5  1 -1</clus>
<clus scale="  185.659">  1  9  2 -1</clus>
<clus scale="  185.659">  1  5  2 -1</clus>
</clustering>
</event>
<event>
 9    1  0.4067873E-005  0.1114846E+03  0.7546771E-02  0.1262449E+00
         21   -1    0    0  501  502  0.00000000000E+00  0.00000000000E+00  0.56881933738E+03  0.56881933738E+03  0.00000000000E+00 0.  1.
         -4   -1    0    0    0  501 -0.00000000000E+00 -0.00000000000E+00 -0.39798964984E+02  0.39798964984E+02  0.00000000000E+00 0.  1.
        -24    2    1    2    0    0  0.27519315988E+02 -0.39481375881E+02  0.17339811606E+03  0.19650710478E+03  0.78943294718E+02 0.  0.
         23    2    1    2    0    0 -0.76299596244E+02  0.58629286810E+02  0.32606441254E+03  0.35194622136E+03  0.91044604139E+02 0.  0.
         11    1    3    3    0    0 -0.23892596398E+02  0.50592008174E+01  0.44460655093E+02  0.50726733848E+02  0.00000000000E+00 0. -1.
        -12    1    3    3    0    0  0.51411912386E+02 -0.44540576698E+02  0.12893746097E+03  0.14578037093E+03  0.00000000000E+00 0.  1.
        -11    1    4    4    0    0  0.12895814920E+02  0.27821098276E+02  0.38060444644E+02  0.48876507631E+02  0.00000000000E+00 0. -1.
         11    1    4    4    0    0 -0.89195411164E+02  0.30808188534E+02  0.28800396790E+03  0.30306971373E+03  0.00000000000E+00 0.  1.
         -3    1    1    2    0  502  0.48780280256E+02 -0.19147910929E+02  0.29557843793E+02  0.60164976228E+02  0.00000000000E+00 0.  1.
<scales pt_clust_5="13000.00000" pt_clust_6="13000.00000" pt_clust_7="13000.00000" pt_clust_8="13000.00000" pt_clust_9="52.40383"></scales>
<clustering>
<clus scale="   52.404">  1  9  2 -1</clus>
<clus scale="   78.943">  5  6 -1 -1</clus>
<clus scale="   91.045">  7  8 -1 -1</clus>
<clus scale="  101.842">  2  5  1 -1</clus>
<clus scale="   52.404">  1  5  2 -1</clus>
</clustering>
</event>
<event>
 9    1  0.4067873E-005  0.1249336E+03  0.7546771E-02  0.1245299E+00
         21   -1    0    0  501  502  0.00000000000E+00  0.00000000000E+00  0.19709600981E+03  0.19709600981E+03  0.00000000000E+00 0. -1.
         -2   -1    0    0    0  501 -0.00000000000E+00 -0.00000000000E+00 -0.20682905990E+03  0.20682905990E+03  0.00000000000E+00 0.  1.
         23    2    1    2    0    0  0.31091707802E+02 -0.28508657176E+02  0.11067624312E+03  0.15031950655E+03  0.92559631754E+02 0.  0.
        -24    2    1    2    0    0  0.35643857832E+02 -0.61452795734E+02 -0.78854997084E+02  0.13413398388E+03  0.82017585687E+02 0.  0.
         11    1    4    4    0    0  0.60590454761E+02 -0.47490744228E+02 -0.70404055258E+02  0.10432307986E+03  0.00000000000E+00 0. -1.
        -12    1    4    4    0    0 -0.24946596928E+02 -0.13962051505E+02 -0.84509418256E+01  0.29810904017E+02  0.00000000000E+00 0.  1.
        -11    1    3    3    0    0  0.41102497315E+02 -0.26123714580E+01  0.55126632113E+01  0.41552728260E+02  0.00000000000E+00 0.  1.
         11    1    3    3    0    0 -0.10010789513E+02 -0.25896285718E+02  0.10516357991E+03  0.10876677829E+03  0.00000000000E+00 0. -1.
         -1    1    1    2    0  502 -0.66735565635E+02  0.89961452909E+02 -0.41554296116E+02  0.11947157928E+03  0.00000000000E+00 0.  1.
<scales pt_clust_5="13000.00000" pt_clust_6="13000.00000" pt_clust_7="13000.00000" pt_clust_8="13000.00000" pt_clust_9="94.24189"></scales>
<clustering>
<clus scale="   82.018">  5  6 -1 -1</clus>
<clus scale="   92.560">  7  8 -1 -1</clus>
<clus scale="  101.719">  2  7  1 -1</clus>
<clus scale="   94.242">  1  9  2 -1</clus>
<clus scale="   94.242">  1  5  2 -1</clus>
</clustering>
</event>
<event>
 9    1  0.4067873E-005  0.8409726E+02  0.7546771E-02  0.1320550E+00
         21   -1    0    0  501  502  0.00000000000E+00  0.00000000000E+00  0.29503417074E+02  0.29503417074E+02  0.00000000000E+00 0.  1.
          1   -1    0    0  502    0 -0.00000000000E+00 -0.00000000000E+00 -0.44657066545E+03  0.44657066545E+03  0.00000000000E+00 0. -1.
        -24    2    1    2    0    0  0.42209919604E+01  0.52906316282E+01 -0.26731146277E+03  0.27880587044E+03  0.78939772651E+02 0.  0.
         23    2    1    2    0    0 -0.62837469838E+00 -0.38936828472E+02 -0.89347236743E+02  0.12802829414E+03  0.83017130292E+02 0.  0.
         13    1    3    3    0    0  0.17121632201E+02  0.34449692639E+02 -0.79636065132E+02  0.88441135689E+02  0.00000000000E+00 0. -1.
        -14    1    3    3    0    0 -0.12900640241E+02 -0.29159061010E+02 -0.18767539764E+03  0.19036473475E+03  0.00000000000E+00 0.  1.
        -11    1    4    4    0    0  0.24702375032E+02  0.65681531338E+01 -0.11307962473E+01  0.25585673100E+02  0.00000000000E+00 0. -1.
         11    1    4    4    0    0 -0.25330749731E+02 -0.45504981606E+02 -0.88216440495E+02  0.10244262104E+03  0.00000000000E+00 0.  1.
          2    1    1    2  501    0 -0.35926172621E+01  0.33646196844E+02 -0.60408548861E+02  0.69239917940E+02  0.00000000000E+00 0. -1.
<scales pt_clust_5="13000.00000" pt_clust_6="13000.00000" pt_clust_7="13000.00000" pt_clust_8="13000.00000" pt_clust_9="33.83746"></scales>
<clustering>
<clus scale="   33.837">  1  9  2 -1</clus>
<clus scale="   78.940">  5  6 -1 -1</clus>
<clus scale="   80.075">  2  5  1 -1</clus>
<clus scale="   83.017">  7  8 -1 -1</clus>
<clus scale="   33.837">  1  5  2 -1</clus>
</clustering>
</event>
<event>
 9    1  0.4067873E-005  0.1173251E+03  0.7546771E-02  0.1258237E+00
         21   -1    0    0  501  502  0.00000000000E+00  0.00000000000E+00  0.29594178013E+03  0.29594178013E+03  0.00000000000E+00 0.  1.
         -2   -1    0    0    0  501 -0.00000000000E+00 -0.00000000000E+00 -0.13709530669E+03  0.13709530669E+03  0.00000000000E+00 0.  1.
        -24    2    1    2    0    0 -0.49136153147E+02  0.12090114639E+02 -0.38226365582E+02  0.10232341335E+03  0.80301266959E+02 0.  0.
         23    2    1    2    0    0 -0.61162047992E+02 -0.20726593613E+02  0.18956734579E+03  0.21982357305E+03  0.90643460221E+02 0.  0.
         13    1    3    3    0    0 -0.17199956619E+02 -0.14909215604E+02  0.20226923710E+02  0.30450807221E+02  0.00000000000E+00 0. -1.
        -14    1    3    3    0    0 -0.31936196528E+02  0.26999330243E+02 -0.58453289292E+02  0.71872606126E+02  0.00000000000E+00 0.  1.
        -11    1    4    4    0    0  0.58597087079E+01 -0.38406639941E+02  0.44675982460E+02  0.59205992825E+02  0.00000000000E+00 0. -1.
         11    1    4    4    0    0 -0.67021756700E+02  0.17680046328E+02  0.14489136333E+03  0.16061758022E+03  0.00000000000E+00 0.  1.
         -1    1    1    2    0  502  0.11029820114E+03  0.86364789742E+01  0.75054932329E+01  0.11089010043E+03  0.00000000000E+00 0.  1.
<scales pt_clust_5="13000.00000" pt_clust_6="13000.00000" pt_clust_7="13000.00000" pt_clust_8="13000.00000" pt_clust_9="74.49131"></scales>
<clustering>
<clus scale="   80.301">  5  6 -1 -1</clus>
<clus scale="   90.643">  7  8 -1 -1</clus>
<clus scale="   94.915">  2  5  1 -1</clus>
<clus scale="   74.491">  1  9  2 -1</clus>
<clus scale="   74.491">  1  5  2 -1</clus>
</clustering>
</event>
<event>
 9    1  0.4067873E-005  0.1391295E+03  0.7546771E-02  0.1234779E+00
         21   -1    0    0  501  502  0.00000000000E+00  0.00000000000E+00  0.46983621763E+03  0.46983621763E+03  0.00000000000E+00 0.  1.
         -2   -1    0    0    0  501 -0.00000000000E+00 -0.00000000000E+00 -0.16461974506E+03  0.16461974506E+03  0.00000000000E+00 0.  1.
         23    2    1    2    0    0 -0.24527830146E+02 -0.24883808365E+01 -0.74525535664E+02  0.11777293096E+03  0.87798640703E+02 0.  0.
        -24    2    1    2    0    0 -0.91878156331E+02  0.14382472644E+02  0.35106695385E+01  0.12267561643E+03  0.79928286199E+02 0.  0.
         11    1    4    4    0    0  0.29476340598E+01  0.20265331025E+02  0.17127241161E+02  0.26696714740E+02  0.00000000000E+00 0. -1.
        -12    1    4    4    0    0 -0.94825790391E+02 -0.58828583813E+01 -0.13616571623E+02  0.95978901686E+02  0.00000000000E+00 0.  1.
        -13    1    3    3    0    0  0.29978633870E+02 -0.13594367290E+02 -0.41904389791E+02  0.53286988979E+02  0.00000000000E+00 0. -1.
         13    1    3    3    0    0 -0.54506464016E+02  0.11105986454E+02 -0.32621145874E+02  0.64485941978E+02  0.00000000000E+00 0.  1.
         -1    1    1    2    0  502  0.11640598648E+03 -0.11894091808E+02  0.37623133870E+03  0.39400741532E+03  0.00000000000E+00 0.  1.
<scales pt_clust_5="13000.00000" pt_clust_6="13000.00000" pt_clust_7="13000.00000" pt_clust_8="13000.00000" pt_clust_9="113.87930"></scales>
<clustering>
<clus scale="   79.928">  5  6 -1 -1</clus>
<clus scale="   87.799">  7  8 -1 -1</clus>
<clus scale="   91.194">  2  7  1 -1</clus>
<clus scale="  113.879">  1  9  2 -1</clus>
<clus scale="  113.879">  1  5  2 -1</clus>
</clustering>
</event>
<event>
 9    1  0.4067873E-005  0.1371404E+03  0.7546771E-02  0.1220370E+00
          3   -1    0    0  502    0 -0.00000000000E+00  0.00000000000E+00  0.74343624167E+02  0.74343624167E+02  0.00000000000E+00 0. -1.
         21   -1    0    0  501  502  0.00000000000E+00 -0.00000000000E+00 -0.97698921879E+03  0.97698921879E+03  0.00000000000E+00 0. -1.
        -24    2    1    2    0    0 -0.10294647746E+03 -0.19319315831E+02  0.26742291138E+01  0.12937364986E+03  0.75889238968E+02 0.  0.
         23    2    1    2    0    0  0.82981726967E+02  0.51732819207E+02 -0.61726459689E+03  0.63139931944E+03  0.89929230074E+02 0.  0.
         13    1    3    3    0    0 -0.10774872552E+03 -0.23020235785E+02  0.19136979926E+02  0.11182997410E+03  0.00000000000E+00 0. -1.
        -14    1    3    3    0    0  0.48022480570E+01  0.37009199545E+01 -0.16462750812E+02  0.17543675761E+02  0.00000000000E+00 0.  1.
        -13    1    4    4    0    0  0.84783883231E+01  0.54013967586E+02 -0.19120301636E+03  0.19886675244E+03  0.00000000000E+00 0. -1.
         13    1    4    4    0    0  0.74503338644E+02 -0.22811483790E+01 -0.42606158053E+03  0.43253256699E+03  0.00000000000E+00 0.  1.
          4    1    1    2  501    0  0.19964750497E+02 -0.32413503377E+02 -0.28805522685E+03  0.29055987366E+03  0.00000000000E+00 0. -1.
<scales pt_clust_5="13000.00000" pt_clust_6="13000.00000" pt_clust_7="13000.00000" pt_clust_8="13000.00000" pt_clust_9="38.06871"></scales>
<clustering>
<clus scale="   38.069">  2  9  1 -1</clus>
<clus scale="   75.889">  5  6 -1 -1</clus>
<clus scale="   89.929">  7  8 -1 -1</clus>
<clus scale="  128.372">  1  5  2 -1</clus>
<clus scale="   38.069">  2  5  1 -1</clus>
</clustering>
</event>
<event>
 9    1  0.4067873E-005  0.2119307E+03  0.7546771E-02  0.1141520E+00
         21   -1    0    0  501  502  0.00000000000E+00  0.00000000000E+00  0.13401053020E+04  0.13401053020E+04  0.00000000000E+00 0. -1.
          3   -1    0    0  502    0 -0.00000000000E+00 -0.00000000000E+00 -0.63497497893E+02  0.63497497893E+02  0.00000000000E+00 0. -1.
         23    2    1    2    0    0 -0.16409035100E+03  0.12296827572E+03  0.26121397019E+03  0.34618249705E+03  0.97789278113E+02 0.  0.
        -24    2    1    2    0    0  0.64104817154E+02 -0.14585042841E+03  0.78796001974E+03  0.80792713716E+03  0.80520129209E+02 0.  0.
         13    1    4    4    0    0  0.57614697444E+02 -0.10414505898E+03  0.39057278996E+03  0.40830472802E+03  0.00000000000E+00 0. -1.
        -14    1    4    4    0    0  0.64901197104E+01 -0.41705369431E+02  0.39738722978E+03  0.39962240914E+03  0.00000000000E+00 0.  1.
        -13    1    3    3    0    0 -0.77851171274E+02  0.11318787402E+03  0.13193002520E+03  0.19046740205E+03  0.00000000000E+00 0. -1.
         13    1    3    3    0    0 -0.86239179728E+02  0.97804016961E+01  0.12928394500E+03  0.15571509500E+03  0.00000000000E+00 0.  1.
          4    1    1    2  501    0  0.99985533848E+02  0.22882152691E+02  0.22743381415E+03  0.24949316566E+03  0.00000000000E+00 0. -1.
<scales pt_clust_5="13000.00000" pt_clust_6="13000.00000" pt_clust_7="13000.00000" pt_clust_8="13000.00000" pt_clust_9="102.57046"></scales>
<clustering>
<clus scale="   80.520">  5  6 -1 -1</clus>
<clus scale="   97.789">  7  8 -1 -1</clus>
<clus scale="  102.570">  1  9  2 -1</clus>
<clus scale="  204.537">  1  5  2 -1</clus>
<clus scale="  102.570">  1  5  2 -1</clus>
</clustering>
</event>
<event>
 9    1  0.4067873E-005  0.9956560E+02  0.7546771E-02  0.1286479E+00
         -4   -1    0    0    0  501 -0.00000000000E+00  0.00000000000E+00  0.20790283548E+03  0.20790283548E+03  0.00000000000E+00 0.  1.
         21   -1    0    0  501  502  0.00000000000E+00 -0.00000000000E+00 -0.98581128598E+02  0.98581128598E+02  0.00000000000E+00 0.  1.
        -24    2    1    2    0    0 -0.11553238147E+02 -0.46404877789E+02  0.11920985319E+03  0.15194233715E+03  0.81170159084E+02 0.  0.
         23    2    1    2    0    0  0.38399627215E+02 -0.60027922273E+00  0.12442109269E+01  0.99277327702E+02  0.91539871256E+02 0.  0.
         11    1    3    3    0    0  0.24377084987E+02  0.28700914303E+01  0.93013655693E+01  0.26248716135E+02  0.00000000000E+00 0. -1.
        -12    1    3    3    0    0 -0.35930323133E+02 -0.49274969219E+02  0.10990848762E+03  0.12569362101E+03  0.00000000000E+00 0.  1.
        -13    1    4    4    0    0  0.39935375582E+02 -0.26159277565E+02  0.33332331690E+02  0.58225306882E+02  0.00000000000E+00 0.  1.
         13    1    4    4    0    0 -0.15357483673E+01  0.25558998343E+02 -0.32088120763E+02  0.41052020820E+02  0.00000000000E+00 0. -1.
         -3    1    1    2    0  502 -0.26846389068E+02  0.47005157012E+02 -0.11132357236E+02  0.55264299229E+02  0.00000000000E+00 0.  1.
<scales pt_clust_5="13000.00000" pt_clust_6="13000.00000" pt_clust_7="13000.00000" pt_clust_8="13000.00000" pt_clust_9="54.13145"></scales>
<clustering>
<clus scale="   54.131">  2  9  1 -1</clus>
<clus scale="   81.170">  5  6 -1 -1</clus>
<clus scale="   90.124">  1  5  2 -1</clus>
<clus scale="   91.540">  7  8 -1 -1</clus>
<clus scale="   54.131">  2  5  1 -1</clus>
</clustering>
</event>
<event>
 9    1  0.4067873E-005  0.9272611E+02  0.7546771E-02  0.1304213E+00
         21   -1    0    0  501  502  0.00000000000E+00  0.00000000000E+00  0.46744256709E+02  0.46744256709E+02  0.00000000000E+00 0.  1.
         -2   -1    0    0    0  501 -0.00000000000E+00 -0.00000000000E+00 -0.38288272856E+03  0.38288272856E+03  0.00000000000E+00 0.  1.
        -24    2    1    2    0    0  0.11156498760E+02  0.28583847348E+02 -0.20526368862E+03  0.22183993107E+03  0.78347108163E+02 0.  0.
         23    2    1    2    0    0 -0.49818973536E+01  0.67221221497E+01 -0.14317702668E+03  0.16989269606E+03  0.91070637289E+02 0.  0.
         13    1    3    3    0    0  0.32116465638E+02 -0.63141146784E+01 -0.40248191217E+02  0.51877281207E+02  0.00000000000E+00 0. -1.
        -14    1    3    3    0    0 -0.20959966878E+02  0.34897962026E+02 -0.16501549740E+03  0.16996264986E+03  0.00000000000E+00 0.  1.
        -11    1    4    4    0    0  0.32617297860E+01  0.48624276789E+02 -0.77855133462E+02  0.91849773983E+02  0.00000000000E+00 0.  1.
         11    1    4    4    0    0 -0.82436271396E+01 -0.41902154639E+02 -0.65321893222E+02  0.78042922075E+02  0.00000000000E+00 0. -1.
         -1    1    1    2    0  502 -0.61746014062E+01 -0.35305969497E+02  0.12302243455E+02  0.37894358138E+02  0.00000000000E+00 0.  1.
<scales pt_clust_5="13000.00000" pt_clust_6="13000.00000" pt_clust_7="13000.00000" pt_clust_8="13000.00000" pt_clust_9="35.84184"></scales>
<clustering>
<clus scale="   35.842">  1  9  2 -1</clus>
<clus scale="   78.347">  5  6 -1 -1</clus>
<clus scale="   80.265">  2  5  1 -1</clus>
<clus scale="   91.071">  7  8 -1 -1</clus>
<clus scale="   35.842">  1  5  2 -1</clus>
</clustering>
</event>
<event>
 9    1  0.4067873E-005  0.9480363E+02  0.7546771E-02  0.1297997E+00
          1   -1    0    0  502    0 -0.00000000000E+00  0.00000000000E+00  0.21283542654E+03  0.21283542654E+03  0.00000000000E+00 0. -1.
         21   -1    0    0  501  502  0.00000000000E+00 -0.00000000000E+00 -0.13067287656E+03  0.13067287656E+03  0.00000000000E+00 0. -1.
        -24    2    1    2    0    0 -0.25533848940E+01 -0.11850829320E+02 -0.15828878073E+02  0.84057271217E+02  0.81658493333E+02 0.  0.
         23    2    1    2    0    0 -0.49290437601E+01  0.34442666817E+02 -0.49137093878E+02  0.11041016559E+03  0.92549218802E+02 0.  0.
         13    1    3    3    0    0  0.25351476738E+02  0.24930368479E+02 -0.10153249790E+01  0.35570374332E+02  0.00000000000E+00 0. -1.
        -14    1    3    3    0    0 -0.27904861632E+02 -0.36781197800E+02 -0.14813553094E+02  0.48486896885E+02  0.00000000000E+00 0.  1.
        -13    1    4    4    0    0  0.14030087062E+02  0.16184413168E+02 -0.72264363601E+02  0.75371856944E+02  0.00000000000E+00 0. -1.
         13    1    4    4    0    0 -0.18959130822E+02  0.18258253649E+02  0.23127269724E+02  0.35038308645E+02  0.00000000000E+00 0.  1.
          2    1    1    2  501    0  0.74824286541E+01 -0.22591837496E+02  0.14712852194E+03  0.14904086630E+03  0.00000000000E+00 0. -1.
<scales pt_clust_5="13000.00000" pt_clust_6="13000.00000" pt_clust_7="13000.00000" pt_clust_8="13000.00000" pt_clust_9="23.79871"></scales>
<clustering>
<clus scale="   23.799">  2  9  1 -1</clus>
<clus scale="   81.658">  5  6 -1 -1</clus>
<clus scale="   84.205">  1  5  2 -1</clus>
<clus scale="   92.549">  7  8 -1 -1</clus>
<clus scale="   23.799">  2  5  1 -1</clus>
</clustering>
</event>
<event>
 9    1  0.4067873E-005  0.1473825E+03  0.7546771E-02  0.1207430E+00
         -4   -1    0    0    0  501 -0.00000000000E+00  0.00000000000E+00  0.96160866234E+03  0.96160866234E+03  0.00000000000E+00 0.  1.
         21   -1    0    0  501  502  0.00000000000E+00 -0.00000000000E+00 -0.33891911210E+02  0.33891911210E+02  0.00000000000E+00 0. -1.
        -24    2    1    2    0    0  0.36031663005E+02 -0.10222931828E+03  0.48638796393E+03  0.50468837278E+03  0.79924889156E+02 0.  0.
         23    2    1    2    0    0  0.18102055795E+02  0.12118443132E+03  0.33839510485E+03  0.37297715173E+03  0.97915054541E+02 0.  0.
         11    1    3    3    0    0  0.55071420752E+02 -0.62067718332E+02  0.38729415784E+03  0.39608335959E+03  0.00000000000E+00 0. -1.
        -12    1    3    3    0    0 -0.19039757747E+02 -0.40161599948E+02  0.99093806091E+02  0.10860501319E+03  0.00000000000E+00 0.  1.
        -13    1    4    4    0    0  0.16434047461E+02  0.38708613600E+02  0.25034779533E+02  0.48940523792E+02  0.00000000000E+00 0. -1.
         13    1    4    4    0    0  0.16680083336E+01  0.82475817716E+02  0.31336032532E+03  0.32403662794E+03  0.00000000000E+00 0.  1.
         -3    1    1    2    0  502 -0.54133718800E+02 -0.18955113036E+02  0.10293368234E+03  0.11783504904E+03  0.00000000000E+00 0.  1.
<scales pt_clust_5="13000.00000" pt_clust_6="13000.00000" pt_clust_7="13000.00000" pt_clust_8="13000.00000" pt_clust_9="57.35639"></scales>
<clustering>
<clus scale="   57.356">  2  9  1 -1</clus>
<clus scale="   79.925">  5  6 -1 -1</clus>
<clus scale="   97.915">  7  8 -1 -1</clus>
<clus scale="  136.096">  1  5  2 -1</clus>
<clus scale="   57.356">  2  5  1 -1</clus>
</clustering>
</event>
<event>
 9    1  0.4067873E-005  0.1732261E+03  0.7546771E-02  0.1176291E+00
         21   -1    0    0  501  502  0.00000000000E+00  0.00000000000E+00  0.47523650901E+02  0.47523650901E+02  0.00000000000E+00 0. -1.
          1   -1    0    0  502    0 -0.00000000000E+00 -0.00000000000E+00 -0.10262461354E+04  0.10262461354E+04  0.00000000000E+00 0. -1.
         23    2    1    2    0    0  0.15551156094E+03 -0.18985337330E+01 -0.37088763619E+03  0.41216047482E+03  0.90172990989E+02 0.  0.
        -24    2    1    2    0    0 -0.13403323149E+03 -0.58795138604E+02 -0.26073448877E+03  0.30858849044E+03  0.76306011122E+02 0.  0.
         13    1    4    4    0    0 -0.13125220209E+03 -0.28320428416E+02 -0.20648147777E+03  0.24630019870E+03  0.00000000000E+00 0. -1.
        -14    1    4    4    0    0 -0.27810294018E+01 -0.30474710188E+02 -0.54253011003E+02  0.62288291745E+02  0.00000000000E+00 0.  1.
        -11    1    3    3    0    0  0.60038083043E+02  0.17833287350E+02 -0.61504687686E+02  0.87780545456E+02  0.00000000000E+00 0.  1.
         11    1    3    3    0    0  0.95473477896E+02 -0.19731821083E+02 -0.30938294851E+03  0.32437992936E+03  0.00000000000E+00 0. -1.
          2    1    1    2  501    0 -0.21478329450E+02  0.60693672337E+02 -0.34710035953E+03  0.35302082103E+03  0.00000000000E+00 0. -1.
<scales pt_clust_5="13000.00000" pt_clust_6="13000.00000" pt_clust_7="13000.00000" pt_clust_8="13000.00000" pt_clust_9="64.38202"></scales>
<clustering>
<clus scale="   64.382">  1  9  2 -1</clus>
<clus scale="   76.306">  5  6 -1 -1</clus>
<clus scale="   90.173">  7  8 -1 -1</clus>
<clus scale="  166.429">  1  5  2 -1</clus>
<clus scale="   64.382">  1  5  2 -1</clus>
</clustering>
</event>
<event>
 9    1  0.4067873E-005  0.1990229E+03  0.7546771E-02  0.1151380E+00
         21   -1    0    0  501  502  0.00000000000E+00  0.00000000000E+00  0.15583817003E+03  0.15583817003E+03  0.00000000000E+00 0. -1.
          1   -1    0    0  502    0 -0.00000000000E+00 -0.00000000000E+00 -0.53370543324E+03  0.53370543324E+03  0.00000000000E+00 0. -1.
         23    2    1    2    0    0  0.80933946113E+02 -0.10411561694E+03 -0.13081428432E+03  0.20598050256E+03  0.89023733521E+02 0.  0.
        -24    2    1    2    0    0 -0.16777731723E+03  0.20602340453E+03 -0.19819734022E+03  0.34103646562E+03  0.80179884146E+02 0.  0.
         11    1    4    4    0    0 -0.77722969432E+02  0.15566897863E+03 -0.11593742218E+03  0.20908174657E+03  0.00000000000E+00 0. -1.
        -12    1    4    4    0    0 -0.90054347795E+02  0.50354425900E+02 -0.82259918039E+02  0.13195471905E+03  0.00000000000E+00 0.  1.
        -11    1    3    3    0    0  0.18294778348E+02 -0.55205837324E+02 -0.66178013780E+01  0.58533568869E+02  0.00000000000E+00 0.  1.
         11    1    3    3    0    0  0.62639167765E+02 -0.48909779613E+02 -0.12419648295E+03  0.14744693370E+03  0.00000000000E+00 0. -1.
          2    1    1    2  501    0  0.86843371114E+02 -0.10190778760E+03 -0.48855638660E+02  0.14252663508E+03  0.00000000000E+00 0. -1.
<scales pt_clust_5="13000.00000" pt_clust_6="13000.00000" pt_clust_7="13000.00000" pt_clust_8="13000.00000" pt_clust_9="133.89163"></scales>
<clustering>
<clus scale="   80.180">  5  6 -1 -1</clus>
<clus scale="   89.024">  7  8 -1 -1</clus>
<clus scale="  133.892">  1  9  2 -1</clus>
<clus scale="  195.227">  1  5  2 -1</clus>
<clus scale="  133.892">  1  5  2 -1</clus>
</clustering>
</event>
<event>
 9    1  0.4067873E-005  0.1049412E+03  0.7546771E-02  0.1273550E+00
         21   -1    0    0  501  502  0.00000000000E+00  0.00000000000E+00  0.76707070522E+02  0.76707070522E+02  0.00000000000E+00 0.  1.
          3   -1    0    0  502    0 -0.00000000000E+00 -0.00000000000E+00 -0.19953882944E+03  0.19953882944E+03  0.00000000000E+00 0. -1.
         23    2    1    2    0    0  0.31275340301E+02 -0.25531284460E+02 -0.64485639253E+02  0.11903729321E+03  0.91550456617E+02 0.  0.
        -24    2    1    2    0    0 -0.51163137444E+02  0.35088773613E+02 -0.75817453153E+02  0.12906402348E+03  0.84025872721E+02 0.  0.
         11    1    4    4    0    0 -0.28065920900E+02 -0.17939253910E+02  0.48991603439E+00  0.33312951904E+02  0.00000000000E+00 0. -1.
        -12    1    4    4    0    0 -0.23097216544E+02  0.53028027523E+02 -0.76307369187E+02  0.95751071573E+02  0.00000000000E+00 0.  1.
        -11    1    3    3    0    0  0.10402768992E+02 -0.30698840099E+02  0.15702105839E+02  0.36016558884E+02  0.00000000000E+00 0.  1.
         11    1    3    3    0    0  0.20872571309E+02  0.51675556382E+01 -0.80187745092E+02  0.83020734322E+02  0.00000000000E+00 0. -1.
          4    1    1    2  501    0  0.19887797143E+02 -0.95574891523E+01  0.17471333488E+02  0.28144583279E+02  0.00000000000E+00 0. -1.
<scales pt_clust_5="13000.00000" pt_clust_6="13000.00000" pt_clust_7="13000.00000" pt_clust_8="13000.00000" pt_clust_9="22.06513"></scales>
<clustering>
<clus scale="   22.065">  1  9  2 -1</clus>
<clus scale="   84.026">  5  6 -1 -1</clus>
<clus scale="   91.550">  7  8 -1 -1</clus>
<clus scale="   98.446">  1  5  2 -1</clus>
<clus scale="   22.065">  1  5  2 -1</clus>
</clustering>
</event>
<event>
 9    1  0.4067873E-005  0.9423124E+02  0.7546771E-02  0.1299418E+00
          1   -1    0    0  502    0 -0.00000000000E+00  0.00000000000E+00  0.89878903253E+03  0.89878903253E+03  0.00000000000E+00 0. -1.
         21   -1    0    0  501  502  0.00000000000E+00 -0.00000000000E+00 -0.11268087615E+02  0.11268087615E+02  0.00000000000E+00 0.  1.
         23    2    1    2    0    0 -0.25359855832E+02  0.32161527600E+01  0.48998265635E+03  0.49936622255E+03  0.92898626324E+02 0.  0.
        -24    2    1    2    0    0  0.44592931468E+01 -0.31015141436E+01  0.31805415272E+03  0.32850467908E+03  0.82020579311E+02 0.  0.
         11    1    4    4    0    0  0.31154081748E+02  0.23294774410E+02  0.22185769960E+03  0.22524223005E+03  0.00000000000E+00 0. -1.
        -12    1    4    4    0    0 -0.26694788601E+02 -0.26396288554E+02  0.96196453122E+02  0.10326244904E+03  0.00000000000E+00 0.  1.
        -11    1    3    3    0    0 -0.46545695909E+02 -0.31051762379E+02  0.29658099229E+03  0.30181285384E+03  0.00000000000E+00 0.  1.
         11    1    3    3    0    0  0.21185840077E+02  0.34267915139E+02  0.19340166406E+03  0.19755336871E+03  0.00000000000E+00 0. -1.
          2    1    1    2  501    0  0.20900562686E+02 -0.11463861646E+00  0.79484135847E+02  0.82186218516E+02  0.00000000000E+00 0. -1.
<scales pt_clust_5="13000.00000" pt_clust_6="13000.00000" pt_clust_7="13000.00000" pt_clust_8="13000.00000" pt_clust_9="20.90088"></scales>
<clustering>
<clus scale="   20.901">  2  9  1 -1</clus>
<clus scale="   82.021">  5  6 -1 -1</clus>
<clus scale="   83.527">  2  5  1 -1</clus>
<clus scale="   92.899">  7  8 -1 -1</clus>
<clus scale="   20.901">  2  5  1 -1</clus>
</clustering>
</event>
<event>
 9    1  0.4067873E-005  0.9905945E+02  0.7546771E-02  0.1288629E+00
         21   -1    0    0  501  502  0.00000000000E+00  0.00000000000E+00  0.13278730748E+03  0.13278730748E+03  0.00000000000E+00 0.  1.
          1   -1    0    0  502    0 -0.00000000000E+00 -0.00000000000E+00 -0.11711590390E+03  0.11711590390E+03  0.00000000000E+00 0. -1.
         23    2    1    2    0    0 -0.42403850226E+02  0.23785397621E+02 -0.37422343532E+02  0.11027440780E+03  0.91630680262E+02 0.  0.
        -24    2    1    2    0    0  0.11531560876E+01 -0.31742473905E+02  0.25095721628E+02  0.89142921790E+02  0.79421350043E+02 0.  0.
         13    1    4    4    0    0  0.21076580362E+02 -0.41693564518E+02 -0.98109462498E+01  0.47737094887E+02  0.00000000000E+00 0. -1.
        -14    1    4    4    0    0 -0.19923424274E+02  0.99510906130E+01  0.34906667877E+02  0.41405826903E+02  0.00000000000E+00 0.  1.
        -11    1    3    3    0    0 -0.27562782149E+02 -0.33878089146E+02 -0.21278496328E+02  0.48581954365E+02  0.00000000000E+00 0.  1.
         11    1    3    3    0    0 -0.14841068077E+02  0.57663486767E+02 -0.16143847204E+02  0.61692453431E+02  0.00000000000E+00 0. -1.
          2    1    1    2  501    0  0.41250694138E+02  0.79570762840E+01  0.27998025478E+02  0.50485881794E+02  0.00000000000E+00 0. -1.
<scales pt_clust_5="13000.00000" pt_clust_6="13000.00000" pt_clust_7="13000.00000" pt_clust_8="13000.00000" pt_clust_9="42.01113"></scales>
<clustering>
<clus scale="   42.011">  1  9  2 -1</clus>
<clus scale="   79.421">  5  6 -1 -1</clus>
<clus scale="   87.888">  1  5  2 -1</clus>
<clus scale="   91.631">  7  8 -1 -1</clus>
<clus scale="   42.011">  1  5  2 -1</clus>
</clustering>
</event>
<event>
 9    1  0.4067873E-005  0.4547148E+03  0.7546771E-02  0.1026473E+00
         21   -1    0    0  501  502  0.00000000000E+00  0.00000000000E+00  0.40722223997E+03  0.40722223997E+03  0.00000000000E+00 0. -1.
          1   -1    0    0  502    0 -0.00000000000E+00 -0.00000000000E+00 -0.69835560990E+03  0.69835560990E+03  0.00000000000E+00 0. -1.
         23    2    1    2    0    0  0.11511108754E+03  0.49266203218E+03 -0.24191302411E+03  0.56811962923E+03  0.90948125103E+02 0.  0.
        -24    2    1    2    0    0 -0.94795924549E+02 -0.35748261785E+03  0.29675598484E+02  0.37962682347E+03  0.80347959385E+02 0.  0.
         11    1    4    4    0    0 -0.10536073634E+03 -0.33320883447E+03  0.38819168365E+02  0.35161902674E+03  0.00000000000E+00 0. -1.
        -12    1    4    4    0    0  0.10564811790E+02 -0.24273783382E+02 -0.91435698813E+01  0.28007796736E+02  0.00000000000E+00 0.  1.
        -13    1    3    3    0    0 -0.62013500115E+01  0.88153780088E+02 -0.18235843513E+02  0.90233539631E+02  0.00000000000E+00 0.  1.
         13    1    3    3    0    0  0.12131243755E+03  0.40450825209E+03 -0.22367718060E+03  0.47788608960E+03  0.00000000000E+00 0. -1.
          2    1    1    2  501    0 -0.20315162991E+02 -0.13517941433E+03 -0.78895944298E+02  0.15783139717E+03  0.00000000000E+00 0. -1.
<scales pt_clust_5="13000.00000" pt_clust_6="13000.00000" pt_clust_7="13000.00000" pt_clust_8="13000.00000" pt_clust_9="136.69747"></scales>
<clustering>
<clus scale="   80.348">  5  6 -1 -1</clus>
<clus scale="   90.948">  7  8 -1 -1</clus>
<clus scale="  136.697">  1  9  2 -1</clus>
<clus scale="  452.714">  1  5  2 -1</clus>
<clus scale="  136.697">  1  5  2 -1</clus>
</clustering>
</event>
<event>
 9    1  0.4067873E-005  0.9370025E+02  0.7546771E-02  0.1300026E+00
         21   -1    0    0  501  502  0.00000000000E+00  0.00000000000E+00  0.62341977855E+03  0.62341977855E+03  0.00000000000E+00 0. -1.
         -2   -1    0    0    0  501 -0.00000000000E+00 -0.00000000000E+00 -0.30322955866E+02  0.30322955866E+02  0.00000000000E+00 0.  1.
         23    2    1    2    0    0 -0.39387115176E+02 -0.27109986774E+01  0.13460327684E+03  0.16797494751E+03  0.92405879140E+02 0.  0.
        -24    2    1    2    0    0 -0.10196053305E+02  0.86344020823E+01  0.13769132720E+03  0.16110235790E+03  0.82562435360E+02 0.  0.
         13    1    4    4    0    0 -0.31703657279E+02 -0.23885827962E+02  0.96699449962E+02  0.10452960483E+03  0.00000000000E+00 0. -1.
        -14    1    4    4    0    0  0.21507603974E+02  0.32520230044E+02  0.40991877240E+02  0.56572753075E+02  0.00000000000E+00 0.  1.
        -11    1    3    3    0    0 -0.15015881324E+02  0.20756687760E+02  0.13153077037E+03  0.13400246391E+03  0.00000000000E+00 0. -1.
         11    1    3    3    0    0 -0.24371233852E+02 -0.23467686437E+02  0.30725064679E+01  0.33972483604E+02  0.00000000000E+00 0.  1.
         -1    1    1    2    0  502  0.49583168481E+02 -0.59234034049E+01  0.32080221864E+03  0.32466542900E+03  0.00000000000E+00 0.  1.
<scales pt_clust_5="13000.00000" pt_clust_6="13000.00000" pt_clust_7="13000.00000" pt_clust_8="13000.00000" pt_clust_9="49.93573"></scales>
<clustering>
<clus scale="   49.936">  1  9  2 -1</clus>
<clus scale="   82.562">  5  6 -1 -1</clus>
<clus scale="   84.009">  1  5  2 -1</clus>
<clus scale="   92.406">  7  8 -1 -1</clus>
<clus scale="   49.936">  1  5  2 -1</clus>
</clustering>
</event>
<event>
 9    1  0.4067873E-005  0.1390709E+03  0.7546771E-02  0.1231790E+00
         21   -1    0    0  501  502  0.00000000000E+00  0.00000000000E+00  0.39659043630E+03  0.39659043630E+03  0.00000000000E+00 0. -1.
          1   -1    0    0  502    0 -0.00000000000E+00 -0.00000000000E+00 -0.12095794774E+03  0.12095794774E+03  0.00000000000E+00 0. -1.
         23    2    1    2    0    0 -0.28901766401E+02 -0.79060326193E+01  0.13545336448E+03  0.16665491350E+03  0.92349492647E+02 0.  0.
        -24    2    1    2    0    0  0.13689577410E+03  0.19302509818E+02 -0.15864517466E+02  0.16078244124E+03  0.80537386639E+02 0.  0.
         13    1    4    4    0    0  0.13443918153E+03  0.78809079549E+01 -0.34288540196E+02  0.13896656515E+03  0.00000000000E+00 0. -1.
        -14    1    4    4    0    0  0.24565925678E+01  0.11421601863E+02  0.18424022731E+02  0.21815876094E+02  0.00000000000E+00 0.  1.
        -13    1    3    3    0    0 -0.57371346341E+02 -0.20447385810E+02  0.62125666719E+02  0.87000950758E+02  0.00000000000E+00 0.  1.
         13    1    3    3    0    0  0.28469579940E+02  0.12541353190E+02  0.73327697759E+02  0.79653962742E+02  0.00000000000E+00 0. -1.
          2    1    1    2  501    0 -0.10799400770E+03 -0.11396477198E+02  0.15604364155E+03  0.19011102929E+03  0.00000000000E+00 0. -1.
<scales pt_clust_5="13000.00000" pt_clust_6="13000.00000" pt_clust_7="13000.00000" pt_clust_8="13000.00000" pt_clust_9="113.37741"></scales>
<clustering>
<clus scale="   80.537">  5  6 -1 -1</clus>
<clus scale="   92.349">  7  8 -1 -1</clus>
<clus scale="   97.089">  2  7  1 -1</clus>
<clus scale="  113.377">  1  9  2 -1</clus>
<clus scale="  113.377">  1  5  2 -1</clus>
</clustering>
</event>
<event>
 9    1  0.4067873E-005  0.9294694E+02  0.7546771E-02  0.1300566E+00
          1   -1    0    0  502    0 -0.00000000000E+00  0.00000000000E+00  0.40370289173E+03  0.40370289173E+03  0.00000000000E+00 0. -1.
         21   -1    0    0  501  502  0.00000000000E+00 -0.00000000000E+00 -0.81432027838E+02  0.81432027838E+02  0.00000000000E+00 0. -1.
        -24    2    1    2    0    0  0.22588568960E+02  0.10317536499E+02  0.31018823982E+03  0.32193894264E+03  0.82530259042E+02 0.  0.
         23    2    1    2    0    0  0.19686237760E+02 -0.33077986233E+02  0.41666165169E+02  0.10680109010E+03  0.90491449300E+02 0.  0.
         13    1    3    3    0    0  0.50920716287E+02 -0.77251723578E+01  0.16192929257E+03  0.16992261011E+03  0.00000000000E+00 0. -1.
        -14    1    3    3    0    0 -0.28332147327E+02  0.18042708857E+02  0.14825894726E+03  0.15201633253E+03  0.00000000000E+00 0.  1.
        -13    1    4    4    0    0  0.44588049840E+01  0.26584777990E+02 -0.75279314501E+01  0.27987517121E+02  0.00000000000E+00 0.  1.
         13    1    4    4    0    0  0.15227432776E+02 -0.59662764223E+02  0.49194096619E+02  0.78813572980E+02  0.00000000000E+00 0. -1.
          2    1    1    2  501    0 -0.42274806720E+02  0.22760449734E+02 -0.29583541104E+02  0.56394886821E+02  0.00000000000E+00 0. -1.
<scales pt_clust_5="13000.00000" pt_clust_6="13000.00000" pt_clust_7="13000.00000" pt_clust_8="13000.00000" pt_clust_9="48.01247"></scales>
<clustering>
<clus scale="   48.012">  2  9  1 -1</clus>
<clus scale="   82.530">  5  6 -1 -1</clus>
<clus scale="   85.215">  1  5  2 -1</clus>
<clus scale="   90.491">  7  8 -1 -1</clus>
<clus scale="   48.012">  2  5  1 -1</clus>
</clustering>
</event>
<event>
 9    1  0.4067873E-005  0.9818521E+02  0.7546771E-02  0.1289841E+00
         21   -1    0    0  501  502  0.00000000000E+00  0.00000000000E+00  0.10170921014E+03  0.10170921014E+03  0.00000000000E+00 0.  1.
         -2   -1    0    0    0  501 -0.00000000000E+00 -0.00000000000E+00 -0.16316957649E+03  0.16316957649E+03  0.00000000000E+00 0.  1.
        -24    2    1    2    0    0 -0.46635366503E+01  0.41256171069E+02 -0.29387428158E+02  0.95694005901E+02  0.81054929562E+02 0.  0.
         23    2    1    2    0    0  0.63132405219E+01 -0.20715402694E+02  0.33782044928E+02  0.10018098742E+03  0.91793348164E+02 0.  0.
         11    1    3    3    0    0 -0.34011345676E+02  0.48279998649E+02 -0.28325836107E+02  0.65498724380E+02  0.00000000000E+00 0. -1.
        -12    1    3    3    0    0  0.29347809025E+02 -0.70238275804E+01 -0.10615920513E+01  0.30195281521E+02  0.00000000000E+00 0.  1.
        -13    1    4    4    0    0 -0.25869798669E+02  0.23603671027E+02  0.28507646835E+02  0.45156015072E+02  0.00000000000E+00 0.  1.
         13    1    4    4    0    0  0.32183039191E+02 -0.44319073722E+02  0.52743980933E+01  0.55024972352E+02  0.00000000000E+00 0. -1.
         -1    1    1    2    0  502 -0.16497038716E+01 -0.20540768374E+02 -0.65854983117E+02  0.69003793299E+02  0.00000000000E+00 0.  1.
<scales pt_clust_5="13000.00000" pt_clust_6="13000.00000" pt_clust_7="13000.00000" pt_clust_8="13000.00000" pt_clust_9="20.60692"></scales>
<clustering>
<clus scale="   20.607">  1  9  2 -1</clus>
<clus scale="   81.055">  5  6 -1 -1</clus>
<clus scale="   88.228">  2  5  1 -1</clus>
<clus scale="   91.793">  7  8 -1 -1</clus>
<clus scale="   20.607">  1  5  2 -1</clus>
</clustering>
</event>
<event>
 9    1  0.4067873E-005  0.1565387E+03  0.7546771E-02  0.1206584E+00
         -2   -1    0    0    0  501 -0.00000000000E+00  0.00000000000E+00  0.18025423824E+04  0.18025423824E+04  0.00000000000E+00 0.  1.
         21   -1    0    0  501  502  0.00000000000E+00 -0.00000000000E+00 -0.29734867483E+02  0.29734867483E+02  0.00000000000E+00 0.  1.
        -24    2    1    2    0    0  0.40283253737E+02 -0.71885197710E+02  0.29886797643E+03  0.32046895192E+03  0.81166862853E+02 0.  0.
         23    2    1    2    0    0  0.11675668287E+03  0.19452142368E+02  0.42969965521E+03  0.45452512832E+03  0.89111109034E+02 0.  0.
         13    1    3    3    0    0  0.27142842490E+02  0.55954834422E+01  0.32308038396E+02  0.42565862829E+02  0.00000000000E+00 0. -1.
        -14    1    3    3    0    0  0.13140411248E+02 -0.77480681152E+02  0.26655993803E+03  0.27790308909E+03  0.00000000000E+00 0.  1.
        -11    1    4    4    0    0  0.28944222963E+01  0.32747222935E+02  0.79085933132E+02  0.85646617620E+02  0.00000000000E+00 0. -1.
         11    1    4    4    0    0  0.11386226057E+03 -0.13295080567E+02  0.35061372208E+03  0.36887851070E+03  0.00000000000E+00 0.  1.
         -1    1    1    2    0  502 -0.15703993661E+03  0.52433055341E+02  0.10442398833E+04  0.10572831697E+04  0.00000000000E+00 0.  1.
<scales pt_clust_5="13000.00000" pt_clust_6="13000.00000" pt_clust_7="13000.00000" pt_clust_8="13000.00000" pt_clust_9="128.69968"></scales>
<clustering>
<clus scale="   81.167">  5  6 -1 -1</clus>
<clus scale="   89.111">  7  8 -1 -1</clus>
<clus scale="  115.665">  1  5  2 -1</clus>
<clus scale="  128.700">  2  9  1 -1</clus>
<clus scale="  128.700">  2  5  1 -1</clus>
</clustering>
</event>
<event>
 9    1  0.4067873E-005  0.9279051E+02  0.7546771E-02  0.1302085E+00
         21   -1    0    0  501  502  0.00000000000E+00  0.00000000000E+00  0.36031672694E+03  0.36031672694E+03  0.00000000000E+00 0.  1.
         -2   -1    0    0    0  501 -0.00000000000E+00 -0.00000000000E+00 -0.10839313294E+03  0.10839313294E+03  0.00000000000E+00 0.  1.
        -24    2    1    2    0    0  0.78694786914E+01 -0.27409139718E+02 -0.61818445859E+02  0.10296740416E+03  0.77250090199E+02 0.  0.
         23    2    1    2    0    0  0.42696893862E+02  0.57711209648E+02  0.12774245888E+03  0.17062449755E+03  0.87412670130E+02 0.  0.
         11    1    3    3    0    0 -0.17028626039E+02  0.21495023274E+02 -0.19002023940E+02  0.33362959163E+02  0.00000000000E+00 0. -1.
        -12    1    3    3    0    0  0.24898104731E+02 -0.48904162992E+02 -0.42816421920E+02  0.69604444995E+02  0.00000000000E+00 0.  1.
        -11    1    4    4    0    0  0.36399214239E+02  0.79313482463E+02  0.82478001105E+02  0.12007560936E+03  0.00000000000E+00 0.  1.
         11    1    4    4    0    0  0.62976796235E+01 -0.21602272815E+02  0.45264457772E+02  0.50548888185E+02  0.00000000000E+00 0. -1.
         -1    1    1    2    0  502 -0.50566372554E+02 -0.30302069930E+02  0.18599958098E+03  0.19511795817E+03  0.00000000000E+00 0.  1.
<scales pt_clust_5="13000.00000" pt_clust_6="13000.00000" pt_clust_7="13000.00000" pt_clust_8="13000.00000" pt_clust_9="58.95060"></scales>
<clustering>
<clus scale="   58.951">  1  9  2 -1</clus>
<clus scale="   77.250">  5  6 -1 -1</clus>
<clus scale="   83.287">  2  5  1 -1</clus>
<clus scale="   87.413">  7  8 -1 -1</clus>
<clus scale="   58.951">  1  5  2 -1</clus>
</clustering>
</event>
<event>
 9    1  0.4067873E-005  0.1945128E+03  0.7546771E-02  0.1169252E+00
          1   -1    0    0  502    0 -0.00000000000E+00  0.00000000000E+00  0.95807829809E+03  0.95807829809E+03  0.00000000000E+00 0. -1.
         21   -1    0    0  501  502  0.00000000000E+00 -0.00000000000E+00 -0.86078318379E+02  0.86078318379E+02  0.00000000000E+00 0. -1.
        -24    2    1    2    0    0  0.97317662654E+02 -0.55215174399E+02  0.70775908604E+02  0.15507225626E+03  0.80738667773E+02 0.  0.
         23    2    1    2    0    0  0.90254970769E+02  0.13045870650E+03  0.37635296629E+03  0.41859468164E+03  0.91730684143E+02 0.  0.
         13    1    3    3    0    0  0.11033779928E+03 -0.46803621805E+02  0.51797349769E+02  0.13056789195E+03  0.00000000000E+00 0. -1.
        -14    1    3    3    0    0 -0.13020136627E+02 -0.84115525939E+01  0.18978558835E+02  0.24504364311E+02  0.00000000000E+00 0.  1.
        -11    1    4    4    0    0  0.24209629571E+02 -0.10618385584E+02  0.40335207157E+02  0.48226395395E+02  0.00000000000E+00 0.  1.
         11    1    4    4    0    0  0.66045341198E+02  0.14107709208E+03  0.33601775913E+03  0.37036828625E+03  0.00000000000E+00 0. -1.
          2    1    1    2  501    0 -0.18757263342E+03 -0.75243532099E+02  0.42487110482E+03  0.47048967857E+03  0.00000000000E+00 0. -1.
<scales pt_clust_5="13000.00000" pt_clust_6="13000.00000" pt_clust_7="13000.00000" pt_clust_8="13000.00000" pt_clust_9="171.52477"></scales>
<clustering>
<clus scale="   80.739">  5  6 -1 -1</clus>
<clus scale="   91.731">  7  8 -1 -1</clus>
<clus scale="  137.979">  1  5  2 -1</clus>
<clus scale="  171.525">  2  9  1 -1</clus>
<clus scale="  171.525">  2  5  1 -1</clus>
</clustering>
</event>
<event>
 9    1  0.4067873E-005  0.1015834E+03  0.7546771E-02  0.1280193E+00
          1   -1    0    0  502    0 -0.00000000000E+00  0.00000000000E+00  0.36465777114E+03  0.36465777114E+03  0.00000000000E+00 0. -1.
         21   -1    0    0  501  502  0.00000000000E+00 -0.00000000000E+00 -0.80668572765E+02  0.80668572765E+02  0.00000000000E+00 0. -1.
         23    2    1    2    0    0  0.37370482392E+02 -0.37570879147E+02  0.27161012754E+03  0.29107144441E+03  0.90235250626E+02 0.  0.
        -24    2    1    2    0    0 -0.24062883421E+02  0.19276447234E+02  0.56011832104E+02  0.10510618348E+03  0.83422902689E+02 0.  0.
         13    1    4    4    0    0  0.18799976045E+02 -0.22302903700E+02  0.20080938645E+02  0.35413312605E+02  0.00000000000E+00 0. -1.
        -14    1    4    4    0    0 -0.42862859466E+02  0.41579350935E+02  0.35930893459E+02  0.69692870873E+02  0.00000000000E+00 0.  1.
        -13    1    3    3    0    0 -0.16497144245E+02 -0.43166075119E+02  0.16697380683E+03  0.17325044871E+03  0.00000000000E+00 0. -1.
         13    1    3    3    0    0  0.53867626636E+02  0.55951959726E+01  0.10463632071E+03  0.11782099570E+03  0.00000000000E+00 0.  1.
          2    1    1    2  501    0 -0.13307598970E+02  0.18294431912E+02 -0.43632761273E+02  0.49148716012E+02  0.00000000000E+00 0. -1.
<scales pt_clust_5="13000.00000" pt_clust_6="13000.00000" pt_clust_7="13000.00000" pt_clust_8="13000.00000" pt_clust_9="22.62252"></scales>
<clustering>
<clus scale="   22.623">  2  9  1 -1</clus>
<clus scale="   83.423">  5  6 -1 -1</clus>
<clus scale="   90.235">  7  8 -1 -1</clus>
<clus scale="   95.583">  2  5  1 -1</clus>
<clus scale="   22.623">  2  5  1 -1</clus>
</clustering>
</event>
<event>
 9    1  0.4067873E-005  0.1136088E+03  0.7546771E-02  0.1257531E+00
         21   -1    0    0  501  502  0.00000000000E+00  0.00000000000E+00  0.90164533229E+02  0.90164533229E+02  0.00000000000E+00 0. -1.
          1   -1    0    0  502    0 -0.00000000000E+00 -0.00000000000E+00 -0.50961471217E+03  0.50961471217E+03  0.00000000000E+00 0. -1.
        -24    2    1    2    0    0  0.13544099060E+02 -0.70860874379E+02 -0.38508931404E+03  0.40009753989E+03  0.81114459243E+02 0.  0.
         23    2    1    2    0    0 -0.23004651666E+02  0.51628028952E+02 -0.90161560820E+02  0.13990610795E+03  0.90829205769E+02 0.  0.
         13    1    3    3    0    0  0.29436940080E+02 -0.70459009323E+02 -0.37124367387E+03  0.37901566040E+03  0.00000000000E+00 0. -1.
        -14    1    3    3    0    0 -0.15892841019E+02 -0.40186505643E+00 -0.13845640171E+02  0.21081879492E+02  0.00000000000E+00 0.  1.
        -13    1    4    4    0    0 -0.49469681712E+02  0.93850408811E+01 -0.69784734649E+02  0.86053690165E+02  0.00000000000E+00 0. -1.
         13    1    4    4    0    0  0.26465030046E+02  0.42242988071E+02 -0.20376826171E+02  0.53852417785E+02  0.00000000000E+00 0.  1.
          2    1    1    2  501    0  0.94605526058E+01  0.19232845427E+02  0.55800695919E+02  0.59775597562E+02  0.00000000000E+00 0. -1.
<scales pt_clust_5="13000.00000" pt_clust_6="13000.00000" pt_clust_7="13000.00000" pt_clust_8="13000.00000" pt_clust_9="21.43372"></scales>
<clustering>
<clus scale="   21.434">  1  9  2 -1</clus>
<clus scale="   81.114">  5  6 -1 -1</clus>
<clus scale="   90.829">  7  8 -1 -1</clus>
<clus scale="  106.003">  2  5  1 -1</clus>
<clus scale="   21.434">  1  5  2 -1</clus>
</clustering>
</event>
<event>
 9    1  0.4067873E-005  0.1035876E+03  0.7546771E-02  0.1274976E+00
          1   -1    0    0  502    0 -0.00000000000E+00  0.00000000000E+00  0.53148514682E+03  0.53148514682E+03  0.00000000000E+00 0. -1.
         21   -1    0    0  501  502  0.00000000000E+00 -0.00000000000E+00 -0.42062572856E+02  0.42062572856E+02  0.00000000000E+00 0. -1.
         23    2    1    2    0    0  0.38626757383E+02 -0.49918856543E+02  0.41725381119E+03  0.43091446748E+03  0.87192985419E+02 0.  0.
        -24    2    1    2    0    0 -0.15250419733E+02  0.29269323485E+02  0.66541880539E+02  0.11093911739E+03  0.82403867035E+02 0.  0.
         13    1    4    4    0    0  0.92296070891E+01 -0.17894601591E+02  0.52126441193E+02  0.55879945281E+02  0.00000000000E+00 0. -1.
        -14    1    4    4    0    0 -0.24480026822E+02  0.47163925076E+02  0.14415439345E+02  0.55059172109E+02  0.00000000000E+00 0.  1.
        -13    1    3    3    0    0  0.57794533450E+02 -0.99383039885E+01  0.17299890572E+03  0.18266800312E+03  0.00000000000E+00 0. -1.
         13    1    3    3    0    0 -0.19167776066E+02 -0.39980552555E+02  0.24425490547E+03  0.24824646436E+03  0.00000000000E+00 0.  1.
          2    1    1    2  501    0 -0.23376337651E+02  0.20649533058E+02  0.56268822362E+01  0.31694134807E+02  0.00000000000E+00 0. -1.
<scales pt_clust_5="13000.00000" pt_clust_6="13000.00000" pt_clust_7="13000.00000" pt_clust_8="13000.00000" pt_clust_9="31.19065"></scales>
<clustering>
<clus scale="   31.191">  2  9  1 -1</clus>
<clus scale="   82.404">  5  6 -1 -1</clus>
<clus scale="   87.193">  7  8 -1 -1</clus>
<clus scale="   99.590">  2  5  1 -1</clus>
<clus scale="   31.191">  2  5  1 -1</clus>
</clustering>
</event>
<event>
 9    1  0.4067873E-005  0.1245978E+03  0.7546771E-02  0.1239038E+00
          3   -1    0    0  502    0 -0.00000000000E+00  0.00000000000E+00  0.72940651850E+02  0.72940651850E+02  0.00000000000E+00 0. -1.
         21   -1    0    0  501  502  0.00000000000E+00 -0.00000000000E+00 -0.29762420557E+03  0.29762420557E+03  0.00000000000E+00 0. -1.
         23    2    1    2    0    0  0.49416364200E+02  0.72194389344E+02 -0.57696062672E+02  0.13929996802E+03  0.91769485883E+02 0.  0.
        -24    2    1    2    0    0 -0.72067124028E+02 -0.42739774839E+02 -0.15192425679E+03  0.19117084667E+03  0.80280471442E+02 0.  0.
         11    1    4    4    0    0 -0.80024805101E+02 -0.57086904018E+02 -0.11871650148E+03  0.15413141071E+03  0.00000000000E+00 0. -1.
        -12    1    4    4    0    0  0.79576810735E+01  0.14347129178E+02 -0.33207755307E+02  0.37039435961E+02  0.00000000000E+00 0.  1.
        -13    1    3    3    0    0  0.38360572556E+02  0.31944867218E+02 -0.78215763224E+02  0.92788542855E+02  0.00000000000E+00 0.  1.
         13    1    3    3    0    0  0.11055791644E+02  0.40249522125E+02  0.20519700552E+02  0.46511425166E+02  0.00000000000E+00 0. -1.
          4    1    1    2  501    0  0.22650759828E+02 -0.29454614504E+02 -0.15063234258E+02  0.40094042733E+02  0.00000000000E+00 0. -1.
<scales pt_clust_5="13000.00000" pt_clust_6="13000.00000" pt_clust_7="13000.00000" pt_clust_8="13000.00000" pt_clust_9="37.15687"></scales>
<clustering>
<clus scale="   37.157">  2  9  1 -1</clus>
<clus scale="   80.280">  5  6 -1 -1</clus>
<clus scale="   91.769">  7  8 -1 -1</clus>
<clus scale="  116.396">  2  5  1 -1</clus>
<clus scale="   37.157">  2  5  1 -1</clus>
</clustering>
</event>
<event>
 9    1  0.4067873E-005  0.1296534E+03  0.7546771E-02  0.1242419E+00
         21   -1    0    0  501  502  0.00000000000E+00  0.00000000000E+00  0.83820770441E+03  0.83820770441E+03  0.00000000000E+00 0. -1.
         -2   -1    0    0    0  501 -0.00000000000E+00 -0.00000000000E+00 -0.36769827659E+02  0.36769827659E+02  0.00000000000E+00 0.  1.
         23    2    1    2    0    0 -0.32546349711E+01  0.34867453333E+02  0.15357508664E+03  0.18135331480E+03  0.89874276643E+02 0.  0.
        -24    2    1    2    0    0 -0.99576074539E+02 -0.88140437047E+01  0.46174122571E+03  0.47939496691E+03  0.81372555552E+02 0.  0.
         13    1    4    4    0    0 -0.10605479327E+03  0.10926743857E+02  0.41006612450E+03  0.42369946822E+03  0.00000000000E+00 0. -1.
        -14    1    4    4    0    0  0.64787187318E+01 -0.19740787562E+02  0.51675101210E+02  0.55695498696E+02  0.00000000000E+00 0.  1.
        -11    1    3    3    0    0  0.38755889421E+02  0.15981829667E+02  0.36652088864E+02  0.55684948257E+02  0.00000000000E+00 0.  1.
         11    1    3    3    0    0 -0.42010524392E+02  0.18885623666E+02  0.11692299777E+03  0.12566836654E+03  0.00000000000E+00 0. -1.
         -1    1    1    2    0  502  0.10283070951E+03 -0.26053409628E+02  0.18612156441E+03  0.21422925036E+03  0.00000000000E+00 0.  1.
<scales pt_clust_5="13000.00000" pt_clust_6="13000.00000" pt_clust_7="13000.00000" pt_clust_8="13000.00000" pt_clust_9="100.93826"></scales>
<clustering>
<clus scale="   81.373">  5  6 -1 -1</clus>
<clus scale="   89.874">  7  8 -1 -1</clus>
<clus scale="   96.456">  2  7  1 -1</clus>
<clus scale="  100.938">  1  9  2 -1</clus>
<clus scale="  100.938">  1  5  2 -1</clus>
</clustering>
</event>
<event>
 9    1  0.4067873E-005  0.1366010E+03  0.7546771E-02  0.1233727E+00
         21   -1    0    0  501  502  0.00000000000E+00  0.00000000000E+00  0.14492432803E+03  0.14492432803E+03  0.00000000000E+00 0. -1.
          1   -1    0    0  502    0 -0.00000000000E+00 -0.00000000000E+00 -0.30190514629E+03  0.30190514629E+03  0.00000000000E+00 0. -1.
        -24    2    1    2    0    0 -0.50296355134E+02 -0.25135381206E+02 -0.78618109754E+02  0.12599116213E+03  0.80817417829E+02 0.  0.
         23    2    1    2    0    0  0.74633906835E+02 -0.84029842597E+02 -0.13672603485E+03  0.19468110720E+03  0.81089397563E+02 0.  0.
         11    1    3    3    0    0 -0.50186294907E+02 -0.21109749110E+02 -0.94796500859E+02  0.10931908470E+03  0.00000000000E+00 0. -1.
        -12    1    3    3    0    0 -0.11006022696E+00 -0.40256320959E+01  0.16178391105E+02  0.16672077429E+02  0.00000000000E+00 0.  1.
        -11    1    4    4    0    0  0.23607807553E+01 -0.37587056954E+02 -0.88457107014E+02  0.96140625739E+02  0.00000000000E+00 0.  1.
         11    1    4    4    0    0  0.72273126079E+02 -0.46442785644E+02 -0.48268927839E+02  0.98540481460E+02  0.00000000000E+00 0. -1.
          2    1    1    2  501    0 -0.24337551700E+02  0.10916522380E+03  0.58363326346E+02  0.12615720500E+03  0.00000000000E+00 0. -1.
<scales pt_clust_5="13000.00000" pt_clust_6="13000.00000" pt_clust_7="13000.00000" pt_clust_8="13000.00000" pt_clust_9="109.92878"></scales>
<clustering>
<clus scale="   80.817">  5  6 -1 -1</clus>
<clus scale="   81.089">  7  8 -1 -1</clus>
<clus scale="   98.453">  2  5  1 -1</clus>
<clus scale="  109.929">  1  9  2 -1</clus>
<clus scale="  109.929">  1  5  2 -1</clus>
</clustering>
</event>
<event>
 9    1  0.4067873E-005  0.1475305E+03  0.7546771E-02  0.1221041E+00
         21   -1    0    0  501  502  0.00000000000E+00  0.00000000000E+00  0.13271267197E+03  0.13271267197E+03  0.00000000000E+00 0. -1.
          1   -1    0    0  502    0 -0.00000000000E+00 -0.00000000000E+00 -0.41933178644E+03  0.41933178644E+03  0.00000000000E+00 0. -1.
         23    2    1    2    0    0  0.15398743924E+02  0.43504476854E+02 -0.24028623759E+03  0.26091194336E+03  0.90596939196E+02 0.  0.
        -24    2    1    2    0    0 -0.24600772092E+02  0.93322009273E+02 -0.81499310118E+02  0.14955976818E+03  0.80073661749E+02 0.  0.
         11    1    4    4    0    0 -0.19392910685E+02  0.10785875451E+03 -0.67441541173E+02  0.12867772684E+03  0.00000000000E+00 0. -1.
        -12    1    4    4    0    0 -0.52078614073E+01 -0.14536745240E+02 -0.14057768945E+02  0.20882041335E+02  0.00000000000E+00 0.  1.
        -11    1    3    3    0    0 -0.21424618642E+02  0.55268933658E+02 -0.17794319586E+03  0.18755652552E+03  0.00000000000E+00 0. -1.
         11    1    3    3    0    0  0.36823362566E+02 -0.11764456803E+02 -0.62343041733E+02  0.73355417844E+02  0.00000000000E+00 0.  1.
          2    1    1    2  501    0  0.92020281686E+01 -0.13682648613E+03  0.35166433238E+02  0.14157274687E+03  0.00000000000E+00 0. -1.
<scales pt_clust_5="13000.00000" pt_clust_6="13000.00000" pt_clust_7="13000.00000" pt_clust_8="13000.00000" pt_clust_9="123.90906"></scales>
<clustering>
<clus scale="   80.074">  5  6 -1 -1</clus>
<clus scale="   90.597">  7  8 -1 -1</clus>
<clus scale="  101.674">  2  7  1 -1</clus>
<clus scale="  123.909">  1  9  2 -1</clus>
<clus scale="  123.909">  1  5  2 -1</clus>
</clustering>
</event>
<event>
 9    1  0.4067873E-005  0.1260874E+03  0.7546771E-02  0.1244577E+00
          1   -1    0    0  502    0 -0.00000000000E+00  0.00000000000E+00  0.22204879949E+03  0.22204879949E+03  0.00000000000E+00 0. -1.
         21   -1    0    0  501  502  0.00000000000E+00 -0.00000000000E+00 -0.86258773092E+02  0.86258773092E+02  0.00000000000E+00 0. -1.
        -24    2    1    2    0    0  0.47533842227E+02 -0.14913562994E+02  0.92689048865E+02  0.13399958469E+03  0.82962331214E+02 0.  0.
         23    2    1    2    0    0 -0.76472964783E+02  0.39322107612E+01  0.25227246967E+02  0.13856539208E+03  0.11269595054E+03 0.  0.
         11    1    3    3    0    0  0.51547891941E+02 -0.41083668379E+02  0.82572734976E+02  0.10565656408E+03  0.00000000000E+00 0. -1.
        -12    1    3    3    0    0 -0.40140497143E+01  0.26170105385E+02  0.10116313889E+02  0.28343020617E+02  0.00000000000E+00 0.  1.
        -11    1    4    4    0    0  0.42725297348E+00  0.21060669872E+02  0.51398428589E+02  0.55547572602E+02  0.00000000000E+00 0.  1.
         11    1    4    4    0    0 -0.76900217757E+02 -0.17128459111E+02 -0.26171181622E+02  0.83017819473E+02  0.00000000000E+00 0. -1.
          2    1    1    2  501    0  0.28939122557E+02  0.10981352233E+02  0.17873730568E+02  0.35742595816E+02  0.00000000000E+00 0. -1.
<scales pt_clust_5="13000.00000" pt_clust_6="13000.00000" pt_clust_7="13000.00000" pt_clust_8="13000.00000" pt_clust_9="30.95261"></scales>
<clustering>
<clus scale="   30.953">  2  9  1 -1</clus>
<clus scale="   82.962">  5  6 -1 -1</clus>
<clus scale="  100.401">  1  5  2 -1</clus>
<clus scale="  112.696">  7  8 -1 -1</clus>
<clus scale="   30.953">  2  5  1 -1</clus>
</clustering>
</event>
<event>
 9    1  0.4067873E-005  0.9540724E+02  0.7546771E-02  0.1320342E+00
         -2   -1    0    0    0  501 -0.00000000000E+00  0.00000000000E+00  0.17010121131E+03  0.17010121131E+03  0.00000000000E+00 0.  1.
         21   -1    0    0  501  502  0.00000000000E+00 -0.00000000000E+00 -0.66292483674E+02  0.66292483674E+02  0.00000000000E+00 0. -1.
        -24    2    1    2    0    0 -0.25400685298E+02  0.10233975270E+01  0.59685306297E+02  0.81729197965E+02  0.49709997546E+02 0.  0.
         23    2    1    2    0    0  0.10388611152E+02 -0.32315541920E+02 -0.74661545417E-01  0.98468134135E+02  0.92432409762E+02 0.  0.
         13    1    3    3    0    0 -0.35702319375E+02 -0.10940831722E+02  0.52393587485E+02  0.64338522031E+02  0.00000000000E+00 0. -1.
        -14    1    3    3    0    0  0.10301634077E+02  0.11964229249E+02  0.72917188125E+01  0.17390675934E+02  0.00000000000E+00 0.  1.
        -13    1    4    4    0    0 -0.30067916961E+02 -0.14715354780E+02 -0.30167515859E+02  0.45063292266E+02  0.00000000000E+00 0. -1.
         13    1    4    4    0    0  0.40456528113E+02 -0.17600187140E+02  0.30092854314E+02  0.53404841870E+02  0.00000000000E+00 0.  1.
         -1    1    1    2    0  502  0.15012074146E+02  0.31292144393E+02  0.44198082886E+02  0.56196362887E+02  0.00000000000E+00 0.  1.
<scales pt_clust_5="13000.00000" pt_clust_6="13000.00000" pt_clust_7="13000.00000" pt_clust_8="13000.00000" pt_clust_9="34.70680"></scales>
<clustering>
<clus scale="   34.707">  2  9  1 -1</clus>
<clus scale="   49.710">  5  6 -1 -1</clus>
<clus scale="   55.044">  1  5  2 -1</clus>
<clus scale="   92.432">  7  8 -1 -1</clus>
<clus scale="   34.707">  2  5  1 -1</clus>
</clustering>
</event>
<event>
 9    1  0.4067873E-005  0.1038692E+03  0.7546771E-02  0.1277519E+00
         21   -1    0    0  501  502  0.00000000000E+00  0.00000000000E+00  0.11989136059E+03  0.11989136059E+03  0.00000000000E+00 0.  1.
         -2   -1    0    0    0  501 -0.00000000000E+00 -0.00000000000E+00 -0.15205549286E+03  0.15205549286E+03  0.00000000000E+00 0.  1.
        -24    2    1    2    0    0  0.22837159362E+02 -0.59505566957E+02 -0.51698810528E+02  0.11442695960E+03  0.79739035144E+02 0.  0.
         23    2    1    2    0    0 -0.26689599078E+02  0.23934368939E+02 -0.24387154772E+02  0.10086939662E+03  0.91075315766E+02 0.  0.
         11    1    3    3    0    0  0.42621757179E+02 -0.72232744795E+01 -0.91795308434E+01  0.44193366762E+02  0.00000000000E+00 0. -1.
        -12    1    3    3    0    0 -0.19784597817E+02 -0.52282292477E+02 -0.42519279685E+02  0.70233592834E+02  0.00000000000E+00 0.  1.
        -11    1    4    4    0    0 -0.59906695887E+02  0.62412257939E+01 -0.14284406870E+02  0.61901610570E+02  0.00000000000E+00 0. -1.
         11    1    4    4    0    0  0.33217096809E+02  0.17693143145E+02 -0.10102747903E+02  0.38967786054E+02  0.00000000000E+00 0.  1.
         -1    1    1    2    0  502  0.38524397169E+01  0.35571198018E+02  0.43921833031E+02  0.56650497235E+02  0.00000000000E+00 0.  1.
<scales pt_clust_5="13000.00000" pt_clust_6="13000.00000" pt_clust_7="13000.00000" pt_clust_8="13000.00000" pt_clust_9="35.77920"></scales>
<clustering>
<clus scale="   35.779">  1  9  2 -1</clus>
<clus scale="   79.739">  5  6 -1 -1</clus>
<clus scale="   91.075">  7  8 -1 -1</clus>
<clus scale="   94.087">  2  5  1 -1</clus>
<clus scale="   35.779">  1  5  2 -1</clus>
</clustering>
</event>
<event>
 9    1  0.4067873E-005  0.1298763E+03  0.7546771E-02  0.1228773E+00
         -2   -1    0    0    0  501 -0.00000000000E+00  0.00000000000E+00  0.66067141948E+02  0.66067141948E+02  0.00000000000E+00 0.  1.
         21   -1    0    0  501  502  0.00000000000E+00 -0.00000000000E+00 -0.34914231998E+03  0.34914231998E+03  0.00000000000E+00 0.  1.
        -24    2    1    2    0    0  0.95278562593E+02  0.30747762064E+02 -0.68810239683E+02  0.14794988969E+03  0.84444605588E+02 0.  0.
         23    2    1    2    0    0 -0.87677003276E+02  0.14893590630E+01 -0.18412397575E+03  0.22247683774E+03  0.88909109715E+02 0.  0.
         11    1    3    3    0    0 -0.14821579659E+01  0.34046304837E+02 -0.20189996589E+02  0.39610397973E+02  0.00000000000E+00 0. -1.
        -12    1    3    3    0    0  0.96760720559E+02 -0.32985427732E+01 -0.48620243094E+02  0.10833949172E+03  0.00000000000E+00 0.  1.
        -13    1    4    4    0    0 -0.86760271362E+02 -0.28392713648E+02 -0.11259921601E+03  0.14495542184E+03  0.00000000000E+00 0.  1.
         13    1    4    4    0    0 -0.91673191369E+00  0.29882072711E+02 -0.71524759735E+02  0.77521415893E+02  0.00000000000E+00 0. -1.
         -1    1    1    2    0  502 -0.76015593171E+01 -0.32237121127E+02 -0.30140962598E+02  0.44782734496E+02  0.00000000000E+00 0.  1.
<scales pt_clust_5="13000.00000" pt_clust_6="13000.00000" pt_clust_7="13000.00000" pt_clust_8="13000.00000" pt_clust_9="33.12124"></scales>
<clustering>
<clus scale="   33.121">  2  9  1 -1</clus>
<clus scale="   84.445">  5  6 -1 -1</clus>
<clus scale="   88.909">  7  8 -1 -1</clus>
<clus scale="  126.862">  1  5  2 -1</clus>
<clus scale="   33.121">  2  5  1 -1</clus>
</clustering>
</event>
<event>
 9    1  0.4067873E-005  0.9239818E+02  0.7546771E-02  0.1300740E+00
         -4   -1    0    0    0  501 -0.00000000000E+00  0.00000000000E+00  0.96867385952E+02  0.96867385952E+02  0.00000000000E+00 0.  1.
         21   -1    0    0  501  502  0.00000000000E+00 -0.00000000000E+00 -0.14467303226E+03  0.14467303226E+03  0.00000000000E+00 0.  1.
        -24    2    1    2    0    0 -0.28360295196E+02  0.27807714873E+02  0.15518634129E+02  0.93423552786E+02  0.83123744261E+02 0.  0.
         23    2    1    2    0    0 -0.37840239626E+00 -0.80717898350E-01 -0.24872979436E+02  0.92680400449E+02  0.89279571110E+02 0.  0.
         11    1    3    3    0    0  0.24945682195E+02 -0.41546029749E+01 -0.86619730408E+01  0.26731583623E+02  0.00000000000E+00 0. -1.
        -12    1    3    3    0    0 -0.53305977391E+02  0.31962317848E+02  0.24180607170E+02  0.66691969163E+02  0.00000000000E+00 0.  1.
        -11    1    4    4    0    0 -0.13837673296E+02  0.17159383384E+02 -0.52794833532E+02  0.57212062435E+02  0.00000000000E+00 0.  1.
         11    1    4    4    0    0  0.13459270899E+02 -0.17240101283E+02  0.27921854096E+02  0.35468338015E+02  0.00000000000E+00 0. -1.
         -3    1    1    2    0  502  0.28738697592E+02 -0.27726996974E+02 -0.38451301004E+02  0.55436464979E+02  0.00000000000E+00 0.  1.
<scales pt_clust_5="13000.00000" pt_clust_6="13000.00000" pt_clust_7="13000.00000" pt_clust_8="13000.00000" pt_clust_9="39.93368"></scales>
<clustering>
<clus scale="   39.934">  2  9  1 -1</clus>
<clus scale="   83.124">  5  6 -1 -1</clus>
<clus scale="   86.465">  1  5  2 -1</clus>
<clus scale="   89.280">  7  8 -1 -1</clus>
<clus scale="   39.934">  2  5  1 -1</clus>
</clustering>
</event>
<event>
 9    1  0.4067873E-005  0.1823868E+03  0.7546771E-02  0.1193356E+00
         21   -1    0    0  501  502  0.00000000000E+00  0.00000000000E+00  0.17507438551E+03  0.17507438551E+03  0.00000000000E+00 0.  1.
          1   -1    0    0  502    0 -0.00000000000E+00 -0.00000000000E+00 -0.35764970220E+03  0.35764970220E+03  0.00000000000E+00 0. -1.
        -24    2    1    2    0    0  0.27058126974E+02  0.47412196609E+02 -0.15857067452E+03  0.18613163634E+03  0.80748180218E+02 0.  0.
         23    2    1    2    0    0  0.12679613280E+03  0.42043598080E+02 -0.44196380379E+02  0.16748025540E+03  0.90837175636E+02 0.  0.
         11    1    3    3    0    0  0.49199990019E+01  0.37927512424E+02 -0.15860758957E+02  0.41403698669E+02  0.00000000000E+00 0. -1.
        -12    1    3    3    0    0  0.22138127972E+02  0.94846841856E+01 -0.14270991556E+03  0.14472793767E+03  0.00000000000E+00 0.  1.
        -11    1    4    4    0    0  0.10129438259E+03  0.64868023374E+02 -0.54043269760E+02  0.13186768902E+03  0.00000000000E+00 0.  1.
         11    1    4    4    0    0  0.25501750208E+02 -0.22824425294E+02  0.98468893803E+01  0.35612566380E+02  0.00000000000E+00 0. -1.
          2    1    1    2  501    0 -0.15385425977E+03 -0.89455794689E+02  0.20191738201E+02  0.17911219597E+03  0.00000000000E+00 0. -1.
<scales pt_clust_5="13000.00000" pt_clust_6="13000.00000" pt_clust_7="13000.00000" pt_clust_8="13000.00000" pt_clust_9="158.15676"></scales>
<clustering>
<clus scale="   80.748">  5  6 -1 -1</clus>
<clus scale="   90.837">  7  8 -1 -1</clus>
<clus scale="   97.470">  2  5  1 -1</clus>
<clus scale="  158.157">  1  9  2 -1</clus>
<clus scale="  158.157">  1  5  2 -1</clus>
</clustering>
</event>
<event>
 9    1  0.4067873E-005  0.2982267E+03  0.7546771E-02  0.1086390E+00
         21   -1    0    0  501  502  0.00000000000E+00  0.00000000000E+00  0.94091397225E+02  0.94091397225E+02  0.00000000000E+00 0. -1.
          1   -1    0    0  502    0 -0.00000000000E+00 -0.00000000000E+00 -0.13513722579E+04  0.13513722579E+04  0.00000000000E+00 0. -1.
        -24    2    1    2    0    0 -0.22052608755E+03  0.21305038270E+03 -0.52718143624E+03  0.61551903656E+03  0.83193730506E+02 0.  0.
         23    2    1    2    0    0  0.16344034604E+03 -0.20379453301E+03 -0.35245048608E+03  0.44789334808E+03  0.90233850173E+02 0.  0.
         13    1    3    3    0    0 -0.14900397251E+03  0.89620207809E+02 -0.31579178771E+03  0.36049745999E+03  0.00000000000E+00 0. -1.
        -14    1    3    3    0    0 -0.71522115042E+02  0.12343017489E+03 -0.21138964852E+03  0.25502157657E+03  0.00000000000E+00 0.  1.
        -11    1    4    4    0    0  0.75899039860E+02 -0.33391443638E+02 -0.83389114591E+02  0.11759845744E+03  0.00000000000E+00 0. -1.
         11    1    4    4    0    0  0.87541306181E+02 -0.17040308937E+03 -0.26906137149E+03  0.33029489064E+03  0.00000000000E+00 0.  1.
          2    1    1    2  501    0  0.57085741512E+02 -0.92558496954E+01 -0.37764893836E+03  0.38205127049E+03  0.00000000000E+00 0. -1.
<scales pt_clust_5="13000.00000" pt_clust_6="13000.00000" pt_clust_7="13000.00000" pt_clust_8="13000.00000" pt_clust_9="57.83127"></scales>
<clustering>
<clus scale="   57.831">  1  9  2 -1</clus>
<clus scale="   83.194">  5  6 -1 -1</clus>
<clus scale="   90.234">  7  8 -1 -1</clus>
<clus scale="  296.173">  2  5  1 -1</clus>
<clus scale="   57.831">  1  5  2 -1</clus>
</clustering>
</event>
<event>
 9    1  0.4067873E-005  0.1600521E+03  0.7546771E-02  0.1201358E+00
         21   -1    0    0  501  502  0.00000000000E+00  0.00000000000E+00  0.80020587209E+02  0.80020587209E+02  0.00000000000E+00 0. -1.
          1   -1    0    0  502    0 -0.00000000000E+00 -0.00000000000E+00 -0.84579537385E+03  0.84579537385E+03  0.00000000000E+00 0. -1.
         23    2    1    2    0    0 -0.66363092532E+02  0.32479736682E+02 -0.50926640213E+03  0.52347321906E+03  0.95984110097E+02 0.  0.
        -24    2    1    2    0    0 -0.96366858051E+02 -0.17248989598E+02 -0.18265117124E+03  0.22298862182E+03  0.82330894151E+02 0.  0.
         13    1    4    4    0    0 -0.10685580808E+03 -0.26011172633E+02 -0.17659481480E+03  0.20803959584E+03  0.00000000000E+00 0. -1.
        -14    1    4    4    0    0  0.10488950033E+02  0.87621830345E+01 -0.60563564382E+01  0.14949025976E+02  0.00000000000E+00 0.  1.
        -11    1    3    3    0    0 -0.23061204366E+01  0.48015494689E+02 -0.13174973999E+03  0.14024549872E+03  0.00000000000E+00 0.  1.
         11    1    3    3    0    0 -0.64056972096E+02 -0.15535758007E+02 -0.37751666214E+03  0.38322772035E+03  0.00000000000E+00 0. -1.
          2    1    1    2  501    0  0.16272995058E+03 -0.15230747083E+02 -0.73857213274E+02  0.17935412018E+03  0.00000000000E+00 0. -1.
<scales pt_clust_5="13000.00000" pt_clust_6="13000.00000" pt_clust_7="13000.00000" pt_clust_8="13000.00000" pt_clust_9="137.25263"></scales>
<clustering>
<clus scale="   82.331">  5  6 -1 -1</clus>
<clus scale="   95.984">  7  8 -1 -1</clus>
<clus scale="  121.128">  2  7  1 -1</clus>
<clus scale="  137.253">  1  9  2 -1</clus>
<clus scale="  137.253">  1  5  2 -1</clus>
</clustering>
</event>
<event>
 9    1  0.4067873E-005  0.1176998E+03  0.7546771E-02  0.1250995E+00
          1   -1    0    0  502    0 -0.00000000000E+00  0.00000000000E+00  0.22978845856E+03  0.22978845856E+03  0.00000000000E+00 0. -1.
         21   -1    0    0  501  502  0.00000000000E+00 -0.00000000000E+00 -0.11318177051E+03  0.11318177051E+03  0.00000000000E+00 0. -1.
         23    2    1    2    0    0 -0.51987111345E+02 -0.33669432051E+02  0.75274896208E+02  0.13437358072E+03  0.92485992423E+02 0.  0.
        -24    2    1    2    0    0  0.83975487729E+02  0.57058788599E+02 -0.24403981586E+02  0.13184047511E+03  0.80490798637E+02 0.  0.
         11    1    4    4    0    0  0.85263035753E+02  0.20130058298E+02 -0.89412662202E-01  0.87607148724E+02  0.00000000000E+00 0. -1.
        -12    1    4    4    0    0 -0.12875480241E+01  0.36928730300E+02 -0.24314568924E+02  0.44233326389E+02  0.00000000000E+00 0.  1.
        -11    1    3    3    0    0 -0.77469770184E+02 -0.34847251031E+02  0.64603333412E+02  0.10672153899E+03  0.00000000000E+00 0.  1.
         11    1    3    3    0    0  0.25482658838E+02  0.11778189800E+01  0.10671562796E+02  0.27652041724E+02  0.00000000000E+00 0. -1.
          2    1    1    2  501    0 -0.31988376383E+02 -0.23389356548E+02  0.65735773424E+02  0.76756173244E+02  0.00000000000E+00 0. -1.
<scales pt_clust_5="13000.00000" pt_clust_6="13000.00000" pt_clust_7="13000.00000" pt_clust_8="13000.00000" pt_clust_9="39.62726"></scales>
<clustering>
<clus scale="   39.627">  2  9  1 -1</clus>
<clus scale="   80.491">  5  6 -1 -1</clus>
<clus scale="   92.486">  7  8 -1 -1</clus>
<clus scale="  108.528">  2  5  1 -1</clus>
<clus scale="   39.627">  2  5  1 -1</clus>
</clustering>
</event>
<event>
 9    1  0.4067873E-005  0.1046847E+03  0.7546771E-02  0.1274321E+00
         21   -1    0    0  501  502  0.00000000000E+00  0.00000000000E+00  0.63463624791E+02  0.63463624791E+02  0.00000000000E+00 0. -1.
         -2   -1    0    0    0  501 -0.00000000000E+00 -0.00000000000E+00 -0.45231618123E+03  0.45231618123E+03  0.00000000000E+00 0.  1.
        -24    2    1    2    0    0  0.49415112456E+02  0.33511091393E+01 -0.36759188874E+03  0.38049958610E+03  0.84870814082E+02 0.  0.
         23    2    1    2    0    0 -0.40041451780E+02 -0.22491472870E+02 -0.35700909568E+02  0.10953649013E+03  0.92814349718E+02 0.  0.
         13    1    3    3    0    0  0.28055054795E+02 -0.40512318316E+02 -0.17258860279E+03  0.17948582074E+03  0.00000000000E+00 0. -1.
        -14    1    3    3    0    0  0.21360057661E+02  0.43863427455E+02 -0.19500328596E+03  0.20101376536E+03  0.00000000000E+00 0.  1.
        -13    1    4    4    0    0 -0.29803862325E+01  0.23619285172E+02  0.17838260425E+02  0.29748224638E+02  0.00000000000E+00 0. -1.
         13    1    4    4    0    0 -0.37061065547E+02 -0.46110758043E+02 -0.53539169993E+02  0.79788265493E+02  0.00000000000E+00 0.  1.
         -1    1    1    2    0  502 -0.93736606763E+01  0.19140363731E+02  0.14440241871E+02  0.25743729790E+02  0.00000000000E+00 0.  1.
<scales pt_clust_5="13000.00000" pt_clust_6="13000.00000" pt_clust_7="13000.00000" pt_clust_8="13000.00000" pt_clust_9="21.31242"></scales>
<clustering>
<clus scale="   21.312">  1  9  2 -1</clus>
<clus scale="   84.871">  5  6 -1 -1</clus>
<clus scale="   92.814">  7  8 -1 -1</clus>
<clus scale="   97.711">  2  5  1 -1</clus>
<clus scale="   21.312">  1  5  2 -1</clus>
</clustering>
</event>
<event>
 9    1  0.4067873E-005  0.1490737E+03  0.7546771E-02  0.1223699E+00
         21   -1    0    0  501  502  0.00000000000E+00  0.00000000000E+00  0.13433788557E+03  0.13433788557E+03  0.00000000000E+00 0.  1.
         -2   -1    0    0    0  501 -0.00000000000E+00 -0.00000000000E+00 -0.27555035500E+03  0.27555035500E+03  0.00000000000E+00 0.  1.
         23    2    1    2    0    0  0.11897252852E+02 -0.17489217881E+02 -0.10758266897E+02  0.93837869002E+02  0.90787598188E+02 0.  0.
        -24    2    1    2    0    0  0.11252278367E+03 -0.39661016972E+02 -0.30503348799E+02  0.14653144048E+03  0.79414328996E+02 0.  0.
         11    1    4    4    0    0  0.55896930564E+02  0.14973656230E+02 -0.35153408677E+02  0.67708488160E+02  0.00000000000E+00 0. -1.
        -12    1    4    4    0    0  0.56625853108E+02 -0.54634673202E+02  0.46500598788E+01  0.78822952324E+02  0.00000000000E+00 0.  1.
        -11    1    3    3    0    0 -0.27338124115E+02  0.44914651744E+01  0.24271038330E+02  0.36832452961E+02  0.00000000000E+00 0. -1.
         11    1    3    3    0    0  0.39235376967E+02 -0.21980683055E+02 -0.35029305227E+02  0.57005416041E+02  0.00000000000E+00 0.  1.
         -1    1    1    2    0  502 -0.12442003652E+03  0.57150234853E+02 -0.99950853736E+02  0.16951893108E+03  0.00000000000E+00 0.  1.
<scales pt_clust_5="13000.00000" pt_clust_6="13000.00000" pt_clust_7="13000.00000" pt_clust_8="13000.00000" pt_clust_9="126.15998"></scales>
<clustering>
<clus scale="   79.414">  5  6 -1 -1</clus>
<clus scale="   90.788">  7  8 -1 -1</clus>
<clus scale="   93.219">  2  7  1 -1</clus>
<clus scale="  126.160">  1  9  2 -1</clus>
<clus scale="  126.160">  1  5  2 -1</clus>
</clustering>
</event>
<event>
 9    1  0.4067873E-005  0.9328909E+02  0.7546771E-02  0.1302977E+00
         21   -1    0    0  501  502  0.00000000000E+00  0.00000000000E+00  0.46185631390E+03  0.46185631390E+03  0.00000000000E+00 0.  1.
         -2   -1    0    0    0  501 -0.00000000000E+00 -0.00000000000E+00 -0.29929713602E+02  0.29929713602E+02  0.00000000000E+00 0.  1.
         23    2    1    2    0    0 -0.31009514005E+02 -0.57755444382E+01  0.18651897056E+03  0.21029733190E+03  0.91873252656E+02 0.  0.
        -24    2    1    2    0    0 -0.26345968199E+01  0.15223905594E+01  0.23187374014E+03  0.24497593511E+03  0.78984293658E+02 0.  0.
         13    1    4    4    0    0  0.24908140689E+02  0.11474126817E+02  0.28675340283E+02  0.39678031694E+02  0.00000000000E+00 0. -1.
        -14    1    4    4    0    0 -0.27542737508E+02 -0.99517362571E+01  0.20319839985E+03  0.20529790341E+03  0.00000000000E+00 0.  1.
        -11    1    3    3    0    0 -0.21054254745E+02  0.23605216768E+02  0.13284017428E+02  0.34306748907E+02  0.00000000000E+00 0.  1.
         11    1    3    3    0    0 -0.99552592599E+01 -0.29380761206E+02  0.17323495313E+03  0.17599058299E+03  0.00000000000E+00 0. -1.
         -1    1    1    2    0  502  0.33644110825E+02  0.42531538788E+01  0.13533889606E+02  0.36512760495E+02  0.00000000000E+00 0.  1.
<scales pt_clust_5="13000.00000" pt_clust_6="13000.00000" pt_clust_7="13000.00000" pt_clust_8="13000.00000" pt_clust_9="33.91190"></scales>
<clustering>
<clus scale="   33.912">  1  9  2 -1</clus>
<clus scale="   78.984">  5  6 -1 -1</clus>
<clus scale="   80.627">  1  5  2 -1</clus>
<clus scale="   91.873">  7  8 -1 -1</clus>
<clus scale="   33.912">  1  5  2 -1</clus>
</clustering>
</event>
<event>
 9    1  0.4067873E-005  0.1976344E+03  0.7546771E-02  0.1152686E+00
          1   -1    0    0  502    0 -0.00000000000E+00  0.00000000000E+00  0.83492408562E+03  0.83492408562E+03  0.00000000000E+00 0. -1.
         21   -1    0    0  501  502  0.00000000000E+00 -0.00000000000E+00 -0.21978254887E+03  0.21978254887E+03  0.00000000000E+00 0.  1.
         23    2    1    2    0    0 -0.17276039545E+02  0.17727951555E+03  0.76274728480E+03  0.78842294623E+03  0.90004630401E+02 0.  0.
        -24    2    1    2    0    0 -0.23849041077E+02 -0.15064977951E+03 -0.12113740310E+03  0.21059716940E+03  0.80079738422E+02 0.  0.
         13    1    4    4    0    0  0.29799367703E+02 -0.57093770179E+02 -0.46873293365E+02  0.79654293918E+02  0.00000000000E+00 0. -1.
        -14    1    4    4    0    0 -0.53648408780E+02 -0.93556009328E+02 -0.74264109734E+02  0.13094287549E+03  0.00000000000E+00 0.  1.
        -11    1    3    3    0    0  0.34251931884E+02  0.39245785834E+02  0.18653665647E+03  0.19367330934E+03  0.00000000000E+00 0.  1.
         11    1    3    3    0    0 -0.51527971429E+02  0.13803372971E+03  0.57621062833E+03  0.59474963689E+03  0.00000000000E+00 0. -1.
          2    1    1    2  501    0  0.41125080622E+02 -0.26629736041E+02 -0.26468344953E+02  0.55686518856E+02  0.00000000000E+00 0. -1.
<scales pt_clust_5="13000.00000" pt_clust_6="13000.00000" pt_clust_7="13000.00000" pt_clust_8="13000.00000" pt_clust_9="48.99403"></scales>
<clustering>
<clus scale="   48.994">  2  9  1 -1</clus>
<clus scale="   80.080">  5  6 -1 -1</clus>
<clus scale="   90.005">  7  8 -1 -1</clus>
<clus scale="  193.317">  2  5  1 -1</clus>
<clus scale="   48.994">  2  5  1 -1</clus>
</clustering>
</event>
<event>
 9    1  0.4067873E-005  0.9361022E+02  0.7546771E-02  0.1300792E+00
         -2   -1    0    0    0  501 -0.00000000000E+00  0.00000000000E+00  0.51972326035E+03  0.51972326035E+03  0.00000000000E+00 0.  1.
         21   -1    0    0  501  502  0.00000000000E+00 -0.00000000000E+00 -0.58266945189E+02  0.58266945189E+02  0.00000000000E+00 0. -1.
        -24    2    1    2    0    0 -0.12816070443E+02  0.32607740426E+02  0.21194712118E+03  0.22894860060E+03  0.79172995048E+02 0.  0.
         23    2    1    2    0    0 -0.34230674302E+01  0.28971165465E+02  0.34066544118E+01  0.94832771036E+02  0.90169858317E+02 0.  0.
         13    1    3    3    0    0 -0.27356210136E+02  0.34759933444E+02  0.20941238793E+03  0.21403308956E+03  0.00000000000E+00 0. -1.
        -14    1    3    3    0    0  0.14540139694E+02 -0.21521930178E+01  0.25347332452E+01  0.14915511045E+02  0.00000000000E+00 0.  1.
        -13    1    4    4    0    0  0.11345770850E+02  0.58307100919E+02 -0.82730056298E+01  0.59974054023E+02  0.00000000000E+00 0. -1.
         13    1    4    4    0    0 -0.14768838280E+02 -0.29335935454E+02  0.11679660042E+02  0.34858717013E+02  0.00000000000E+00 0.  1.
         -1    1    1    2    0  502  0.16239137873E+02 -0.61578905892E+02  0.24610253957E+03  0.25420883390E+03  0.00000000000E+00 0.  1.
<scales pt_clust_5="13000.00000" pt_clust_6="13000.00000" pt_clust_7="13000.00000" pt_clust_8="13000.00000" pt_clust_9="63.68418"></scales>
<clustering>
<clus scale="   63.684">  2  9  1 -1</clus>
<clus scale="   79.173">  5  6 -1 -1</clus>
<clus scale="   83.070">  1  5  2 -1</clus>
<clus scale="   90.170">  7  8 -1 -1</clus>
<clus scale="   63.684">  2  5  1 -1</clus>
</clustering>
</event>
<event>
 9    1  0.4067873E-005  0.1149632E+03  0.7546771E-02  0.1256705E+00
         21   -1    0    0  501  502  0.00000000000E+00  0.00000000000E+00  0.41212428365E+03  0.41212428365E+03  0.00000000000E+00 0.  1.
          3   -1    0    0  502    0 -0.00000000000E+00 -0.00000000000E+00 -0.53526187355E+02  0.53526187355E+02  0.00000000000E+00 0. -1.
        -24    2    1    2    0    0  0.61522866635E+02  0.37915452343E+02  0.13679809787E+03  0.17305659764E+03  0.77538517922E+02 0.  0.
         23    2    1    2    0    0 -0.77321928311E+02  0.25816293667E+02  0.16590387820E+03  0.20636324043E+03  0.91741640402E+02 0.  0.
         11    1    3    3    0    0  0.70199435242E+02  0.34753503648E+01  0.95725485585E+02  0.11875776757E+03  0.00000000000E+00 0. -1.
        -12    1    3    3    0    0 -0.86765686067E+01  0.34440101978E+02  0.41072612285E+02  0.54298830070E+02  0.00000000000E+00 0.  1.
        -11    1    4    4    0    0  0.19903597707E+02  0.14290382908E+02  0.39408379722E+02  0.46404618710E+02  0.00000000000E+00 0. -1.
         11    1    4    4    0    0 -0.97225526018E+02  0.11525910760E+02  0.12649549848E+03  0.15995862172E+03  0.00000000000E+00 0.  1.
          4    1    1    2  501    0  0.15799061676E+02 -0.63731746010E+02  0.55896120231E+02  0.86230632934E+02  0.00000000000E+00 0. -1.
<scales pt_clust_5="13000.00000" pt_clust_6="13000.00000" pt_clust_7="13000.00000" pt_clust_8="13000.00000" pt_clust_9="65.66087"></scales>
<clustering>
<clus scale="   65.661">  1  9  2 -1</clus>
<clus scale="   77.539">  5  6 -1 -1</clus>
<clus scale="   91.742">  7  8 -1 -1</clus>
<clus scale="  103.982">  2  5  1 -1</clus>
<clus scale="   65.661">  1  5  2 -1</clus>
</clustering>
</event>
<event>
 9    1  0.4067873E-005  0.3752429E+03  0.7546771E-02  0.1103366E+00
         -2   -1    0    0    0  501 -0.00000000000E+00  0.00000000000E+00  0.34759214870E+03  0.34759214870E+03  0.00000000000E+00 0.  1.
         21   -1    0    0  501  502  0.00000000000E+00 -0.00000000000E+00 -0.53623105891E+03  0.53623105891E+03  0.00000000000E+00 0.  1.
        -24    2    1    2    0    0  0.90440928877E+01  0.48217397967E+02 -0.20415188243E+02  0.97464578824E+02  0.81705881866E+02 0.  0.
         23    2    1    2    0    0  0.29371631121E+03 -0.22320975632E+03 -0.20598444816E+03  0.43463137620E+03  0.10189687682E+03 0.  0.
         13    1    3    3    0    0  0.17828081598E+02  0.68393334655E+02 -0.25031491207E+02  0.74980425917E+02  0.00000000000E+00 0. -1.
        -14    1    3    3    0    0 -0.87839887099E+01 -0.20175936688E+02  0.46163029643E+01  0.22484152907E+02  0.00000000000E+00 0.  1.
        -11    1    4    4    0    0  0.79647936186E+02 -0.80304790806E+02 -0.14927992182E+02  0.11408548600E+03  0.00000000000E+00 0. -1.
         11    1    4    4    0    0  0.21406837502E+03 -0.14290496552E+03 -0.19105645598E+03  0.32054589020E+03  0.00000000000E+00 0.  1.
         -1    1    1    2    0  502 -0.30276040409E+03  0.17499235835E+03  0.37760726194E+02  0.35172725259E+03  0.00000000000E+00 0.  1.
<scales pt_clust_5="13000.00000" pt_clust_6="13000.00000" pt_clust_7="13000.00000" pt_clust_8="13000.00000" pt_clust_9="361.14313"></scales>
<clustering>
<clus scale="   81.706">  5  6 -1 -1</clus>
<clus scale="   95.302">  1  5  2 -1</clus>
<clus scale="  101.897">  7  8 -1 -1</clus>
<clus scale="  361.143">  2  9  1 -1</clus>
<clus scale="  361.143">  2  5  1 -1</clus>
</clustering>
</event>
<event>
 9    1  0.4067873E-005  0.9180911E+02  0.7546771E-02  0.1302140E+00
          1   -1    0    0  502    0 -0.00000000000E+00  0.00000000000E+00  0.35257040082E+03  0.35257040082E+03  0.00000000000E+00 0. -1.
         21   -1    0    0  501  502  0.00000000000E+00 -0.00000000000E+00 -0.49577985595E+02  0.49577985595E+02  0.00000000000E+00 0. -1.
        -24    2    1    2    0    0  0.11806108648E+02  0.84860504162E+01  0.17147109751E+03  0.19205865238E+03  0.85280662635E+02 0.  0.
         23    2    1    2    0    0  0.88031100173E+01  0.41452813693E+02  0.11669612004E+03  0.15406816204E+03  0.91231483673E+02 0.  0.
         13    1    3    3    0    0  0.37810583056E+02  0.32589504640E+02  0.11517683846E+03  0.12552856297E+03  0.00000000000E+00 0. -1.
        -14    1    3    3    0    0 -0.26004474408E+02 -0.24103454224E+02  0.56294259046E+02  0.66530089405E+02  0.00000000000E+00 0.  1.
        -11    1    4    4    0    0 -0.36649127338E+02 -0.79205069210E+00  0.58248292540E+02  0.68823320632E+02  0.00000000000E+00 0.  1.
         11    1    4    4    0    0  0.45452237355E+02  0.42244864386E+02  0.58447827503E+02  0.85244841412E+02  0.00000000000E+00 0. -1.
          2    1    1    2  501    0 -0.20609218665E+02 -0.49938864110E+02  0.14825197672E+02  0.56021571993E+02  0.00000000000E+00 0. -1.
<scales pt_clust_5="13000.00000" pt_clust_6="13000.00000" pt_clust_7="13000.00000" pt_clust_8="13000.00000" pt_clust_9="54.02435"></scales>
<clustering>
<clus scale="   54.024">  2  9  1 -1</clus>
<clus scale="   85.281">  5  6 -1 -1</clus>
<clus scale="   85.898">  1  5  2 -1</clus>
<clus scale="   91.231">  7  8 -1 -1</clus>
<clus scale="   54.024">  2  5  1 -1</clus>
</clustering>
</event>
<event>
 9    1  0.4067873E-005  0.1010424E+03  0.7546771E-02  0.1282006E+00
         -2   -1    0    0    0  501 -0.00000000000E+00  0.00000000000E+00  0.22323941129E+02  0.22323941129E+02  0.00000000000E+00 0.  1.
         21   -1    0    0  501  502  0.00000000000E+00 -0.00000000000E+00 -0.11931349716E+04  0.11931349716E+04  0.00000000000E+00 0. -1.
        -24    2    1    2    0    0  0.17693397224E+02 -0.53923354540E+02 -0.23193890824E+03  0.25208230749E+03  0.80802525452E+02 0.  0.
         23    2    1    2    0    0  0.74356846402E+02  0.29690038363E+02 -0.56750621454E+03  0.58000584690E+03  0.89067614243E+02 0.  0.
         13    1    3    3    0    0  0.46551581726E+02 -0.43368841887E+02 -0.11784367224E+03  0.13392175810E+03  0.00000000000E+00 0. -1.
        -14    1    3    3    0    0 -0.28858184503E+02 -0.10554512653E+02 -0.11409523601E+03  0.11816054938E+03  0.00000000000E+00 0.  1.
        -11    1    4    4    0    0  0.76621887824E+02 -0.12358125016E+02 -0.36041361207E+03  0.36867547886E+03  0.00000000000E+00 0.  1.
         11    1    4    4    0    0 -0.22650414219E+01  0.42048163379E+02 -0.20709260247E+03  0.21133036803E+03  0.00000000000E+00 0. -1.
         -1    1    1    2    0  502 -0.92050243626E+02  0.24233316177E+02 -0.37136590768E+03  0.38337075834E+03  0.00000000000E+00 0.  1.
<scales pt_clust_5="13000.00000" pt_clust_6="13000.00000" pt_clust_7="13000.00000" pt_clust_8="13000.00000" pt_clust_9="95.18666"></scales>
<clustering>
<clus scale="   80.803">  5  6 -1 -1</clus>
<clus scale="   89.068">  7  8 -1 -1</clus>
<clus scale="   95.187">  2  9  1 -1</clus>
<clus scale="   93.838">  1  5  2 -1</clus>
<clus scale="   95.187">  2  5  1 -1</clus>
</clustering>
</event>
<event>
 9    1  0.4067873E-005  0.9504788E+02  0.7546771E-02  0.1298057E+00
         21   -1    0    0  501  502  0.00000000000E+00  0.00000000000E+00  0.10801243126E+03  0.10801243126E+03  0.00000000000E+00 0. -1.
          3   -1    0    0  502    0 -0.00000000000E+00 -0.00000000000E+00 -0.34608417524E+03  0.34608417524E+03  0.00000000000E+00 0. -1.
         23    2    1    2    0    0 -0.21243284687E+02 -0.17042868720E+02 -0.25858123942E+03  0.27597563003E+03  0.92501645766E+02 0.  0.
        -24    2    1    2    0    0  0.12395747285E+02 -0.28599726946E+01 -0.55766647455E+02  0.98795999386E+02  0.80553687263E+02 0.  0.
         11    1    4    4    0    0 -0.95034687921E+01  0.18610535191E+02 -0.63764924242E+02  0.67101665425E+02  0.00000000000E+00 0. -1.
        -12    1    4    4    0    0  0.21899216077E+02 -0.21470507886E+02  0.79982767870E+01  0.31694333961E+02  0.00000000000E+00 0.  1.
        -13    1    3    3    0    0  0.14277418131E+02 -0.47040600703E+02 -0.15029293811E+03  0.15812852377E+03  0.00000000000E+00 0. -1.
         13    1    3    3    0    0 -0.35520702818E+02  0.29997731984E+02 -0.10828830131E+03  0.11784710626E+03  0.00000000000E+00 0.  1.
          4    1    1    2  501    0  0.88475374023E+01  0.19902841414E+02  0.76276142895E+02  0.79324977084E+02  0.00000000000E+00 0. -1.
<scales pt_clust_5="13000.00000" pt_clust_6="13000.00000" pt_clust_7="13000.00000" pt_clust_8="13000.00000" pt_clust_9="21.78077"></scales>
<clustering>
<clus scale="   21.781">  1  9  2 -1</clus>
<clus scale="   80.554">  5  6 -1 -1</clus>
<clus scale="   83.465">  1  5  2 -1</clus>
<clus scale="   92.502">  7  8 -1 -1</clus>
<clus scale="   21.781">  1  5  2 -1</clus>
</clustering>
</event>
<event>
 9    1  0.4067873E-005  0.1169865E+03  0.7546771E-02  0.1252120E+00
         21   -1    0    0  501  502  0.00000000000E+00  0.00000000000E+00  0.16592372817E+03  0.16592372817E+03  0.00000000000E+00 0.  1.
         -4   -1    0    0    0  501 -0.00000000000E+00 -0.00000000000E+00 -0.14278834388E+03  0.14278834388E+03  0.00000000000E+00 0.  1.
         23    2    1    2    0    0  0.10581780927E+02  0.62555905425E+02 -0.33812232440E+01  0.11184126040E+03  0.92042487282E+02 0.  0.
        -24    2    1    2    0    0 -0.43823517797E+02 -0.80803380232E+02  0.68717868343E+02  0.14013519832E+03  0.80411699458E+02 0.  0.
         11    1    4    4    0    0 -0.42902509529E+02 -0.77321372970E+01  0.46537114331E+02  0.63766090372E+02  0.00000000000E+00 0. -1.
        -12    1    4    4    0    0 -0.92100826822E+00 -0.73071242935E+02  0.22180754012E+02  0.76369107949E+02  0.00000000000E+00 0.  1.
        -13    1    3    3    0    0 -0.28727808940E+02 -0.68262100596E+01 -0.11493234056E+02  0.31685621018E+02  0.00000000000E+00 0. -1.
         13    1    3    3    0    0  0.39309589866E+02  0.69382115485E+02  0.81120108116E+01  0.80155639377E+02  0.00000000000E+00 0.  1.
         -3    1    1    2    0  502  0.33241736870E+02  0.18247474807E+02 -0.42201260808E+02  0.56735613338E+02  0.00000000000E+00 0.  1.
<scales pt_clust_5="13000.00000" pt_clust_6="13000.00000" pt_clust_7="13000.00000" pt_clust_8="13000.00000" pt_clust_9="37.92077"></scales>
<clustering>
<clus scale="   37.921">  1  9  2 -1</clus>
<clus scale="   80.412">  5  6 -1 -1</clus>
<clus scale="   92.042">  7  8 -1 -1</clus>
<clus scale="  108.074">  1  5  2 -1</clus>
<clus scale="   37.921">  1  5  2 -1</clus>
</clustering>
</event>
<event>
 9    1  0.4067873E-005  0.9054553E+02  0.7546771E-02  0.1307757E+00
         21   -1    0    0  501  502  0.00000000000E+00  0.00000000000E+00  0.28914617942E+03  0.28914617942E+03  0.00000000000E+00 0. -1.
         -4   -1    0    0    0  501 -0.00000000000E+00 -0.00000000000E+00 -0.68042138087E+02  0.68042138087E+02  0.00000000000E+00 0.  1.
        -24    2    1    2    0    0 -0.17166289766E+02  0.56839838969E+01 -0.22601247553E+02  0.84530160610E+02  0.79420038306E+02 0.  0.
         23    2    1    2    0    0 -0.12222422600E+02 -0.15064881969E+02  0.18451488417E+03  0.20591085977E+03  0.89315180169E+02 0.  0.
         11    1    3    3    0    0 -0.26742404287E+02 -0.31976816617E+02 -0.17977874332E+02  0.45396882641E+02  0.00000000000E+00 0. -1.
        -12    1    3    3    0    0  0.95761145208E+01  0.37660800514E+02 -0.46233732208E+01  0.39133277969E+02  0.00000000000E+00 0.  1.
        -13    1    4    4    0    0  0.26304696381E+02 -0.36575103831E+02  0.70614364631E+02  0.83761946994E+02  0.00000000000E+00 0.  1.
         13    1    4    4    0    0 -0.38527118981E+02  0.21510221862E+02  0.11390051954E+03  0.12214891277E+03  0.00000000000E+00 0. -1.
         -3    1    1    2    0  502  0.29388712366E+02  0.93808980725E+01  0.59190404719E+02  0.66747297128E+02  0.00000000000E+00 0.  1.
<scales pt_clust_5="13000.00000" pt_clust_6="13000.00000" pt_clust_7="13000.00000" pt_clust_8="13000.00000" pt_clust_9="30.84960"></scales>
<clustering>
<clus scale="   30.850">  1  9  2 -1</clus>
<clus scale="   79.420">  5  6 -1 -1</clus>
<clus scale="   80.801">  2  5  1 -1</clus>
<clus scale="   89.315">  7  8 -1 -1</clus>
<clus scale="   30.850">  1  5  2 -1</clus>
</clustering>
</event>
<event>
 9    1  0.4067873E-005  0.1792241E+03  0.7546771E-02  0.1169955E+00
         21   -1    0    0  501  502  0.00000000000E+00  0.00000000000E+00  0.44654805624E+03  0.44654805624E+03  0.00000000000E+00 0.  1.
         -2   -1    0    0    0  501 -0.00000000000E+00 -0.00000000000E+00 -0.99482342306E+02  0.99482342306E+02  0.00000000000E+00 0.  1.
         23    2    1    2    0    0  0.91942927213E+02 -0.12118150399E+03  0.12539904248E+03  0.21719274785E+03  0.91155422717E+02 0.  0.
        -24    2    1    2    0    0 -0.13092317959E+03  0.94684250818E+02  0.21624000791E+03  0.28139280715E+03  0.79474427265E+02 0.  0.
         11    1    4    4    0    0 -0.43351901462E+02  0.68526721709E+02  0.61868362482E+02  0.10199506471E+03  0.00000000000E+00 0. -1.
        -12    1    4    4    0    0 -0.87571278132E+02  0.26157529110E+02  0.15437164543E+03  0.17939774244E+03  0.00000000000E+00 0.  1.
        -11    1    3    3    0    0  0.83802279670E+02 -0.36109064489E+02  0.55645949572E+02  0.10687917627E+03  0.00000000000E+00 0.  1.
         11    1    3    3    0    0  0.81406475424E+01 -0.85072439502E+02  0.69753092905E+02  0.11031357158E+03  0.00000000000E+00 0. -1.
         -1    1    1    2    0  502  0.38980252381E+02  0.26497253174E+02  0.54266635492E+01  0.47444843542E+02  0.00000000000E+00 0.  1.
<scales pt_clust_5="13000.00000" pt_clust_6="13000.00000" pt_clust_7="13000.00000" pt_clust_8="13000.00000" pt_clust_9="47.13350"></scales>
<clustering>
<clus scale="   47.133">  1  9  2 -1</clus>
<clus scale="   79.474">  5  6 -1 -1</clus>
<clus scale="   91.155">  7  8 -1 -1</clus>
<clus scale="  173.575">  1  5  2 -1</clus>
<clus scale="   47.133">  1  5  2 -1</clus>
</clustering>
</event>
<event>
 9    1  0.4067873E-005  0.9668613E+02  0.7546771E-02  0.1292863E+00
          1   -1    0    0  502    0 -0.00000000000E+00  0.00000000000E+00  0.52931914599E+03  0.52931914599E+03  0.00000000000E+00 0. -1.
         21   -1    0    0  501  502  0.00000000000E+00 -0.00000000000E+00 -0.26095325052E+02  0.26095325052E+02  0.00000000000E+00 0. -1.
        -24    2    1    2    0    0  0.16741633239E+02  0.23204899347E+02  0.29911654931E+03  0.31093291653E+03  0.79936342644E+02 0.  0.
         23    2    1    2    0    0 -0.44114355301E+02 -0.32467907595E+02  0.15369861801E+03  0.18637732407E+03  0.90072195399E+02 0.  0.
         13    1    3    3    0    0  0.49094610167E+02  0.16963726170E+02  0.18545846184E+03  0.19259514485E+03  0.00000000000E+00 0. -1.
        -14    1    3    3    0    0 -0.32352976928E+02  0.62411731770E+01  0.11365808747E+03  0.11833777168E+03  0.00000000000E+00 0.  1.
        -11    1    4    4    0    0 -0.29000743694E+02 -0.51572103790E+02  0.43288177148E+02  0.73311604163E+02  0.00000000000E+00 0. -1.
         11    1    4    4    0    0 -0.15113611607E+02  0.19104196195E+02  0.11041044086E+03  0.11306571991E+03  0.00000000000E+00 0.  1.
          2    1    1    2  501    0  0.27372722062E+02  0.92630082475E+01  0.50408653631E+02  0.58104230446E+02  0.00000000000E+00 0. -1.
<scales pt_clust_5="13000.00000" pt_clust_6="13000.00000" pt_clust_7="13000.00000" pt_clust_8="13000.00000" pt_clust_9="28.89756"></scales>
<clustering>
<clus scale="   28.898">  2  9  1 -1</clus>
<clus scale="   79.936">  5  6 -1 -1</clus>
<clus scale="   87.321">  1  5  2 -1</clus>
<clus scale="   90.072">  7  8 -1 -1</clus>
<clus scale="   28.898">  2  5  1 -1</clus>
</clustering>
</event>
<event>
 9    1  0.4067873E-005  0.1087592E+03  0.7546771E-02  0.1270282E+00
         -4   -1    0    0    0  501 -0.00000000000E+00  0.00000000000E+00  0.83327621339E+02  0.83327621339E+02  0.00000000000E+00 0.  1.
         21   -1    0    0  501  502  0.00000000000E+00 -0.00000000000E+00 -0.23212730975E+03  0.23212730975E+03  0.00000000000E+00 0.  1.
        -24    2    1    2    0    0  0.29206852952E+02  0.12261215556E+02 -0.15410506118E+02  0.88932928927E+02  0.81659074710E+02 0.  0.
         23    2    1    2    0    0 -0.69280974041E+02 -0.23870046135E+02 -0.48076490824E+02  0.13155382089E+03  0.98109257228E+02 0.  0.
         11    1    3    3    0    0 -0.13080514339E+01  0.36943376674E+02  0.14374656007E+02  0.39663015694E+02  0.00000000000E+00 0. -1.
        -12    1    3    3    0    0  0.30514904386E+02 -0.24682161118E+02 -0.29785162125E+02  0.49269913233E+02  0.00000000000E+00 0.  1.
        -13    1    4    4    0    0 -0.30574877235E+02 -0.26759129730E+02 -0.74319358954E+02  0.84700892895E+02  0.00000000000E+00 0.  1.
         13    1    4    4    0    0 -0.38706096806E+02  0.28890835941E+01  0.26242868130E+02  0.46852927994E+02  0.00000000000E+00 0. -1.
         -3    1    1    2    0  502  0.40074121089E+02  0.11608830579E+02 -0.85312691465E+02  0.94968181269E+02  0.00000000000E+00 0.  1.
<scales pt_clust_5="13000.00000" pt_clust_6="13000.00000" pt_clust_7="13000.00000" pt_clust_8="13000.00000" pt_clust_9="41.72170"></scales>
<clustering>
<clus scale="   41.722">  2  9  1 -1</clus>
<clus scale="   81.659">  5  6 -1 -1</clus>
<clus scale="   94.188">  1  5  2 -1</clus>
<clus scale="   98.109">  7  8 -1 -1</clus>
<clus scale="   41.722">  2  5  1 -1</clus>
</clustering>
</event>
<event>
 9    1  0.4067873E-005  0.1360038E+03  0.7546771E-02  0.1220411E+00
         21   -1    0    0  501  502  0.00000000000E+00  0.00000000000E+00  0.21028974786E+03  0.21028974786E+03  0.00000000000E+00 0. -1.
          3   -1    0    0  502    0 -0.00000000000E+00 -0.00000000000E+00 -0.12658081292E+03  0.12658081292E+03  0.00000000000E+00 0. -1.
        -24    2    1    2    0    0 -0.62462682944E+02  0.75809156919E+02 -0.15125704970E+02  0.12819025283E+03  0.80965047624E+02 0.  0.
         23    2    1    2    0    0  0.89864633877E+02 -0.77120758235E+02  0.10428096226E+03  0.18071158184E+03  0.88084578390E+02 0.  0.
         13    1    3    3    0    0 -0.38959067835E+02  0.68201335912E+02 -0.44128723267E+02  0.90092038516E+02  0.00000000000E+00 0. -1.
        -14    1    3    3    0    0 -0.23503615109E+02  0.76078210064E+01  0.29003018297E+02  0.38098214315E+02  0.00000000000E+00 0.  1.
        -13    1    4    4    0    0 -0.13748999493E+02 -0.24483101615E+02  0.36916139458E+02  0.46381662371E+02  0.00000000000E+00 0.  1.
         13    1    4    4    0    0  0.10361363337E+03 -0.52637656620E+02  0.67364822797E+02  0.13432991947E+03  0.00000000000E+00 0. -1.
          4    1    1    2  501    0 -0.27401950933E+02  0.13116013164E+01 -0.54463223487E+01  0.27968726108E+02  0.00000000000E+00 0. -1.
<scales pt_clust_5="13000.00000" pt_clust_6="13000.00000" pt_clust_7="13000.00000" pt_clust_8="13000.00000" pt_clust_9="27.43334"></scales>
<clustering>
<clus scale="   27.433">  1  9  2 -1</clus>
<clus scale="   80.965">  5  6 -1 -1</clus>
<clus scale="   88.085">  7  8 -1 -1</clus>
<clus scale="  131.505">  2  5  1 -1</clus>
<clus scale="   27.433">  1  5  2 -1</clus>
</clustering>
</event>
<event>
 9    1  0.4067873E-005  0.1008107E+03  0.7546771E-02  0.1284257E+00
         21   -1    0    0  501  502  0.00000000000E+00  0.00000000000E+00  0.92615101777E+02  0.92615101777E+02  0.00000000000E+00 0.  1.
          1   -1    0    0  502    0 -0.00000000000E+00 -0.00000000000E+00 -0.20401613194E+03  0.20401613194E+03  0.00000000000E+00 0. -1.
         23    2    1    2    0    0  0.33175675962E+02  0.15697681869E+02 -0.13024754084E+03  0.16419119523E+03  0.92990773768E+02 0.  0.
        -24    2    1    2    0    0 -0.26956118568E+02 -0.42114246956E+02 -0.54942109504E+01  0.95984743463E+02  0.81747431145E+02 0.  0.
         11    1    4    4    0    0  0.28674931851E+02 -0.17772025381E+02 -0.97379429474E+01  0.35113019461E+02  0.00000000000E+00 0. -1.
        -12    1    4    4    0    0 -0.55631050418E+02 -0.24342221575E+02  0.42437319969E+01  0.60871724003E+02  0.00000000000E+00 0.  1.
        -13    1    3    3    0    0  0.17620372190E+02 -0.37251104811E+02 -0.77893737991E+02  0.88122396381E+02  0.00000000000E+00 0.  1.
         13    1    3    3    0    0  0.15555303772E+02  0.52948786679E+02 -0.52353802849E+02  0.76068798854E+02  0.00000000000E+00 0. -1.
          2    1    1    2  501    0 -0.62195573945E+01  0.26416565087E+02  0.24340721630E+02  0.36455295016E+02  0.00000000000E+00 0. -1.
<scales pt_clust_5="13000.00000" pt_clust_6="13000.00000" pt_clust_7="13000.00000" pt_clust_8="13000.00000" pt_clust_9="27.13886"></scales>
<clustering>
<clus scale="   27.139">  1  9  2 -1</clus>
<clus scale="   81.747">  5  6 -1 -1</clus>
<clus scale="   90.544">  1  5  2 -1</clus>
<clus scale="   92.991">  7  8 -1 -1</clus>
<clus scale="   27.139">  1  5  2 -1</clus>
</clustering>
</event>
<event>
 9    1  0.4067873E-005  0.1103279E+03  0.7546771E-02  0.1267036E+00
          3   -1    0    0  502    0 -0.00000000000E+00  0.00000000000E+00  0.55638243189E+02  0.55638243189E+02  0.00000000000E+00 0. -1.
         21   -1    0    0  501  502  0.00000000000E+00 -0.00000000000E+00 -0.40754862273E+03  0.40754862273E+03  0.00000000000E+00 0. -1.
         23    2    1    2    0    0  0.11956229192E+01  0.76790207369E+02 -0.18326789563E+03  0.22086321123E+03  0.96411986000E+02 0.  0.
        -24    2    1    2    0    0  0.22430813066E+02 -0.30765540563E+02 -0.16887488512E+03  0.19058843997E+03  0.79721808597E+02 0.  0.
         11    1    4    4    0    0 -0.19446090571E+02 -0.15700371362E+02 -0.12715147605E+03  0.12958452825E+03  0.00000000000E+00 0. -1.
        -12    1    4    4    0    0  0.41876903637E+02 -0.15065169201E+02 -0.41723409065E+02  0.61003911721E+02  0.00000000000E+00 0.  1.
        -11    1    3    3    0    0  0.24266360524E+02  0.85897918957E+02 -0.10029534564E+03  0.13426267199E+03  0.00000000000E+00 0. -1.
         11    1    3    3    0    0 -0.23070737604E+02 -0.91077115874E+01 -0.82972549992E+02  0.86600539237E+02  0.00000000000E+00 0.  1.
          4    1    1    2  501    0 -0.23626435985E+02 -0.46024666807E+02  0.23240120234E+00  0.51735214722E+02  0.00000000000E+00 0. -1.
<scales pt_clust_5="13000.00000" pt_clust_6="13000.00000" pt_clust_7="13000.00000" pt_clust_8="13000.00000" pt_clust_9="51.73472"></scales>
<clustering>
<clus scale="   51.735">  2  9  1 -1</clus>
<clus scale="   79.722">  5  6 -1 -1</clus>
<clus scale="   96.086">  2  5  1 -1</clus>
<clus scale="   96.412">  7  8 -1 -1</clus>
<clus scale="   51.735">  2  5  1 -1</clus>
</clustering>
</event>
<event>
 9    1  0.4067873E-005  0.1110206E+03  0.7546771E-02  0.1263510E+00
         21   -1    0    0  501  502  0.00000000000E+00  0.00000000000E+00  0.65430182546E+02  0.65430182546E+02  0.00000000000E+00 0.  1.
          1   -1    0    0  502    0 -0.00000000000E+00 -0.00000000000E+00 -0.33054727223E+03  0.33054727223E+03  0.00000000000E+00 0. -1.
         23    2    1    2    0    0  0.10690903995E+02 -0.58099064604E+02 -0.19852866825E+03  0.22663071512E+03  0.91967669218E+02 0.  0.
        -24    2    1    2    0    0 -0.31473028203E+02  0.67868300974E+02 -0.11709334285E+02  0.10985683402E+03  0.79591191040E+02 0.  0.
         13    1    4    4    0    0 -0.49291842425E+02  0.39767899572E+02 -0.31923145439E+02  0.70924317274E+02  0.00000000000E+00 0. -1.
        -14    1    4    4    0    0  0.17818814221E+02  0.28100401402E+02  0.20213811154E+02  0.38932516751E+02  0.00000000000E+00 0.  1.
        -13    1    3    3    0    0 -0.21528240209E+02  0.71866737117E+01 -0.10850186857E+03  0.11085020924E+03  0.00000000000E+00 0.  1.
         13    1    3    3    0    0  0.32219144203E+02 -0.65285738316E+02 -0.90026799684E+02  0.11578050588E+03  0.00000000000E+00 0. -1.
          2    1    1    2  501    0  0.20782124209E+02 -0.97692363694E+01 -0.54879087147E+02  0.59489905630E+02  0.00000000000E+00 0. -1.
<scales pt_clust_5="13000.00000" pt_clust_6="13000.00000" pt_clust_7="13000.00000" pt_clust_8="13000.00000" pt_clust_9="22.96378"></scales>
<clustering>
<clus scale="   22.964">  1  9  2 -1</clus>
<clus scale="   79.591">  5  6 -1 -1</clus>
<clus scale="   91.968">  7  8 -1 -1</clus>
<clus scale="  101.006">  1  5  2 -1</clus>
<clus scale="   22.964">  1  5  2 -1</clus>
</clustering>
</event>
<event>
 9    1  0.4067873E-005  0.1177647E+03  0.7546771E-02  0.1251154E+00
          1   -1    0    0  502    0 -0.00000000000E+00  0.00000000000E+00  0.41860717395E+03  0.41860717395E+03  0.00000000000E+00 0. -1.
         21   -1    0    0  501  502  0.00000000000E+00 -0.00000000000E+00 -0.19184247020E+03  0.19184247020E+03  0.00000000000E+00 0. -1.
         23    2    1    2    0    0 -0.51367478059E+02 -0.45094768710E+02  0.34516205766E+03  0.36384693311E+03  0.92604474625E+02 0.  0.
        -24    2    1    2    0    0  0.98139971419E+02  0.86511184789E+02 -0.75711931460E+02  0.17093877678E+03  0.79825620941E+02 0.  0.
         11    1    4    4    0    0  0.22912561809E+02  0.73152195195E+02 -0.42242407368E+02  0.87525139993E+02  0.00000000000E+00 0. -1.
        -12    1    4    4    0    0  0.75227409609E+02  0.13358989594E+02 -0.33469524092E+02  0.83413636789E+02  0.00000000000E+00 0.  1.
        -11    1    3    3    0    0 -0.30707412999E+02 -0.69525112841E+02  0.17637581209E+03  0.19205497551E+03  0.00000000000E+00 0.  1.
         11    1    3    3    0    0 -0.20660065060E+02  0.24430344131E+02  0.16878624557E+03  0.17179195760E+03  0.00000000000E+00 0. -1.
          2    1    1    2  501    0 -0.46772493359E+02 -0.41416416079E+02 -0.42685422449E+02  0.75663934246E+02  0.00000000000E+00 0. -1.
<scales pt_clust_5="13000.00000" pt_clust_6="13000.00000" pt_clust_7="13000.00000" pt_clust_8="13000.00000" pt_clust_9="62.47388"></scales>
<clustering>
<clus scale="   62.474">  2  9  1 -1</clus>
<clus scale="   79.826">  5  6 -1 -1</clus>
<clus scale="   92.604">  7  8 -1 -1</clus>
<clus scale="  108.005">  2  5  1 -1</clus>
<clus scale="   62.474">  2  5  1 -1</clus>
</clustering>
</event>
<event>
 9    1  0.4067873E-005  0.1065164E+03  0.7546771E-02  0.1274923E+00
          3   -1    0    0  502    0 -0.00000000000E+00  0.00000000000E+00  0.55514531233E+03  0.55514531233E+03  0.00000000000E+00 0. -1.
         21   -1    0    0  501  502  0.00000000000E+00 -0.00000000000E+00 -0.87846071717E+02  0.87846071717E+02  0.00000000000E+00 0. -1.
         23    2    1    2    0    0 -0.53576875862E+02 -0.25719784616E+02  0.33232446065E+03  0.35108704100E+03  0.96387625051E+02 0.  0.
        -24    2    1    2    0    0  0.26484253444E+02  0.18692505533E+02  0.20184204044E+03  0.21941556210E+03  0.79700402498E+02 0.  0.
         13    1    4    4    0    0  0.12399272076E+02  0.46310673453E+02  0.16192615938E+03  0.16887421803E+03  0.00000000000E+00 0. -1.
        -14    1    4    4    0    0  0.14084981368E+02 -0.27618167920E+02  0.39915881058E+02  0.50541344067E+02  0.00000000000E+00 0.  1.
        -13    1    3    3    0    0 -0.67635398995E+02  0.81246946588E+01  0.14491391556E+03  0.16012682719E+03  0.00000000000E+00 0.  1.
         13    1    3    3    0    0  0.14058523132E+02 -0.33844479274E+02  0.18741054509E+03  0.19096021382E+03  0.00000000000E+00 0. -1.
          4    1    1    2  501    0  0.27092622418E+02  0.70272790825E+01 -0.66867260474E+02  0.72488780953E+02  0.00000000000E+00 0. -1.
<scales pt_clust_5="13000.00000" pt_clust_6="13000.00000" pt_clust_7="13000.00000" pt_clust_8="13000.00000" pt_clust_9="27.98916"></scales>
<clustering>
<clus scale="   27.989">  2  9  1 -1</clus>
<clus scale="   79.700">  5  6 -1 -1</clus>
<clus scale="   91.691">  2  5  1 -1</clus>
<clus scale="   96.388">  7  8 -1 -1</clus>
<clus scale="   27.989">  2  5  1 -1</clus>
</clustering>
</event>
<event>
 9    1  0.4067873E-005  0.1212992E+03  0.7546771E-02  0.1243994E+00
         21   -1    0    0  501  502  0.00000000000E+00  0.00000000000E+00  0.20885893853E+03  0.20885893853E+03  0.00000000000E+00 0. -1.
         -2   -1    0    0    0  501 -0.00000000000E+00 -0.00000000000E+00 -0.90320188817E+02  0.90320188817E+02  0.00000000000E+00 0.  1.
        -24    2    1    2    0    0 -0.43804844290E+02 -0.77686220847E+02  0.15333377864E+02  0.12144490122E+03  0.80992211123E+02 0.  0.
         23    2    1    2    0    0  0.25916801557E+02  0.63508161575E+02  0.59557676722E+02  0.12847855917E+03  0.90855138106E+02 0.  0.
         11    1    3    3    0    0 -0.64085845322E+02 -0.45904169415E+02  0.24677604524E+02  0.82602496968E+02  0.00000000000E+00 0. -1.
        -12    1    3    3    0    0  0.20281001032E+02 -0.31782051432E+02 -0.93442266605E+01  0.38842404251E+02  0.00000000000E+00 0.  1.
        -11    1    4    4    0    0 -0.20725247177E+02  0.62364365660E+02  0.24568729525E+02  0.70160333844E+02  0.00000000000E+00 0. -1.
         11    1    4    4    0    0  0.46642048734E+02  0.11437959159E+01  0.34988947197E+02  0.58318225326E+02  0.00000000000E+00 0.  1.
         -1    1    1    2    0  502  0.17888042733E+02  0.14178059272E+02  0.43647695129E+02  0.49255666959E+02  0.00000000000E+00 0.  1.
<scales pt_clust_5="13000.00000" pt_clust_6="13000.00000" pt_clust_7="13000.00000" pt_clust_8="13000.00000" pt_clust_9="22.82541"></scales>
<clustering>
<clus scale="   22.825">  1  9  2 -1</clus>
<clus scale="   80.992">  5  6 -1 -1</clus>
<clus scale="   90.855">  7  8 -1 -1</clus>
<clus scale="  114.099">  2  5  1 -1</clus>
<clus scale="   22.825">  1  5  2 -1</clus>
</clustering>
</event>
<event>
 9    1  0.4067873E-005  0.3606675E+03  0.7546771E-02  0.1078968E+00
         21   -1    0    0  501  502  0.00000000000E+00  0.00000000000E+00  0.16312019930E+03  0.16312019930E+03  0.00000000000E+00 0. -1.
          1   -1    0    0  502    0 -0.00000000000E+00 -0.00000000000E+00 -0.19027631463E+04  0.19027631463E+04  0.00000000000E+00 0. -1.
         23    2    1    2    0    0  0.13816665094E+03 -0.11987039445E+03 -0.22793885396E+03  0.30609316340E+03  0.90983342648E+02 0.  0.
        -24    2    1    2    0    0  0.21793444061E+03 -0.30364511921E+02 -0.12964176969E+04  0.13173800254E+04  0.79836473024E+02 0.  0.
         11    1    4    4    0    0  0.19664406004E+03 -0.39997168815E+02 -0.99356852564E+03  0.10136306403E+04  0.00000000000E+00 0. -1.
        -12    1    4    4    0    0  0.21290380570E+02  0.96326568936E+01 -0.30284917128E+03  0.30374938506E+03  0.00000000000E+00 0.  1.
        -13    1    3    3    0    0  0.10210946510E+03 -0.12902755220E+03 -0.20297558261E+03  0.26129205733E+03  0.00000000000E+00 0. -1.
         13    1    3    3    0    0  0.36057185838E+02  0.91571577460E+01 -0.24963271347E+02  0.44801106067E+02  0.00000000000E+00 0.  1.
          2    1    1    2  501    0 -0.35610109155E+03  0.15023490637E+03 -0.21528639611E+03  0.44241015681E+03  0.00000000000E+00 0. -1.
<scales pt_clust_5="13000.00000" pt_clust_6="13000.00000" pt_clust_7="13000.00000" pt_clust_8="13000.00000" pt_clust_9="351.72034"></scales>
<clustering>
<clus scale="   79.836">  5  6 -1 -1</clus>
<clus scale="   90.983">  7  8 -1 -1</clus>
<clus scale="  204.296">  2  7  1 -1</clus>
<clus scale="  351.720">  1  9  2 -1</clus>
<clus scale="  351.720">  1  5  2 -1</clus>
</clustering>
</event>
<event>
 9    1  0.4067873E-005  0.1060242E+03  0.7546771E-02  0.1274312E+00
         21   -1    0    0  501  502  0.00000000000E+00  0.00000000000E+00  0.39697441128E+02  0.39697441128E+02  0.00000000000E+00 0. -1.
          1   -1    0    0  502    0 -0.00000000000E+00 -0.00000000000E+00 -0.45074713440E+03  0.45074713440E+03  0.00000000000E+00 0. -1.
         23    2    1    2    0    0  0.77995620920E+01  0.36300247262E+02 -0.13646564426E+03  0.16885387165E+03  0.92250836242E+02 0.  0.
        -24    2    1    2    0    0  0.41886225621E+02 -0.63512306619E+02 -0.15860825410E+03  0.19251879105E+03  0.78221721096E+02 0.  0.
         11    1    4    4    0    0 -0.49633584682E+01 -0.40919201676E+02 -0.12237309676E+03  0.12912858244E+03  0.00000000000E+00 0. -1.
        -12    1    4    4    0    0  0.46849584089E+02 -0.22593104942E+02 -0.36235157341E+02  0.63390208611E+02  0.00000000000E+00 0.  1.
        -11    1    3    3    0    0  0.16038389978E+02 -0.21857621366E+02 -0.89893627213E+02  0.93892756794E+02  0.00000000000E+00 0.  1.
         11    1    3    3    0    0 -0.82388278857E+01  0.58157868629E+02 -0.46572017043E+02  0.74961114852E+02  0.00000000000E+00 0. -1.
          2    1    1    2  501    0 -0.49685787713E+02  0.27212059356E+02 -0.11597579491E+03  0.12907191283E+03  0.00000000000E+00 0. -1.
<scales pt_clust_5="13000.00000" pt_clust_6="13000.00000" pt_clust_7="13000.00000" pt_clust_8="13000.00000" pt_clust_9="56.64960"></scales>
<clustering>
<clus scale="   56.650">  1  9  2 -1</clus>
<clus scale="   78.222">  5  6 -1 -1</clus>
<clus scale="   92.251">  7  8 -1 -1</clus>
<clus scale="   94.072">  1  5  2 -1</clus>
<clus scale="   56.650">  1  5  2 -1</clus>
</clustering>
</event>
<event>
 9    1  0.4067873E-005  0.1007036E+03  0.7546771E-02  0.1284058E+00
         21   -1    0    0  501  502  0.00000000000E+00  0.00000000000E+00  0.27036089665E+03  0.27036089665E+03  0.00000000000E+00 0. -1.
          1   -1    0    0  502    0 -0.00000000000E+00 -0.00000000000E+00 -0.38000292853E+03  0.38000292853E+03  0.00000000000E+00 0. -1.
        -24    2    1    2    0    0 -0.13313011261E+02 -0.42374944951E+02 -0.28756637577E+03  0.30221291937E+03  0.81641631118E+02 0.  0.
         23    2    1    2    0    0 -0.35697678849E+02  0.31371851766E+02 -0.49743966541E+02  0.11500722611E+03  0.92161176701E+02 0.  0.
         13    1    3    3    0    0 -0.12256193072E+02 -0.64841890669E+02 -0.16697576900E+03  0.17954273165E+03  0.00000000000E+00 0. -1.
        -14    1    3    3    0    0 -0.10568181891E+01  0.22466945718E+02 -0.12059060677E+03  0.12267018772E+03  0.00000000000E+00 0.  1.
        -11    1    4    4    0    0  0.15010273452E+02  0.31845800912E+02 -0.53624654520E+02  0.64148787341E+02  0.00000000000E+00 0.  1.
         11    1    4    4    0    0 -0.50707952302E+02 -0.47394914581E+00  0.38806879795E+01  0.50858438765E+02  0.00000000000E+00 0. -1.
          2    1    1    2  501    0  0.49010690111E+02  0.11003093185E+02  0.22766831044E+03  0.23314367969E+03  0.00000000000E+00 0. -1.
<scales pt_clust_5="13000.00000" pt_clust_6="13000.00000" pt_clust_7="13000.00000" pt_clust_8="13000.00000" pt_clust_9="50.23063"></scales>
<clustering>
<clus scale="   50.231">  1  9  2 -1</clus>
<clus scale="   81.642">  5  6 -1 -1</clus>
<clus scale="   91.175">  2  5  1 -1</clus>
<clus scale="   92.161">  7  8 -1 -1</clus>
<clus scale="   50.231">  1  5  2 -1</clus>
</clustering>
</event>
<event>
 9    1  0.4067873E-005  0.9654637E+02  0.7546771E-02  0.1294852E+00
          1   -1    0    0  502    0 -0.00000000000E+00  0.00000000000E+00  0.26883011346E+03  0.26883011346E+03  0.00000000000E+00 0. -1.
         21   -1    0    0  501  502  0.00000000000E+00 -0.00000000000E+00 -0.73356016971E+02  0.73356016971E+02  0.00000000000E+00 0.  1.
        -24    2    1    2    0    0  0.92325315458E+01 -0.16647434683E+02  0.16746452944E+03  0.18678331819E+03  0.80506289285E+02 0.  0.
         23    2    1    2    0    0 -0.96516676231E+01  0.49772461467E+02  0.48400395426E+02  0.11650256859E+03  0.93058033520E+02 0.  0.
         13    1    3    3    0    0  0.24148904820E+02 -0.35903133939E+02  0.15174635576E+03  0.15779468026E+03  0.00000000000E+00 0. -1.
        -14    1    3    3    0    0 -0.14916373274E+02  0.19255699256E+02  0.15718173674E+02  0.28988637932E+02  0.00000000000E+00 0.  1.
        -11    1    4    4    0    0  0.24781138627E+02  0.39991469940E+02  0.62330081045E+02  0.78092646918E+02  0.00000000000E+00 0. -1.
         11    1    4    4    0    0 -0.34432806250E+02  0.97809915265E+01 -0.13929685619E+02  0.38409921673E+02  0.00000000000E+00 0.  1.
          2    1    1    2  501    0  0.41913607736E+00 -0.33125026784E+02 -0.20390828371E+02  0.38900243652E+02  0.00000000000E+00 0. -1.
<scales pt_clust_5="13000.00000" pt_clust_6="13000.00000" pt_clust_7="13000.00000" pt_clust_8="13000.00000" pt_clust_9="33.12768"></scales>
<clustering>
<clus scale="   33.128">  2  9  1 -1</clus>
<clus scale="   80.506">  5  6 -1 -1</clus>
<clus scale="   84.514">  1  5  2 -1</clus>
<clus scale="   93.058">  7  8 -1 -1</clus>
<clus scale="   33.128">  2  5  1 -1</clus>
</clustering>
</event>
<event>
 9    1  0.4067873E-005  0.1354808E+03  0.7546771E-02  0.1239415E+00
         -4   -1    0    0    0  501 -0.00000000000E+00  0.00000000000E+00  0.16003078516E+03  0.16003078516E+03  0.00000000000E+00 0.  1.
         21   -1    0    0  501  502  0.00000000000E+00 -0.00000000000E+00 -0.23087291724E+03  0.23087291724E+03  0.00000000000E+00 0.  1.
        -24    2    1    2    0    0  0.34715552547E+02  0.13243365011E+02 -0.11668840390E+03  0.14727004444E+03  0.81802971089E+02 0.  0.
         23    2    1    2    0    0 -0.76032918261E+01  0.91768796467E+02  0.38590129470E+02  0.13493554234E+03  0.90769380531E+02 0.  0.
         11    1    3    3    0    0  0.47104975234E+02  0.80162438618E+01 -0.23741356154E+02  0.53355326346E+02  0.00000000000E+00 0. -1.
        -12    1    3    3    0    0 -0.12389422686E+02  0.52271211494E+01 -0.92947047743E+02  0.93914718091E+02  0.00000000000E+00 0.  1.
        -13    1    4    4    0    0 -0.38739744838E+02  0.94651632171E+01  0.21461968549E+02  0.45287672041E+02  0.00000000000E+00 0. -1.
         13    1    4    4    0    0  0.31136453012E+02  0.82303633250E+02  0.17128160921E+02  0.89647870298E+02  0.00000000000E+00 0.  1.
         -3    1    1    2    0  502 -0.27112260721E+02 -0.10501216148E+03  0.72561423428E+01  0.10869811563E+03  0.00000000000E+00 0.  1.
<scales pt_clust_5="13000.00000" pt_clust_6="13000.00000" pt_clust_7="13000.00000" pt_clust_8="13000.00000" pt_clust_9="100.57822"></scales>
<clustering>
<clus scale="   81.803">  5  6 -1 -1</clus>
<clus scale="   89.846">  1  5  2 -1</clus>
<clus scale="   90.769">  7  8 -1 -1</clus>
<clus scale="  100.578">  2  9  1 -1</clus>
<clus scale="  100.578">  2  5  1 -1</clus>
</clustering>
</event>
<event>
 9    1  0.4067873E-005  0.1683903E+03  0.7546771E-02  0.1180295E+00
         21   -1    0    0  501  502  0.00000000000E+00  0.00000000000E+00  0.69777925016E+02  0.69777925016E+02  0.00000000000E+00 0.  1.
          1   -1    0    0  502    0 -0.00000000000E+00 -0.00000000000E+00 -0.56938806892E+03  0.56938806892E+03  0.00000000000E+00 0. -1.
        -24    2    1    2    0    0 -0.11184163472E+03 -0.10203897888E+03 -0.33713294476E+03  0.37848630508E+03  0.81686940331E+02 0.  0.
         23    2    1    2    0    0  0.10912710226E+03  0.68964825061E+02 -0.87600821407E+02  0.17877889350E+03  0.87310465042E+02 0.  0.
         13    1    3    3    0    0 -0.12000021556E+03 -0.78335685851E+02 -0.31014260844E+03  0.34165036072E+03  0.00000000000E+00 0. -1.
        -14    1    3    3    0    0  0.81585808387E+01 -0.23703293033E+02 -0.26990336319E+02  0.36835944355E+02  0.00000000000E+00 0.  1.
        -11    1    4    4    0    0  0.10207066908E+03  0.18250045010E+02 -0.49165928381E+02  0.11475527936E+03  0.00000000000E+00 0.  1.
         11    1    4    4    0    0  0.70564331847E+01  0.50714780050E+02 -0.38434893026E+02  0.64023614134E+02  0.00000000000E+00 0. -1.
          2    1    1    2  501    0  0.27145324600E+01  0.33074153823E+02 -0.74876377741E+02  0.81900795364E+02  0.00000000000E+00 0. -1.
<scales pt_clust_5="13000.00000" pt_clust_6="13000.00000" pt_clust_7="13000.00000" pt_clust_8="13000.00000" pt_clust_9="33.18538"></scales>
<clustering>
<clus scale="   33.185">  1  9  2 -1</clus>
<clus scale="   81.687">  5  6 -1 -1</clus>
<clus scale="   87.310">  7  8 -1 -1</clus>
<clus scale="  165.544">  2  5  1 -1</clus>
<clus scale="   33.185">  1  5  2 -1</clus>
</clustering>
</event>
<event>
 9    1  0.4067873E-005  0.1419088E+03  0.7546771E-02  0.1211853E+00
         21   -1    0    0  501  502  0.00000000000E+00  0.00000000000E+00  0.45498733491E+02  0.45498733491E+02  0.00000000000E+00 0.  1.
         -2   -1    0    0    0  501 -0.00000000000E+00 -0.00000000000E+00 -0.77792077124E+03  0.77792077124E+03  0.00000000000E+00 0.  1.
         23    2    1    2    0    0 -0.12282080106E+03 -0.57819270142E+02 -0.39601748347E+03  0.42758436732E+03  0.87008774234E+02 0.  0.
        -24    2    1    2    0    0  0.45748974622E+02  0.78865076976E+02 -0.15420777677E+03  0.19689128063E+03  0.81691302627E+02 0.  0.
         13    1    4    4    0    0  0.34406801938E+02  0.38596110263E+01 -0.93588426841E+02  0.99787365209E+02  0.00000000000E+00 0. -1.
        -14    1    4    4    0    0  0.11342172684E+02  0.75005465950E+02 -0.60619349932E+02  0.97103915419E+02  0.00000000000E+00 0.  1.
        -11    1    3    3    0    0 -0.40946785978E+02  0.19559563757E+02 -0.78469999207E+02  0.90646326963E+02  0.00000000000E+00 0. -1.
         11    1    3    3    0    0 -0.81874015084E+02 -0.77378833899E+02 -0.31754748426E+03  0.33693804036E+03  0.00000000000E+00 0.  1.
         -1    1    1    2    0  502  0.77071826440E+02 -0.21045806834E+02 -0.18219677751E+03  0.19894385679E+03  0.00000000000E+00 0.  1.
<scales pt_clust_5="13000.00000" pt_clust_6="13000.00000" pt_clust_7="13000.00000" pt_clust_8="13000.00000" pt_clust_9="79.89367"></scales>
<clustering>
<clus scale="   79.894">  1  9  2 -1</clus>
<clus scale="   81.691">  5  6 -1 -1</clus>
<clus scale="   87.009">  7  8 -1 -1</clus>
<clus scale="  138.712">  1  5  2 -1</clus>
<clus scale="   79.894">  1  5  2 -1</clus>
</clustering>
</event>
<event>
 9    1  0.4067873E-005  0.9698097E+02  0.7546771E-02  0.1294186E+00
          1   -1    0    0  502    0 -0.00000000000E+00  0.00000000000E+00  0.54310374833E+03  0.54310374833E+03  0.00000000000E+00 0. -1.
         21   -1    0    0  501  502  0.00000000000E+00 -0.00000000000E+00 -0.49310631575E+02  0.49310631575E+02  0.00000000000E+00 0.  1.
         23    2    1    2    0    0 -0.22520621684E+02 -0.47773668948E+01  0.43935113494E+03  0.44967843711E+03  0.93012232505E+02 0.  0.
        -24    2    1    2    0    0  0.47109386848E+02  0.90094470842E+01  0.67072868659E+02  0.11477065758E+03  0.79831507970E+02 0.  0.
         11    1    4    4    0    0 -0.11773222814E+02 -0.23156328880E+02  0.20571573988E+02  0.33136294286E+02  0.00000000000E+00 0. -1.
        -12    1    4    4    0    0  0.58882609662E+02  0.32165775965E+02  0.46501294670E+02  0.81634363291E+02  0.00000000000E+00 0.  1.
        -13    1    3    3    0    0  0.31122241189E+02 -0.20525175327E+02  0.12681585278E+03  0.13218221225E+03  0.00000000000E+00 0.  1.
         13    1    3    3    0    0 -0.53642862874E+02  0.15747808432E+02  0.31253528215E+03  0.31749622486E+03  0.00000000000E+00 0. -1.
          2    1    1    2  501    0 -0.24588765163E+02 -0.42320801894E+01 -0.12630886840E+02  0.27965285218E+02  0.00000000000E+00 0. -1.
<scales pt_clust_5="13000.00000" pt_clust_6="13000.00000" pt_clust_7="13000.00000" pt_clust_8="13000.00000" pt_clust_9="24.95031"></scales>
<clustering>
<clus scale="   24.950">  2  9  1 -1</clus>
<clus scale="   79.832">  5  6 -1 -1</clus>
<clus scale="   84.422">  2  5  1 -1</clus>
<clus scale="   93.012">  7  8 -1 -1</clus>
<clus scale="   24.950">  2  5  1 -1</clus>
</clustering>
</event>
<event>
 9    1  0.4067873E-005  0.1166538E+03  0.7546771E-02  0.1252715E+00
         -2   -1    0    0    0  501 -0.00000000000E+00  0.00000000000E+00  0.49984132309E+03  0.49984132309E+03  0.00000000000E+00 0.  1.
         21   -1    0    0  501  502  0.00000000000E+00 -0.00000000000E+00 -0.41310081052E+02  0.41310081052E+02  0.00000000000E+00 0. -1.
        -24    2    1    2    0    0 -0.70040855012E+02 -0.23810643769E+02  0.27926322223E+03  0.29974528303E+03  0.79916326778E+02 0.  0.
         23    2    1    2    0    0  0.71215941928E+02  0.26496906775E+01  0.18593808583E+03  0.21918773805E+03  0.91605466559E+02 0.  0.
         13    1    3    3    0    0  0.55743022565E+01 -0.32097409514E+02  0.93389742097E+02  0.98908849312E+02  0.00000000000E+00 0. -1.
        -14    1    3    3    0    0 -0.75615157268E+02  0.82867657449E+01  0.18587348013E+03  0.20083643372E+03  0.00000000000E+00 0.  1.
        -13    1    4    4    0    0 -0.58303842345E+01  0.21514044208E+02  0.68497185580E+01  0.23318793340E+02  0.00000000000E+00 0. -1.
         13    1    4    4    0    0  0.77046326163E+02 -0.18864353530E+02  0.17908836727E+03  0.19586894471E+03  0.00000000000E+00 0.  1.
         -1    1    1    2    0  502 -0.11750869165E+01  0.21160953092E+02 -0.66700660185E+01  0.22218383058E+02  0.00000000000E+00 0.  1.
<scales pt_clust_5="13000.00000" pt_clust_6="13000.00000" pt_clust_7="13000.00000" pt_clust_8="13000.00000" pt_clust_9="21.19355"></scales>
<clustering>
<clus scale="   21.194">  2  9  1 -1</clus>
<clus scale="   79.916">  5  6 -1 -1</clus>
<clus scale="   91.605">  7  8 -1 -1</clus>
<clus scale="  107.718">  1  5  2 -1</clus>
<clus scale="   21.194">  2  5  1 -1</clus>
</clustering>
</event>
<event>
 9    1  0.4067873E-005  0.1125814E+03  0.7546771E-02  0.1257954E+00
          1   -1    0    0  502    0 -0.00000000000E+00  0.00000000000E+00  0.16470478428E+03  0.16470478428E+03  0.00000000000E+00 0. -1.
         21   -1    0    0  501  502  0.00000000000E+00 -0.00000000000E+00 -0.37680234305E+03  0.37680234305E+03  0.00000000000E+00 0. -1.
        -24    2    1    2    0    0 -0.66285449919E+02 -0.39647275064E+02 -0.98594529872E+02  0.15034823952E+03  0.83174782934E+02 0.  0.
         23    2    1    2    0    0  0.73170842806E+02 -0.57457946236E+02 -0.21494710862E+03  0.25056111419E+03  0.89012496977E+02 0.  0.
         13    1    3    3    0    0 -0.72239974455E+02 -0.47512201971E+02 -0.48187782348E+02  0.98985279780E+02  0.00000000000E+00 0. -1.
        -14    1    3    3    0    0  0.59545245357E+01  0.78649269070E+01 -0.50406747524E+02  0.51362959743E+02  0.00000000000E+00 0.  1.
        -11    1    4    4    0    0  0.37943261257E+02  0.16184270514E+02 -0.11082075038E+03  0.11824914546E+03  0.00000000000E+00 0. -1.
         11    1    4    4    0    0  0.35227581550E+02 -0.73642216750E+02 -0.10412635824E+03  0.13231196873E+03  0.00000000000E+00 0.  1.
          2    1    1    2  501    0 -0.68853928869E+01  0.97105221301E+02  0.10144407972E+03  0.14059777363E+03  0.00000000000E+00 0. -1.
<scales pt_clust_5="13000.00000" pt_clust_6="13000.00000" pt_clust_7="13000.00000" pt_clust_8="13000.00000" pt_clust_9="97.34907"></scales>
<clustering>
<clus scale="   83.175">  5  6 -1 -1</clus>
<clus scale="   89.012">  7  8 -1 -1</clus>
<clus scale="   97.349">  2  9  1 -1</clus>
<clus scale="  108.025">  1  5  2 -1</clus>
<clus scale="   97.349">  2  5  1 -1</clus>
</clustering>
</event>
<event>
 9    1  0.4067873E-005  0.1280494E+03  0.7546771E-02  0.1253390E+00
         -2   -1    0    0    0  501 -0.00000000000E+00  0.00000000000E+00  0.46262993973E+03  0.46262993973E+03  0.00000000000E+00 0.  1.
         21   -1    0    0  501  502  0.00000000000E+00 -0.00000000000E+00 -0.60028927752E+02  0.60028927752E+02  0.00000000000E+00 0. -1.
        -24    2    1    2    0    0  0.21617474169E+01  0.99263353025E+01  0.95118871051E+02  0.12451864279E+03  0.79712530310E+02 0.  0.
         23    2    1    2    0    0  0.60045404890E+02 -0.68662324285E+02  0.27833970753E+03  0.30775810464E+03  0.94456830148E+02 0.  0.
         11    1    3    3    0    0 -0.30971420763E+02 -0.33072428406E+01  0.10807896764E+02  0.32969340177E+02  0.00000000000E+00 0. -1.
        -12    1    3    3    0    0  0.33133168179E+02  0.13233578143E+02  0.84310974287E+02  0.91549302615E+02  0.00000000000E+00 0.  1.
        -13    1    4    4    0    0  0.85622755371E+02 -0.57578014324E+02  0.21103490285E+03  0.23490894872E+03  0.00000000000E+00 0.  1.
         13    1    4    4    0    0 -0.25577350481E+02 -0.11084309961E+02  0.67304804680E+02  0.72849155918E+02  0.00000000000E+00 0. -1.
         -1    1    1    2    0  502 -0.62207152307E+02  0.58735988982E+02  0.29142433399E+02  0.90382120047E+02  0.00000000000E+00 0.  1.
<scales pt_clust_5="13000.00000" pt_clust_6="13000.00000" pt_clust_7="13000.00000" pt_clust_8="13000.00000" pt_clust_9="86.45559"></scales>
<clustering>
<clus scale="   79.713">  5  6 -1 -1</clus>
<clus scale="   80.357">  1  5  2 -1</clus>
<clus scale="   86.456">  2  9  1 -1</clus>
<clus scale="   94.457">  7  8 -1 -1</clus>
<clus scale="   86.456">  2  5  1 -1</clus>
</clustering>
</event>
<event>
 9    1  0.4067873E-005  0.1088872E+03  0.7546771E-02  0.1266522E+00
          1   -1    0    0  502    0 -0.00000000000E+00  0.00000000000E+00  0.20272632955E+03  0.20272632955E+03  0.00000000000E+00 0. -1.
         21   -1    0    0  501  502  0.00000000000E+00 -0.00000000000E+00 -0.93495235535E+02  0.93495235535E+02  0.00000000000E+00 0. -1.
         23    2    1    2    0    0  0.42397263895E+02  0.20584666111E+02  0.72543430920E+02  0.12571370126E+03  0.91214740312E+02 0.  0.
        -24    2    1    2    0    0 -0.49245352583E+02 -0.66277622846E+02  0.43189387158E+02  0.12384937018E+03  0.81581341548E+02 0.  0.
         11    1    4    4    0    0 -0.18411504520E+01 -0.68501951096E+02  0.27931428046E+02  0.74000485212E+02  0.00000000000E+00 0. -1.
        -12    1    4    4    0    0 -0.47404202131E+02  0.22243282508E+01  0.15257959113E+02  0.49848884964E+02  0.00000000000E+00 0.  1.
        -11    1    3    3    0    0  0.60446357475E+02  0.33560717341E+02  0.76523639770E+02  0.10313074868E+03  0.00000000000E+00 0. -1.
         11    1    3    3    0    0 -0.18049093581E+02 -0.12976051229E+02 -0.39802088492E+01  0.22582952577E+02  0.00000000000E+00 0.  1.
          2    1    1    2  501    0  0.68480886886E+01  0.45692956734E+02 -0.65017240636E+01  0.46658493649E+02  0.00000000000E+00 0. -1.
<scales pt_clust_5="13000.00000" pt_clust_6="13000.00000" pt_clust_7="13000.00000" pt_clust_8="13000.00000" pt_clust_9="46.20327"></scales>
<clustering>
<clus scale="   46.203">  2  9  1 -1</clus>
<clus scale="   81.581">  5  6 -1 -1</clus>
<clus scale="   91.215">  7  8 -1 -1</clus>
<clus scale="  100.954">  2  5  1 -1</clus>
<clus scale="   46.203">  2  5  1 -1</clus>
</clustering>
</event>
<event>
 9    1  0.4067873E-005  0.1131507E+03  0.7546771E-02  0.1260228E+00
          1   -1    0    0  502    0 -0.00000000000E+00  0.00000000000E+00  0.31836919608E+03  0.31836919608E+03  0.00000000000E+00 0. -1.
         21   -1    0    0  501  502  0.00000000000E+00 -0.00000000000E+00 -0.10570589866E+03  0.10570589866E+03  0.00000000000E+00 0. -1.
         23    2    1    2    0    0  0.19592947132E+02  0.62763723506E+02  0.15570756220E+03  0.19229329427E+03  0.91698950538E+02 0.  0.
        -24    2    1    2    0    0 -0.48077451457E+02 -0.51399056299E+02  0.12155572426E+03  0.16027179256E+03  0.77187752027E+02 0.  0.
         13    1    4    4    0    0 -0.22184196027E+02 -0.11975197533E+01 -0.40195494901E+01  0.22577187270E+02  0.00000000000E+00 0. -1.
        -14    1    4    4    0    0 -0.25893255429E+02 -0.50201536545E+02  0.12557527375E+03  0.13769460529E+03  0.00000000000E+00 0.  1.
        -13    1    3    3    0    0  0.15741530821E+02 -0.21743338874E+02  0.25541111819E+02  0.37052894232E+02  0.00000000000E+00 0.  1.
         13    1    3    3    0    0  0.38514163105E+01  0.84507062380E+02  0.13016645038E+03  0.15524040004E+03  0.00000000000E+00 0. -1.
          2    1    1    2  501    0  0.28484504325E+02 -0.11364667207E+02 -0.64599989040E+02  0.71510007910E+02  0.00000000000E+00 0. -1.
<scales pt_clust_5="13000.00000" pt_clust_6="13000.00000" pt_clust_7="13000.00000" pt_clust_8="13000.00000" pt_clust_9="30.66794"></scales>
<clustering>
<clus scale="   30.668">  2  9  1 -1</clus>
<clus scale="   77.188">  5  6 -1 -1</clus>
<clus scale="   91.699">  7  8 -1 -1</clus>
<clus scale="  101.746">  2  5  1 -1</clus>
<clus scale="   30.668">  2  5  1 -1</clus>
</clustering>
</event>
<event>
 9    1  0.4067873E-005  0.9034140E+02  0.7546771E-02  0.1306172E+00
         21   -1    0    0  501  502  0.00000000000E+00  0.00000000000E+00  0.15889849961E+03  0.15889849961E+03  0.00000000000E+00 0. -1.
          1   -1    0    0  502    0 -0.00000000000E+00 -0.00000000000E+00 -0.21585470039E+03  0.21585470039E+03  0.00000000000E+00 0. -1.
         23    2    1    2    0    0  0.43088161215E+01  0.15762135993E+02 -0.85167759675E+02  0.12295286548E+03  0.87159904861E+02 0.  0.
        -24    2    1    2    0    0  0.51427927152E+02 -0.73136780198E+02  0.90485508454E+02  0.15042736404E+03  0.80292865831E+02 0.  0.
         13    1    4    4    0    0  0.23856472752E+02 -0.83803562791E+02  0.50531510089E+02  0.10072537883E+03  0.00000000000E+00 0. -1.
        -14    1    4    4    0    0  0.27571454399E+02  0.10666782593E+02  0.39953998365E+02  0.49701985211E+02  0.00000000000E+00 0.  1.
        -13    1    3    3    0    0  0.45298299297E+02  0.18044857948E+01 -0.45483494924E+02  0.64217913379E+02  0.00000000000E+00 0. -1.
         13    1    3    3    0    0 -0.40989483175E+02  0.13957650198E+02 -0.39684264751E+02  0.58734952106E+02  0.00000000000E+00 0.  1.
          2    1    1    2  501    0 -0.55736743273E+02  0.57374644205E+02 -0.62273949567E+02  0.10137297048E+03  0.00000000000E+00 0. -1.
<scales pt_clust_5="13000.00000" pt_clust_6="13000.00000" pt_clust_7="13000.00000" pt_clust_8="13000.00000" pt_clust_9="79.99025"></scales>
<clustering>
<clus scale="   79.990">  1  9  2 -1</clus>
<clus scale="   80.293">  5  6 -1 -1</clus>
<clus scale="   83.736">  1  5  2 -1</clus>
<clus scale="   87.160">  7  8 -1 -1</clus>
<clus scale="   79.990">  1  5  2 -1</clus>
</clustering>
</event>
<event>
 9    1  0.4067873E-005  0.9829470E+02  0.7546771E-02  0.1290167E+00
          1   -1    0    0  502    0 -0.00000000000E+00  0.00000000000E+00  0.23399853308E+03  0.23399853308E+03  0.00000000000E+00 0. -1.
         21   -1    0    0  501  502  0.00000000000E+00 -0.00000000000E+00 -0.67836983565E+02  0.67836983565E+02  0.00000000000E+00 0. -1.
         23    2    1    2    0    0 -0.43593120299E+02 -0.48885412283E+02  0.11105767741E+03  0.15717860754E+03  0.89895290669E+02 0.  0.
        -24    2    1    2    0    0  0.12867040491E+02  0.38694139998E+01  0.37063978911E+02  0.87246371500E+02  0.77830955998E+02 0.  0.
         11    1    4    4    0    0  0.40035845354E+02 -0.17405519068E+02  0.14432456546E+02  0.45979525978E+02  0.00000000000E+00 0. -1.
        -12    1    4    4    0    0 -0.27168804864E+02  0.21274933067E+02  0.22631522365E+02  0.41266845522E+02  0.00000000000E+00 0.  1.
        -13    1    3    3    0    0 -0.31117752568E+02 -0.18462326766E+02 -0.50240948604E+01  0.36529625835E+02  0.00000000000E+00 0.  1.
         13    1    3    3    0    0 -0.12475367730E+02 -0.30423085518E+02  0.11608177227E+03  0.12064898170E+03  0.00000000000E+00 0. -1.
          2    1    1    2  501    0  0.30726079808E+02  0.45015998283E+02  0.18039893193E+02  0.57410537606E+02  0.00000000000E+00 0. -1.
<scales pt_clust_5="13000.00000" pt_clust_6="13000.00000" pt_clust_7="13000.00000" pt_clust_8="13000.00000" pt_clust_9="54.50259"></scales>
<clustering>
<clus scale="   54.503">  2  9  1 -1</clus>
<clus scale="   77.831">  5  6 -1 -1</clus>
<clus scale="   87.398">  2  5  1 -1</clus>
<clus scale="   89.895">  7  8 -1 -1</clus>
<clus scale="   54.503">  2  5  1 -1</clus>
</clustering>
</event>
<event>
 9    1  0.4067873E-005  0.1324110E+03  0.7546771E-02  0.1224705E+00
         21   -1    0    0  501  502  0.00000000000E+00  0.00000000000E+00  0.54282705738E+02  0.54282705738E+02  0.00000000000E+00 0.  1.
         -2   -1    0    0    0  501 -0.00000000000E+00 -0.00000000000E+00 -0.63665791826E+03  0.63665791826E+03  0.00000000000E+00 0.  1.
         23    2    1    2    0    0  0.68436861960E+02 -0.78088473939E+02 -0.15189937420E+03  0.20362851181E+03  0.87233807108E+02 0.  0.
        -24    2    1    2    0    0 -0.20355723667E+02  0.10025341533E+03 -0.14233154178E+03  0.19434416835E+03  0.83942153983E+02 0.  0.
         13    1    4    4    0    0  0.27623085823E+02  0.86932730845E+01 -0.31644140155E+02  0.42894748786E+02  0.00000000000E+00 0. -1.
        -14    1    4    4    0    0 -0.47978809490E+02  0.91560142243E+02 -0.11068740163E+03  0.15144941956E+03  0.00000000000E+00 0.  1.
        -13    1    3    3    0    0 -0.11752346655E+02 -0.24472679771E+02 -0.76562313721E+02  0.81233106486E+02  0.00000000000E+00 0. -1.
         13    1    3    3    0    0  0.80189208615E+02 -0.53615794168E+02 -0.75337060474E+02  0.12239540532E+03  0.00000000000E+00 0.  1.
         -1    1    1    2    0  502 -0.48081138293E+02 -0.22164941388E+02 -0.28814429654E+03  0.29296794384E+03  0.00000000000E+00 0.  1.
<scales pt_clust_5="13000.00000" pt_clust_6="13000.00000" pt_clust_7="13000.00000" pt_clust_8="13000.00000" pt_clust_9="52.94415"></scales>
<clustering>
<clus scale="   52.944">  1  9  2 -1</clus>
<clus scale="   83.942">  5  6 -1 -1</clus>
<clus scale="   87.234">  7  8 -1 -1</clus>
<clus scale="  130.266">  1  5  2 -1</clus>
<clus scale="   52.944">  1  5  2 -1</clus>
</clustering>
</event>
<event>
 9    1  0.4067873E-005  0.1269672E+03  0.7546771E-02  0.1240089E+00
          1   -1    0    0  502    0 -0.00000000000E+00  0.00000000000E+00  0.23676263786E+03  0.23676263786E+03  0.00000000000E+00 0. -1.
         21   -1    0    0  501  502  0.00000000000E+00 -0.00000000000E+00 -0.33913831969E+03  0.33913831969E+03  0.00000000000E+00 0. -1.
        -24    2    1    2    0    0  0.47724376836E+02 -0.51701920537E+02  0.18113595152E+03  0.21072288443E+03  0.81505805657E+02 0.  0.
         23    2    1    2    0    0  0.63844991535E+02  0.17837030469E+02 -0.14278169955E+03  0.18242285704E+03  0.92179945994E+02 0.  0.
         13    1    3    3    0    0  0.22571803350E+02 -0.71935068943E+02  0.12637186985E+03  0.14715294744E+03  0.00000000000E+00 0. -1.
        -14    1    3    3    0    0  0.25152573485E+02  0.20233148406E+02  0.54764081674E+02  0.63569936990E+02  0.00000000000E+00 0.  1.
        -13    1    4    4    0    0 -0.88363136337E+01 -0.19799330408E+02 -0.68654694399E+02  0.71996951229E+02  0.00000000000E+00 0.  1.
         13    1    4    4    0    0  0.72681305168E+02  0.37636360876E+02 -0.74127005147E+02  0.11042590581E+03  0.00000000000E+00 0. -1.
          2    1    1    2  501    0 -0.11156936837E+03  0.33864890068E+02 -0.14072993380E+03  0.18275521608E+03  0.00000000000E+00 0. -1.
<scales pt_clust_5="13000.00000" pt_clust_6="13000.00000" pt_clust_7="13000.00000" pt_clust_8="13000.00000" pt_clust_9="87.31290"></scales>
<clustering>
<clus scale="   81.506">  5  6 -1 -1</clus>
<clus scale="   92.180">  7  8 -1 -1</clus>
<clus scale="  107.675">  1  5  2 -1</clus>
<clus scale="   87.313">  2  9  1 -1</clus>
<clus scale="   87.313">  2  5  1 -1</clus>
</clustering>
</event>
<event>
 9    1  0.4067873E-005  0.1052681E+03  0.7546771E-02  0.1277568E+00
         21   -1    0    0  501  502  0.00000000000E+00  0.00000000000E+00  0.64043855448E+03  0.64043855448E+03  0.00000000000E+00 0.  1.
          1   -1    0    0  502    0 -0.00000000000E+00 -0.00000000000E+00 -0.38362112651E+02  0.38362112651E+02  0.00000000000E+00 0. -1.
         23    2    1    2    0    0 -0.58670360451E+02 -0.44635405632E+02  0.63354494738E+02  0.11347500772E+03  0.58551300083E+02 0.  0.
        -24    2    1    2    0    0  0.42026162592E+02  0.10153128506E+02  0.50856170456E+03  0.51658453727E+03  0.79720088070E+02 0.  0.
         13    1    4    4    0    0 -0.22123401715E+02 -0.87819617695E+01  0.13240857861E+03  0.13453103525E+03  0.00000000000E+00 0. -1.
        -14    1    4    4    0    0  0.64149564307E+02  0.18935090275E+02  0.37615312596E+03  0.38205350203E+03  0.00000000000E+00 0.  1.
        -11    1    3    3    0    0 -0.26288953012E+02  0.86894346154E+00  0.49309272787E+02  0.55886210249E+02  0.00000000000E+00 0.  1.
         11    1    3    3    0    0 -0.32381407439E+02 -0.45504349094E+02  0.14045221951E+02  0.57588797468E+02  0.00000000000E+00 0. -1.
          2    1    1    2  501    0  0.16644197859E+02  0.34482277126E+02  0.30160242529E+02  0.48741122141E+02  0.00000000000E+00 0. -1.
<scales pt_clust_5="13000.00000" pt_clust_6="13000.00000" pt_clust_7="13000.00000" pt_clust_8="13000.00000" pt_clust_9="38.28914"></scales>
<clustering>
<clus scale="   38.289">  1  9  2 -1</clus>
<clus scale="   58.551">  7  8 -1 -1</clus>
<clus scale="   79.720">  5  6 -1 -1</clus>
<clus scale="   90.301">  2  7  1 -1</clus>
<clus scale="   38.289">  1  5  2 -1</clus>
</clustering>
</event>
<event>
 9    1  0.4067873E-005  0.1025978E+03  0.7546771E-02  0.1279161E+00
         21   -1    0    0  501  502  0.00000000000E+00  0.00000000000E+00  0.21586260626E+03  0.21586260626E+03  0.00000000000E+00 0. -1.
         -2   -1    0    0    0  501 -0.00000000000E+00 -0.00000000000E+00 -0.14937848046E+03  0.14937848046E+03  0.00000000000E+00 0.  1.
        -24    2    1    2    0    0 -0.27343076821E+02 -0.47341837091E+02 -0.79096934981E+02  0.12631771999E+03  0.81920375183E+02 0.  0.
         23    2    1    2    0    0 -0.29042010695E+02  0.13136617827E+02  0.14355648762E+03  0.17294326355E+03  0.91021415915E+02 0.  0.
         11    1    3    3    0    0 -0.53970789953E+01  0.20966014505E+02 -0.32139357424E+01  0.21886790739E+02  0.00000000000E+00 0. -1.
        -12    1    3    3    0    0 -0.21945997825E+02 -0.68307851595E+02 -0.75882999239E+02  0.10443092925E+03  0.00000000000E+00 0.  1.
        -11    1    4    4    0    0 -0.12545063711E+02  0.37949589638E+02  0.17886197073E+02  0.43788880128E+02  0.00000000000E+00 0.  1.
         11    1    4    4    0    0 -0.16496946985E+02 -0.24812971811E+02  0.12567029055E+03  0.12915438342E+03  0.00000000000E+00 0. -1.
         -1    1    1    2    0  502  0.56385087516E+02  0.34205219264E+02  0.20245731633E+01  0.65980103179E+02  0.00000000000E+00 0.  1.
<scales pt_clust_5="13000.00000" pt_clust_6="13000.00000" pt_clust_7="13000.00000" pt_clust_8="13000.00000" pt_clust_9="65.94907"></scales>
<clustering>
<clus scale="   65.949">  1  9  2 -1</clus>
<clus scale="   81.920">  5  6 -1 -1</clus>
<clus scale="   91.021">  7  8 -1 -1</clus>
<clus scale="   94.617">  2  5  1 -1</clus>
<clus scale="   65.949">  1  5  2 -1</clus>
</clustering>
</event>
<event>
 9    1  0.4067873E-005  0.9427961E+02  0.7546771E-02  0.1304778E+00
         21   -1    0    0  501  502  0.00000000000E+00  0.00000000000E+00  0.61368973151E+02  0.61368973151E+02  0.00000000000E+00 0. -1.
         -2   -1    0    0    0  501 -0.00000000000E+00 -0.00000000000E+00 -0.28138351911E+03  0.28138351911E+03  0.00000000000E+00 0.  1.
        -24    2    1    2    0    0 -0.44151061729E+02  0.10753438351E+02 -0.66284371628E+02  0.11257569512E+03  0.78833473359E+02 0.  0.
         23    2    1    2    0    0  0.21069753007E+02 -0.73836264888E+02 -0.50902065063E+02  0.10735249225E+03  0.55116321175E+02 0.  0.
         11    1    3    3    0    0 -0.54181339608E+02 -0.47473947115E+01 -0.74603811795E+02  0.92324883171E+02  0.00000000000E+00 0. -1.
        -12    1    3    3    0    0  0.10030277879E+02  0.15500833062E+02  0.83194401674E+01  0.20250811950E+02  0.00000000000E+00 0.  1.
        -11    1    4    4    0    0 -0.40253555933E+01 -0.24147407120E+02  0.85280119287E+01  0.25923497946E+02  0.00000000000E+00 0. -1.
         11    1    4    4    0    0  0.25095108600E+02 -0.49688857768E+02 -0.59430076992E+02  0.81428994303E+02  0.00000000000E+00 0.  1.
         -1    1    1    2    0  502  0.23081308722E+02  0.63082826537E+02 -0.10282810927E+03  0.12282430489E+03  0.00000000000E+00 0.  1.
<scales pt_clust_5="13000.00000" pt_clust_6="13000.00000" pt_clust_7="13000.00000" pt_clust_8="13000.00000" pt_clust_9="67.17287"></scales>
<clustering>
<clus scale="   55.116">  7  8 -1 -1</clus>
<clus scale="   67.173">  1  9  2 -1</clus>
<clus scale="   75.576">  1  7  2 -1</clus>
<clus scale="   78.833">  5  6 -1 -1</clus>
<clus scale="   67.173">  1  5  2 -1</clus>
</clustering>
</event>
<event>
 9    1  0.4067873E-005  0.1444923E+03  0.7546771E-02  0.1209690E+00
         21   -1    0    0  501  502  0.00000000000E+00  0.00000000000E+00  0.28410221949E+02  0.28410221949E+02  0.00000000000E+00 0.  1.
          1   -1    0    0  502    0 -0.00000000000E+00 -0.00000000000E+00 -0.11613620230E+04  0.11613620230E+04  0.00000000000E+00 0. -1.
        -24    2    1    2    0    0  0.86570159102E+02  0.19421861794E+02 -0.26258836117E+03  0.28831627693E+03  0.79385306945E+02 0.  0.
         23    2    1    2    0    0 -0.12690823407E+03 -0.55510104790E+02 -0.48939014677E+03  0.51665709635E+03  0.90800703970E+02 0.  0.
         13    1    3    3    0    0  0.29748522244E+02 -0.27997696081E+02 -0.13243522617E+03  0.13859269350E+03  0.00000000000E+00 0. -1.
        -14    1    3    3    0    0  0.56821636858E+02  0.47419557875E+02 -0.13015313500E+03  0.14972358343E+03  0.00000000000E+00 0.  1.
        -13    1    4    4    0    0 -0.12368683334E+03 -0.14723280845E+02 -0.37770142740E+03  0.39771041726E+03  0.00000000000E+00 0.  1.
         13    1    4    4    0    0 -0.32214007297E+01 -0.40786823945E+02 -0.11168871937E+03  0.11894667909E+03  0.00000000000E+00 0. -1.
          2    1    1    2  501    0  0.40338074971E+02  0.36088242996E+02 -0.38097329313E+03  0.38479887169E+03  0.00000000000E+00 0. -1.
<scales pt_clust_5="13000.00000" pt_clust_6="13000.00000" pt_clust_7="13000.00000" pt_clust_8="13000.00000" pt_clust_9="54.12508"></scales>
<clustering>
<clus scale="   54.125">  1  9  2 -1</clus>
<clus scale="   79.385">  5  6 -1 -1</clus>
<clus scale="   90.801">  7  8 -1 -1</clus>
<clus scale="  137.606">  2  5  1 -1</clus>
<clus scale="   54.125">  1  5  2 -1</clus>
</clustering>
</event>
<event>
 9    1  0.4067873E-005  0.1612963E+03  0.7546771E-02  0.1188996E+00
          3   -1    0    0  502    0 -0.00000000000E+00  0.00000000000E+00  0.20465266050E+03  0.20465266050E+03  0.00000000000E+00 0. -1.
         21   -1    0    0  501  502  0.00000000000E+00 -0.00000000000E+00 -0.17860703093E+03  0.17860703093E+03  0.00000000000E+00 0. -1.
         23    2    1    2    0    0 -0.83246444594E+02 -0.12079177550E+03  0.78595221718E+02  0.19009605565E+03  0.91862276965E+02 0.  0.
        -24    2    1    2    0    0  0.42483625889E+02  0.99487697246E+02 -0.58044853267E+02  0.14684226886E+03  0.80565417891E+02 0.  0.
         11    1    4    4    0    0  0.27328424238E+02  0.82654571754E+02 -0.77825280272E+02  0.11677069518E+03  0.00000000000E+00 0. -1.
        -12    1    4    4    0    0  0.15155201652E+02  0.16833125492E+02  0.19780427005E+02  0.30071573677E+02  0.00000000000E+00 0.  1.
        -11    1    3    3    0    0  0.19650796841E+02 -0.24952573627E+02  0.21369716201E+02  0.38281190128E+02  0.00000000000E+00 0.  1.
         11    1    3    3    0    0 -0.10289724143E+03 -0.95839201873E+02  0.57225505517E+02  0.15181486552E+03  0.00000000000E+00 0. -1.
          4    1    1    2  501    0  0.40762818704E+02  0.21304078255E+02  0.54952611144E+01  0.46321366924E+02  0.00000000000E+00 0. -1.
<scales pt_clust_5="13000.00000" pt_clust_6="13000.00000" pt_clust_7="13000.00000" pt_clust_8="13000.00000" pt_clust_9="45.99427"></scales>
<clustering>
<clus scale="   45.994">  2  9  1 -1</clus>
<clus scale="   80.565">  5  6 -1 -1</clus>
<clus scale="   91.862">  7  8 -1 -1</clus>
<clus scale="  155.141">  2  5  1 -1</clus>
<clus scale="   45.994">  2  5  1 -1</clus>
</clustering>
</event>
<event>
 9    1  0.4067873E-005  0.1057569E+03  0.7546771E-02  0.1280188E+00
          1   -1    0    0  502    0 -0.00000000000E+00  0.00000000000E+00  0.15183763845E+03  0.15183763845E+03  0.00000000000E+00 0. -1.
         21   -1    0    0  501  502  0.00000000000E+00 -0.00000000000E+00 -0.16176492043E+03  0.16176492043E+03  0.00000000000E+00 0. -1.
         23    2    1    2    0    0  0.15277311960E+02 -0.94088575536E+01  0.97285337322E+02  0.14275199939E+03  0.10291634278E+03 0.  0.
        -24    2    1    2    0    0 -0.50806189840E+02  0.13279208138E+02 -0.70633932392E+02  0.11971074024E+03  0.81141251085E+02 0.  0.
         13    1    4    4    0    0 -0.70415855751E+02 -0.38582399038E+01 -0.53810999345E+02  0.88706834048E+02  0.00000000000E+00 0. -1.
        -14    1    4    4    0    0  0.19609665912E+02  0.17137448042E+02 -0.16822933047E+02  0.31003906187E+02  0.00000000000E+00 0.  1.
        -11    1    3    3    0    0 -0.14190650868E+02 -0.50730187636E+02  0.59568005947E+02  0.79519015601E+02  0.00000000000E+00 0.  1.
         11    1    3    3    0    0  0.29467962827E+02  0.41321330083E+02  0.37717331375E+02  0.63232983791E+02  0.00000000000E+00 0. -1.
          2    1    1    2  501    0  0.35528877880E+02 -0.38703505841E+01 -0.36578686916E+02  0.51139819256E+02  0.00000000000E+00 0. -1.
<scales pt_clust_5="13000.00000" pt_clust_6="13000.00000" pt_clust_7="13000.00000" pt_clust_8="13000.00000" pt_clust_9="35.73907"></scales>
<clustering>
<clus scale="   35.739">  2  9  1 -1</clus>
<clus scale="   81.141">  5  6 -1 -1</clus>
<clus scale="   84.715">  2  5  1 -1</clus>
<clus scale="  102.916">  7  8 -1 -1</clus>
<clus scale="   35.739">  2  5  1 -1</clus>
</clustering>
</event>
<event>
 9    1  0.4067873E-005  0.2800186E+03  0.7546771E-02  0.1096151E+00
         21   -1    0    0  501  502  0.00000000000E+00  0.00000000000E+00  0.30204345515E+03  0.30204345515E+03  0.00000000000E+00 0. -1.
          1   -1    0    0  502    0 -0.00000000000E+00 -0.00000000000E+00 -0.40979494031E+03  0.40979494031E+03  0.00000000000E+00 0. -1.
        -24    2    1    2    0    0  0.70547539019E+02  0.29826138527E+03 -0.16487613337E+03  0.35718712704E+03  0.80384669952E+02 0.  0.
         23    2    1    2    0    0 -0.58100121353E+02 -0.18447907035E+03  0.94966950974E+02  0.23409674434E+03  0.91511815825E+02 0.  0.
         13    1    3    3    0    0  0.12430830201E+02  0.19050089965E+03 -0.12596743377E+03  0.22872016237E+03  0.00000000000E+00 0. -1.
        -14    1    3    3    0    0  0.58116708819E+02  0.10776048563E+03 -0.38908699593E+02  0.12846696467E+03  0.00000000000E+00 0.  1.
        -11    1    4    4    0    0 -0.78152658281E+02 -0.10717024483E+03  0.45878277513E+02  0.14034997585E+03  0.00000000000E+00 0. -1.
         11    1    4    4    0    0  0.20052536928E+02 -0.77308825522E+02  0.49088673461E+02  0.93746768494E+02  0.00000000000E+00 0.  1.
          2    1    1    2  501    0 -0.12447417666E+02 -0.11378231492E+03 -0.37842302764E+02  0.12055452407E+03  0.00000000000E+00 0. -1.
<scales pt_clust_5="13000.00000" pt_clust_6="13000.00000" pt_clust_7="13000.00000" pt_clust_8="13000.00000" pt_clust_9="114.46120"></scales>
<clustering>
<clus scale="   80.385">  5  6 -1 -1</clus>
<clus scale="   91.512">  7  8 -1 -1</clus>
<clus scale="  114.461">  1  9  2 -1</clus>
<clus scale="  276.582">  2  5  1 -1</clus>
<clus scale="  114.461">  1  5  2 -1</clus>
</clustering>
</event>
<event>
 9    1  0.4067873E-005  0.1144123E+03  0.7546771E-02  0.1255582E+00
         21   -1    0    0  501  502  0.00000000000E+00  0.00000000000E+00  0.15412841365E+03  0.15412841365E+03  0.00000000000E+00 0. -1.
          1   -1    0    0  502    0 -0.00000000000E+00 -0.00000000000E+00 -0.21595881093E+03  0.21595881093E+03  0.00000000000E+00 0. -1.
        -24    2    1    2    0    0  0.72827861825E+02 -0.63121436685E+02 -0.18485805656E+02  0.12809027800E+03  0.82323636211E+02 0.  0.
         23    2    1    2    0    0 -0.52607347165E+02 -0.26980552411E+02  0.42092724879E+02  0.11619244466E+03  0.90738104037E+02 0.  0.
         11    1    3    3    0    0  0.61506805391E+02 -0.38501458872E+02 -0.48787328677E+02  0.87439424084E+02  0.00000000000E+00 0. -1.
        -12    1    3    3    0    0  0.11321056434E+02 -0.24619977813E+02  0.30301523022E+02  0.40650853911E+02  0.00000000000E+00 0.  1.
        -11    1    4    4    0    0 -0.48126409794E+02 -0.53194211828E+02  0.51145286079E+02  0.88100032803E+02  0.00000000000E+00 0. -1.
         11    1    4    4    0    0 -0.44809373707E+01  0.26213659416E+02 -0.90525612000E+01  0.28092411858E+02  0.00000000000E+00 0.  1.
          2    1    1    2  501    0 -0.20220514660E+02  0.90101989096E+02 -0.85437316507E+02  0.12580450192E+03  0.00000000000E+00 0. -1.
<scales pt_clust_5="13000.00000" pt_clust_6="13000.00000" pt_clust_7="13000.00000" pt_clust_8="13000.00000" pt_clust_9="92.34309"></scales>
<clustering>
<clus scale="   82.324">  5  6 -1 -1</clus>
<clus scale="   90.738">  7  8 -1 -1</clus>
<clus scale="   92.343">  1  9  2 -1</clus>
<clus scale="  107.861">  2  5  1 -1</clus>
<clus scale="   92.343">  1  5  2 -1</clus>
</clustering>
</event>
<event>
 9    1  0.4067873E-005  0.1993287E+03  0.7546771E-02  0.1175422E+00
         21   -1    0    0  501  502  0.00000000000E+00  0.00000000000E+00  0.60588959453E+03  0.60588959453E+03  0.00000000000E+00 0.  1.
         -2   -1    0    0    0  501 -0.00000000000E+00 -0.00000000000E+00 -0.10845368957E+03  0.10845368957E+03  0.00000000000E+00 0.  1.
        -24    2    1    2    0    0  0.75347884697E+02 -0.19889053812E+01  0.19274031480E+03  0.22262030469E+03  0.82034819665E+02 0.  0.
         23    2    1    2    0    0  0.13825080454E+03  0.61253506269E+01  0.82173583572E+02  0.18324679939E+03  0.87613279678E+02 0.  0.
         11    1    3    3    0    0  0.37298019985E+01 -0.31314164219E+02  0.78871259509E+02  0.84942120766E+02  0.00000000000E+00 0. -1.
        -12    1    3    3    0    0  0.71618082698E+02  0.29325258838E+02  0.11386905529E+03  0.13767818392E+03  0.00000000000E+00 0.  1.
        -11    1    4    4    0    0  0.47932001082E+02  0.30548806849E+02  0.67983446131E+02  0.88614080571E+02  0.00000000000E+00 0. -1.
         11    1    4    4    0    0  0.90318803455E+02 -0.24423456222E+02  0.14190137441E+02  0.94632718823E+02  0.00000000000E+00 0.  1.
         -1    1    1    2    0  502 -0.21359868923E+03 -0.41364452456E+01  0.22252200659E+03  0.30847618002E+03  0.00000000000E+00 0.  1.
<scales pt_clust_5="13000.00000" pt_clust_6="13000.00000" pt_clust_7="13000.00000" pt_clust_8="13000.00000" pt_clust_9="179.04151"></scales>
<clustering>
<clus scale="   82.035">  5  6 -1 -1</clus>
<clus scale="   87.613">  7  8 -1 -1</clus>
<clus scale="  111.405">  2  5  1 -1</clus>
<clus scale="  179.042">  1  9  2 -1</clus>
<clus scale="  179.042">  1  5  2 -1</clus>
</clustering>
</event>
<event>
 9    1  0.4067873E-005  0.9620189E+02  0.7546771E-02  0.1292914E+00
         21   -1    0    0  501  502  0.00000000000E+00  0.00000000000E+00  0.23246993543E+03  0.23246993543E+03  0.00000000000E+00 0. -1.
         -4   -1    0    0    0  501 -0.00000000000E+00 -0.00000000000E+00 -0.74992059510E+02  0.74992059510E+02  0.00000000000E+00 0.  1.
         23    2    1    2    0    0 -0.46048751273E+01 -0.23014944990E+02 -0.17263697772E+02  0.96873751293E+02  0.92388288549E+02 0.  0.
        -24    2    1    2    0    0  0.22333086402E+02  0.36193465521E+02  0.15116615422E+03  0.17828091813E+03  0.84404655648E+02 0.  0.
         11    1    4    4    0    0  0.47098078439E+02  0.42112309564E+02  0.13223175247E+03  0.14655003231E+03  0.00000000000E+00 0. -1.
        -12    1    4    4    0    0 -0.24764992037E+02 -0.59188440434E+01  0.18934401745E+02  0.31730885819E+02  0.00000000000E+00 0.  1.
        -13    1    3    3    0    0  0.39448300474E+02 -0.31111280083E+02 -0.12905026889E+02  0.51871185428E+02  0.00000000000E+00 0. -1.
         13    1    3    3    0    0 -0.44053175602E+02  0.80963350933E+01 -0.43586708831E+01  0.45002565865E+02  0.00000000000E+00 0.  1.
         -3    1    1    2    0  502 -0.17728211274E+02 -0.13178520531E+02  0.23575419475E+02  0.32307325513E+02  0.00000000000E+00 0.  1.
<scales pt_clust_5="13000.00000" pt_clust_6="13000.00000" pt_clust_7="13000.00000" pt_clust_8="13000.00000" pt_clust_9="22.08988"></scales>
<clustering>
<clus scale="   22.090">  1  9  2 -1</clus>
<clus scale="   84.405">  5  6 -1 -1</clus>
<clus scale="   88.563">  1  5  2 -1</clus>
<clus scale="   92.388">  7  8 -1 -1</clus>
<clus scale="   22.090">  1  5  2 -1</clus>
</clustering>
</event>
<event>
 9    1  0.4067873E-005  0.1101260E+03  0.7546771E-02  0.1265172E+00
         21   -1    0    0  501  502  0.00000000000E+00  0.00000000000E+00  0.42358933552E+03  0.42358933552E+03  0.00000000000E+00 0. -1.
          1   -1    0    0  502    0 -0.00000000000E+00 -0.00000000000E+00 -0.52344341190E+02  0.52344341190E+02  0.00000000000E+00 0. -1.
        -24    2    1    2    0    0 -0.77952109588E+02  0.67952827131E+01  0.56687839860E+02  0.12546476720E+03  0.80032426959E+02 0.  0.
         23    2    1    2    0    0  0.25579855672E+02 -0.11967258720E+02  0.15577426116E+03  0.18319186528E+03  0.92174263050E+02 0.  0.
         11    1    3    3    0    0 -0.91107410488E+02  0.19777348537E+02  0.44333153306E+02  0.10323338725E+03  0.00000000000E+00 0. -1.
        -12    1    3    3    0    0  0.13155300899E+02 -0.12982065824E+02  0.12354686554E+02  0.22231379954E+02  0.00000000000E+00 0.  1.
        -13    1    4    4    0    0 -0.10312801377E+02 -0.40800383851E+02  0.11207422884E+03  0.11971490285E+03  0.00000000000E+00 0. -1.
         13    1    4    4    0    0  0.35892657049E+02  0.28833125131E+02  0.43700032319E+02  0.63476962432E+02  0.00000000000E+00 0.  1.
          2    1    1    2  501    0  0.52372253917E+02  0.51719760066E+01  0.15878289331E+03  0.16727704422E+03  0.00000000000E+00 0. -1.
<scales pt_clust_5="13000.00000" pt_clust_6="13000.00000" pt_clust_7="13000.00000" pt_clust_8="13000.00000" pt_clust_9="52.62701"></scales>
<clustering>
<clus scale="   52.627">  1  9  2 -1</clus>
<clus scale="   80.032">  5  6 -1 -1</clus>
<clus scale="   92.174">  7  8 -1 -1</clus>
<clus scale="  100.184">  2  5  1 -1</clus>
<clus scale="   52.627">  1  5  2 -1</clus>
</clustering>
</event>
<event>
 9    1  0.4067873E-005  0.1854927E+03  0.7546771E-02  0.1164238E+00
         21   -1    0    0  501  502  0.00000000000E+00  0.00000000000E+00  0.26244089670E+03  0.26244089670E+03  0.00000000000E+00 0.  1.
         -2   -1    0    0    0  501 -0.00000000000E+00 -0.00000000000E+00 -0.33303734807E+03  0.33303734807E+03  0.00000000000E+00 0.  1.
        -24    2    1    2    0    0 -0.48230620733E+02  0.15189200734E+03 -0.82068675959E+02  0.19543702827E+03  0.77865202586E+02 0.  0.
         23    2    1    2    0    0 -0.52419240217E+02 -0.18129334154E+03  0.12572026210E+03  0.24496882360E+03  0.92677331650E+02 0.  0.
         11    1    3    3    0    0  0.85570910163E+01  0.41904970304E+02  0.64604348689E+01  0.43254913727E+02  0.00000000000E+00 0. -1.
        -12    1    3    3    0    0 -0.56787711749E+02  0.10998703704E+03 -0.88529110828E+02  0.15218211454E+03  0.00000000000E+00 0.  1.
        -11    1    4    4    0    0  0.93157084003E+01 -0.39126258042E+02  0.69110101862E+02  0.79961569962E+02  0.00000000000E+00 0.  1.
         11    1    4    4    0    0 -0.61734948617E+02 -0.14216708350E+03  0.56610160239E+02  0.16500725364E+03  0.00000000000E+00 0. -1.
         -1    1    1    2    0  502  0.10064986095E+03  0.29401334196E+02 -0.11424803752E+03  0.15507239290E+03  0.00000000000E+00 0.  1.
<scales pt_clust_5="13000.00000" pt_clust_6="13000.00000" pt_clust_7="13000.00000" pt_clust_8="13000.00000" pt_clust_9="104.85630"></scales>
<clustering>
<clus scale="   77.865">  5  6 -1 -1</clus>
<clus scale="   92.677">  7  8 -1 -1</clus>
<clus scale="  104.856">  1  9  2 -1</clus>
<clus scale="  178.554">  2  5  1 -1</clus>
<clus scale="  104.856">  1  5  2 -1</clus>
</clustering>
</event>
<event>
 9    1  0.4067873E-005  0.1135799E+03  0.7546771E-02  0.1258333E+00
         -4   -1    0    0    0  501 -0.00000000000E+00  0.00000000000E+00  0.13671985711E+03  0.13671985711E+03  0.00000000000E+00 0.  1.
         21   -1    0    0  501  502  0.00000000000E+00 -0.00000000000E+00 -0.23019702943E+03  0.23019702943E+03  0.00000000000E+00 0.  1.
        -24    2    1    2    0    0  0.66885205230E+02 -0.32754422356E+02  0.74382682019E+02  0.13199641006E+03  0.79647887746E+02 0.  0.
         23    2    1    2    0    0 -0.51617748378E+02 -0.68867198760E+01 -0.64924082277E+02  0.12356389353E+03  0.91329515859E+02 0.  0.
         13    1    3    3    0    0  0.29154952487E+02 -0.56230108000E+02  0.33687097184E+02  0.71740203630E+02  0.00000000000E+00 0. -1.
        -14    1    3    3    0    0  0.37730252743E+02  0.23475685644E+02  0.40695584835E+02  0.60256206432E+02  0.00000000000E+00 0.  1.
        -13    1    4    4    0    0 -0.21706158226E+02 -0.37250778179E+02 -0.68341790271E+02  0.80804567181E+02  0.00000000000E+00 0.  1.
         13    1    4    4    0    0 -0.29911590152E+02  0.30364058303E+02  0.34177079949E+01  0.42759326351E+02  0.00000000000E+00 0. -1.
         -3    1    1    2    0  502 -0.15267456851E+02  0.39641142232E+02 -0.10293577207E+03  0.11135658295E+03  0.00000000000E+00 0.  1.
<scales pt_clust_5="13000.00000" pt_clust_6="13000.00000" pt_clust_7="13000.00000" pt_clust_8="13000.00000" pt_clust_9="42.47959"></scales>
<clustering>
<clus scale="   42.480">  2  9  1 -1</clus>
<clus scale="   79.648">  5  6 -1 -1</clus>
<clus scale="   91.330">  7  8 -1 -1</clus>
<clus scale="  104.418">  1  5  2 -1</clus>
<clus scale="   42.480">  2  5  1 -1</clus>
</clustering>
</event>
<event>
 9    1  0.4067873E-005  0.8867815E+02  0.7546771E-02  0.1308646E+00
          1   -1    0    0  502    0 -0.00000000000E+00  0.00000000000E+00  0.53871175711E+02  0.53871175711E+02  0.00000000000E+00 0. -1.
         21   -1    0    0  501  502  0.00000000000E+00 -0.00000000000E+00 -0.25210525990E+03  0.25210525990E+03  0.00000000000E+00 0.  1.
        -24    2    1    2    0    0  0.63397936035E+01 -0.12468322525E+02 -0.18647136385E+02  0.86255534578E+02  0.83046068543E+02 0.  0.
         23    2    1    2    0    0  0.16532049406E+02  0.24936261544E+02 -0.10003844652E+03  0.13601585482E+03  0.87163617304E+02 0.  0.
         13    1    3    3    0    0 -0.35723660785E+02 -0.20297094328E+02 -0.13023317525E+02  0.43101725921E+02  0.00000000000E+00 0. -1.
        -14    1    3    3    0    0  0.42063454388E+02  0.78287718029E+01 -0.56238188599E+01  0.43153808657E+02  0.00000000000E+00 0.  1.
        -11    1    4    4    0    0  0.44914536774E+02 -0.28240262456E+01 -0.25919685305E+02  0.51933811955E+02  0.00000000000E+00 0.  1.
         11    1    4    4    0    0 -0.28382487368E+02  0.27760287790E+02 -0.74118761216E+02  0.84082042860E+02  0.00000000000E+00 0. -1.
          2    1    1    2  501    0 -0.22871843009E+02 -0.12467939019E+02 -0.79548501286E+02  0.83705046221E+02  0.00000000000E+00 0. -1.
<scales pt_clust_5="13000.00000" pt_clust_6="13000.00000" pt_clust_7="13000.00000" pt_clust_8="13000.00000" pt_clust_9="26.04939"></scales>
<clustering>
<clus scale="   26.049">  2  9  1 -1</clus>
<clus scale="   83.046">  5  6 -1 -1</clus>
<clus scale="   84.634">  1  5  2 -1</clus>
<clus scale="   87.164">  7  8 -1 -1</clus>
<clus scale="   26.049">  2  5  1 -1</clus>
</clustering>
</event>
<event>
 9    1  0.4067873E-005  0.1630679E+03  0.7546771E-02  0.1186879E+00
         21   -1    0    0  501  502  0.00000000000E+00  0.00000000000E+00  0.18907384093E+03  0.18907384093E+03  0.00000000000E+00 0.  1.
         -2   -1    0    0    0  501 -0.00000000000E+00 -0.00000000000E+00 -0.32609854392E+03  0.32609854392E+03  0.00000000000E+00 0.  1.
         23    2    1    2    0    0  0.83641307220E+02  0.10717942321E+03 -0.22032363122E+03  0.27431405660E+03  0.90677462161E+02 0.  0.
        -24    2    1    2    0    0 -0.12038582793E+03 -0.73525737986E+02  0.24824469299E+02  0.16403390064E+03  0.79950513252E+02 0.  0.
         11    1    4    4    0    0 -0.20749586065E+01 -0.38218555059E+02  0.99046756780E+00  0.38287653754E+02  0.00000000000E+00 0. -1.
        -12    1    4    4    0    0 -0.11831086933E+03 -0.35307182927E+02  0.23834001731E+02  0.12574624688E+03  0.00000000000E+00 0.  1.
        -11    1    3    3    0    0  0.43135898248E+02  0.61571670243E+02 -0.42589305232E+02  0.86403849534E+02  0.00000000000E+00 0. -1.
         11    1    3    3    0    0  0.40505408972E+02  0.45607752962E+02 -0.17773432599E+03  0.18791020707E+03  0.00000000000E+00 0.  1.
         -1    1    1    2    0  502  0.36744520713E+02 -0.33653685219E+02  0.58474458923E+02  0.76824427610E+02  0.00000000000E+00 0.  1.
<scales pt_clust_5="13000.00000" pt_clust_6="13000.00000" pt_clust_7="13000.00000" pt_clust_8="13000.00000" pt_clust_9="49.82700"></scales>
<clustering>
<clus scale="   49.827">  1  9  2 -1</clus>
<clus scale="   79.951">  5  6 -1 -1</clus>
<clus scale="   90.677">  7  8 -1 -1</clus>
<clus scale="  157.356">  1  5  2 -1</clus>
<clus scale="   49.827">  1  5  2 -1</clus>
</clustering>
</event>
<event>
 9    1  0.4067873E-005  0.1097730E+03  0.7546771E-02  0.1265514E+00
         21   -1    0    0  501  502  0.00000000000E+00  0.00000000000E+00  0.82884317216E+03  0.82884317216E+03  0.00000000000E+00 0.  1.
         -2   -1    0    0    0  501 -0.00000000000E+00 -0.00000000000E+00 -0.24695928111E+02  0.24695928111E+02  0.00000000000E+00 0.  1.
         23    2    1    2    0    0  0.55989231365E+02  0.31087394813E+02  0.13851237002E+03  0.17820118278E+03  0.92025891742E+02 0.  0.
        -24    2    1    2    0    0 -0.43312071341E+02 -0.14237679549E+02  0.55963805034E+03  0.56726410048E+03  0.80716573664E+02 0.  0.
         13    1    4    4    0    0 -0.17221163408E+02 -0.47294940319E+02  0.28353973694E+03  0.28797250263E+03  0.00000000000E+00 0. -1.
        -14    1    4    4    0    0 -0.26090907934E+02  0.33057260770E+02  0.27609831340E+03  0.27929159785E+03  0.00000000000E+00 0.  1.
        -11    1    3    3    0    0 -0.15212698325E+02  0.37130585034E+02  0.58317104924E+02  0.70788355412E+02  0.00000000000E+00 0. -1.
         11    1    3    3    0    0  0.71201929689E+02 -0.60431902211E+01  0.80195265095E+02  0.10741282737E+03  0.00000000000E+00 0.  1.
         -1    1    1    2    0  502 -0.12677160023E+02 -0.16849715263E+02  0.10599682369E+03  0.10807381701E+03  0.00000000000E+00 0.  1.
<scales pt_clust_5="13000.00000" pt_clust_6="13000.00000" pt_clust_7="13000.00000" pt_clust_8="13000.00000" pt_clust_9="21.08609"></scales>
<clustering>
<clus scale="   21.086">  1  9  2 -1</clus>
<clus scale="   80.717">  5  6 -1 -1</clus>
<clus scale="   92.026">  7  8 -1 -1</clus>
<clus scale="  100.481">  1  5  2 -1</clus>
<clus scale="   21.086">  1  5  2 -1</clus>
</clustering>
</event>
<event>
 9    1  0.4067873E-005  0.1462917E+03  0.7546771E-02  0.1206087E+00
         21   -1    0    0  501  502  0.00000000000E+00  0.00000000000E+00  0.34054953091E+02  0.34054953091E+02  0.00000000000E+00 0.  1.
          1   -1    0    0  502    0 -0.00000000000E+00 -0.00000000000E+00 -0.10933324905E+04  0.10933324905E+04  0.00000000000E+00 0. -1.
        -24    2    1    2    0    0  0.58526299275E+02  0.10278421104E+03 -0.65637642993E+03  0.67180809379E+03  0.80660866409E+02 0.  0.
         23    2    1    2    0    0 -0.20026424590E+02 -0.12285973923E+03 -0.21605915706E+03  0.26375864805E+03  0.85973785916E+02 0.  0.
         13    1    3    3    0    0 -0.15047334348E+02  0.25648368307E+02 -0.73909456005E+02  0.79667237650E+02  0.00000000000E+00 0. -1.
        -14    1    3    3    0    0  0.73573633623E+02  0.77135842737E+02 -0.58246697392E+03  0.59214085614E+03  0.00000000000E+00 0.  1.
        -13    1    4    4    0    0  0.28450522930E+02 -0.37960207072E+02 -0.10844505796E+03  0.11836697248E+03  0.00000000000E+00 0. -1.
         13    1    4    4    0    0 -0.48476947520E+02 -0.84899532162E+02 -0.10761409910E+03  0.14539167558E+03  0.00000000000E+00 0.  1.
          2    1    1    2  501    0 -0.38499874685E+02  0.20075528190E+02 -0.18684195039E+03  0.19182070172E+03  0.00000000000E+00 0. -1.
<scales pt_clust_5="13000.00000" pt_clust_6="13000.00000" pt_clust_7="13000.00000" pt_clust_8="13000.00000" pt_clust_9="43.41969"></scales>
<clustering>
<clus scale="   43.420">  1  9  2 -1</clus>
<clus scale="   80.661">  5  6 -1 -1</clus>
<clus scale="   85.974">  7  8 -1 -1</clus>
<clus scale="  143.234">  2  5  1 -1</clus>
<clus scale="   43.420">  1  5  2 -1</clus>
</clustering>
</event>
<event>
 9    1  0.4067873E-005  0.9525562E+02  0.7546771E-02  0.1296674E+00
         21   -1    0    0  501  502  0.00000000000E+00  0.00000000000E+00  0.20538834531E+03  0.20538834531E+03  0.00000000000E+00 0. -1.
          1   -1    0    0  502    0 -0.00000000000E+00 -0.00000000000E+00 -0.25980090851E+03  0.25980090851E+03  0.00000000000E+00 0. -1.
        -24    2    1    2    0    0  0.17289528220E+02 -0.21972207753E+02 -0.20932770317E+03  0.22595520578E+03  0.80349001265E+02 0.  0.
         23    2    1    2    0    0 -0.51077459317E+02 -0.98008307636E+01  0.34828175853E+02  0.11050165423E+03  0.91063991901E+02 0.  0.
         11    1    3    3    0    0 -0.18380923268E+02 -0.39947125820E+02 -0.90997852945E+02  0.10106552549E+03  0.00000000000E+00 0. -1.
        -12    1    3    3    0    0  0.35670451488E+02  0.17974918067E+02 -0.11832985023E+03  0.12488968029E+03  0.00000000000E+00 0.  1.
        -11    1    4    4    0    0 -0.16001528287E+02  0.25030935381E+02  0.50546246989E+02  0.58630365155E+02  0.00000000000E+00 0.  1.
         11    1    4    4    0    0 -0.35075931029E+02 -0.34831766144E+02 -0.15718071136E+02  0.51871289077E+02  0.00000000000E+00 0. -1.
          2    1    1    2  501    0  0.33787931096E+02  0.31773038516E+02  0.12008696412E+03  0.12873239381E+03  0.00000000000E+00 0. -1.
<scales pt_clust_5="13000.00000" pt_clust_6="13000.00000" pt_clust_7="13000.00000" pt_clust_8="13000.00000" pt_clust_9="46.38049"></scales>
<clustering>
<clus scale="   46.380">  1  9  2 -1</clus>
<clus scale="   80.349">  5  6 -1 -1</clus>
<clus scale="   85.070">  2  5  1 -1</clus>
<clus scale="   91.064">  7  8 -1 -1</clus>
<clus scale="   46.380">  1  5  2 -1</clus>
</clustering>
</event>
<event>
 9    1  0.4067873E-005  0.1051470E+03  0.7546771E-02  0.1274736E+00
         21   -1    0    0  501  502  0.00000000000E+00  0.00000000000E+00  0.27708649010E+03  0.27708649010E+03  0.00000000000E+00 0. -1.
         -2   -1    0    0    0  501 -0.00000000000E+00 -0.00000000000E+00 -0.10894491493E+03  0.10894491493E+03  0.00000000000E+00 0.  1.
        -24    2    1    2    0    0  0.52100044289E+02  0.15341195104E+02 -0.69247419139E+02  0.11907659691E+03  0.80213864094E+02 0.  0.
         23    2    1    2    0    0 -0.37191326326E+02  0.65192980981E+00  0.17528571542E+03  0.20111510001E+03  0.91315834625E+02 0.  0.
         13    1    3    3    0    0  0.12724472746E+02  0.38450688388E+02 -0.58073301571E+01  0.40915678263E+02  0.00000000000E+00 0. -1.
        -14    1    3    3    0    0  0.39375571543E+02 -0.23109493284E+02 -0.63440088982E+02  0.78160918650E+02  0.00000000000E+00 0.  1.
        -11    1    4    4    0    0 -0.40847461249E+01  0.24373933337E+02  0.39774241321E+01  0.25031853306E+02  0.00000000000E+00 0.  1.
         11    1    4    4    0    0 -0.33106580201E+02 -0.23722003527E+02  0.17130829129E+03  0.17608324670E+03  0.00000000000E+00 0. -1.
         -1    1    1    2    0  502 -0.14908717963E+02 -0.15993124914E+02  0.62103278886E+02  0.65839708111E+02  0.00000000000E+00 0.  1.
<scales pt_clust_5="13000.00000" pt_clust_6="13000.00000" pt_clust_7="13000.00000" pt_clust_8="13000.00000" pt_clust_9="21.86435"></scales>
<clustering>
<clus scale="   21.864">  1  9  2 -1</clus>
<clus scale="   80.214">  5  6 -1 -1</clus>
<clus scale="   91.316">  7  8 -1 -1</clus>
<clus scale="   95.664">  2  5  1 -1</clus>
<clus scale="   21.864">  1  5  2 -1</clus>
</clustering>
</event>
<event>
 9    1  0.4067873E-005  0.9944306E+02  0.7546771E-02  0.1290278E+00
         21   -1    0    0  501  502  0.00000000000E+00  0.00000000000E+00  0.74532717490E+02  0.74532717490E+02  0.00000000000E+00 0. -1.
         -2   -1    0    0    0  501 -0.00000000000E+00 -0.00000000000E+00 -0.51870544071E+03  0.51870544071E+03  0.00000000000E+00 0.  1.
        -24    2    1    2    0    0  0.23258698502E+02  0.20250735538E+02 -0.43851841787E+03  0.44672321747E+03  0.79449171619E+02 0.  0.
         23    2    1    2    0    0 -0.14977489930E+02  0.25220571532E+02 -0.85864792571E+01  0.10020278438E+03  0.95427815327E+02 0.  0.
         11    1    3    3    0    0  0.35290927166E+02 -0.17740231352E+02 -0.13692356521E+03  0.14250694038E+03  0.00000000000E+00 0. -1.
        -12    1    3    3    0    0 -0.12032228665E+02  0.37990966891E+02 -0.30159485267E+03  0.30421627709E+03  0.00000000000E+00 0.  1.
        -13    1    4    4    0    0  0.32725489585E+02  0.40070815743E+00  0.20942477937E+02  0.38854930418E+02  0.00000000000E+00 0.  1.
         13    1    4    4    0    0 -0.47702979515E+02  0.24819863374E+02 -0.29528957195E+02  0.61347853960E+02  0.00000000000E+00 0. -1.
         -1    1    1    2    0  502 -0.82812085717E+01 -0.45471307070E+02  0.29321739060E+01  0.46312156351E+02  0.00000000000E+00 0.  1.
<scales pt_clust_5="13000.00000" pt_clust_6="13000.00000" pt_clust_7="13000.00000" pt_clust_8="13000.00000" pt_clust_9="46.21924"></scales>
<clustering>
<clus scale="   46.219">  1  9  2 -1</clus>
<clus scale="   79.449">  5  6 -1 -1</clus>
<clus scale="   84.230">  2  5  1 -1</clus>
<clus scale="   95.428">  7  8 -1 -1</clus>
<clus scale="   46.219">  1  5  2 -1</clus>
</clustering>
</event>
<event>
 9    1  0.4067873E-005  0.1009534E+03  0.7546771E-02  0.1282709E+00
         21   -1    0    0  501  502  0.00000000000E+00  0.00000000000E+00  0.29817541726E+03  0.29817541726E+03  0.00000000000E+00 0. -1.
          1   -1    0    0  502    0 -0.00000000000E+00 -0.00000000000E+00 -0.31746426442E+03  0.31746426442E+03  0.00000000000E+00 0. -1.
        -24    2    1    2    0    0 -0.83103004348E+01 -0.34789597868E+02 -0.19948410027E+03  0.21794156096E+03  0.80157598005E+02 0.  0.
         23    2    1    2    0    0  0.36016487827E+02  0.90774617411E+02 -0.62976931029E+02  0.14663106518E+03  0.89427942344E+02 0.  0.
         13    1    3    3    0    0  0.35557376620E+01  0.19884896883E+02 -0.11400640076E+03  0.11578217396E+03  0.00000000000E+00 0. -1.
        -14    1    3    3    0    0 -0.11866038097E+02 -0.54674494751E+02 -0.85477699518E+02  0.10215938700E+03  0.00000000000E+00 0.  1.
        -13    1    4    4    0    0  0.49823164866E+02  0.11838559936E+02 -0.15574938902E+02  0.53526423199E+02  0.00000000000E+00 0.  1.
         13    1    4    4    0    0 -0.13806677039E+02  0.78936057475E+02 -0.47401992126E+02  0.93104641979E+02  0.00000000000E+00 0. -1.
          2    1    1    2  501    0 -0.27706187392E+02 -0.55985019543E+02  0.24317218415E+03  0.25106705554E+03  0.00000000000E+00 0. -1.
<scales pt_clust_5="13000.00000" pt_clust_6="13000.00000" pt_clust_7="13000.00000" pt_clust_8="13000.00000" pt_clust_9="62.46563"></scales>
<clustering>
<clus scale="   62.466">  1  9  2 -1</clus>
<clus scale="   80.158">  5  6 -1 -1</clus>
<clus scale="   89.428">  7  8 -1 -1</clus>
<clus scale="   92.841">  2  5  1 -1</clus>
<clus scale="   62.466">  1  5  2 -1</clus>
</clustering>
</event>
<event>
 9    1  0.4067873E-005  0.9898697E+02  0.7546771E-02  0.1288349E+00
         21   -1    0    0  501  502  0.00000000000E+00  0.00000000000E+00  0.18933919293E+03  0.18933919293E+03  0.00000000000E+00 0. -1.
          1   -1    0    0  502    0 -0.00000000000E+00 -0.00000000000E+00 -0.11913043948E+03  0.11913043948E+03  0.00000000000E+00 0. -1.
         23    2    1    2    0    0  0.29504507075E+02 -0.36231974443E+02 -0.29238119463E+02  0.10737055290E+03  0.92142802704E+02 0.  0.
        -24    2    1    2    0    0  0.31379689287E+02  0.35625513788E+02  0.11935774741E+02  0.94490236233E+02  0.80821283659E+02 0.  0.
         13    1    4    4    0    0  0.58429742970E+02  0.17672058139E+02  0.10890353714E+02  0.62007550398E+02  0.00000000000E+00 0. -1.
        -14    1    4    4    0    0 -0.27050053682E+02  0.17953455649E+02  0.10454210277E+01  0.32482685835E+02  0.00000000000E+00 0.  1.
        -13    1    3    3    0    0  0.89542838629E+01  0.18598561082E+02  0.21562602948E+02  0.29850151083E+02  0.00000000000E+00 0. -1.
         13    1    3    3    0    0  0.20550223212E+02 -0.54830535524E+02 -0.50800722411E+02  0.77520401815E+02  0.00000000000E+00 0.  1.
          2    1    1    2  501    0 -0.60884196363E+02  0.60646065512E+00  0.87511098175E+02  0.10660884328E+03  0.00000000000E+00 0. -1.
<scales pt_clust_5="13000.00000" pt_clust_6="13000.00000" pt_clust_7="13000.00000" pt_clust_8="13000.00000" pt_clust_9="60.88722"></scales>
<clustering>
<clus scale="   60.887">  1  9  2 -1</clus>
<clus scale="   80.821">  5  6 -1 -1</clus>
<clus scale="   88.545">  1  5  2 -1</clus>
<clus scale="   92.143">  7  8 -1 -1</clus>
<clus scale="   60.887">  1  5  2 -1</clus>
</clustering>
</event>
<event>
 9    1  0.4067873E-005  0.2556514E+03  0.7546771E-02  0.1124095E+00
         -2   -1    0    0    0  501 -0.00000000000E+00  0.00000000000E+00  0.57973203189E+03  0.57973203189E+03  0.00000000000E+00 0.  1.
         21   -1    0    0  501  502  0.00000000000E+00 -0.00000000000E+00 -0.37016470585E+03  0.37016470585E+03  0.00000000000E+00 0.  1.
        -24    2    1    2    0    0  0.12407414545E+03  0.99411357741E+02  0.66919752382E+02  0.19051690858E+03  0.80879092359E+02 0.  0.
         23    2    1    2    0    0 -0.21048550054E+03  0.12901467421E+03  0.35075781722E+03  0.43851342730E+03  0.91181398785E+02 0.  0.
         13    1    3    3    0    0  0.22116977554E+02 -0.52774101043E+01  0.33702783430E+02  0.40655742085E+02  0.00000000000E+00 0. -1.
        -14    1    3    3    0    0  0.10195716790E+03  0.10468876785E+03  0.33216968951E+02  0.14986116650E+03  0.00000000000E+00 0.  1.
        -11    1    4    4    0    0 -0.15414802508E+03  0.85613611722E+02  0.30974771604E+03  0.35641962872E+03  0.00000000000E+00 0.  1.
         11    1    4    4    0    0 -0.56337475462E+02  0.43401062485E+02  0.41010101182E+02  0.82093798580E+02  0.00000000000E+00 0. -1.
         -1    1    1    2    0  502  0.86411355096E+02 -0.22842603195E+03 -0.20811024357E+03  0.32086640185E+03  0.00000000000E+00 0.  1.
<scales pt_clust_5="13000.00000" pt_clust_6="13000.00000" pt_clust_7="13000.00000" pt_clust_8="13000.00000" pt_clust_9="238.83800"></scales>
<clustering>
<clus scale="   80.879">  5  6 -1 -1</clus>
<clus scale="   91.181">  7  8 -1 -1</clus>
<clus scale="  178.377">  1  5  2 -1</clus>
<clus scale="  238.838">  2  9  1 -1</clus>
<clus scale="  238.838">  2  5  1 -1</clus>
</clustering>
</event>
<event>
 9    1  0.4067873E-005  0.1034601E+03  0.7546771E-02  0.1278891E+00
         21   -1    0    0  501  502  0.00000000000E+00  0.00000000000E+00  0.80310494404E+02  0.80310494404E+02  0.00000000000E+00 0. -1.
          1   -1    0    0  502    0 -0.00000000000E+00 -0.00000000000E+00 -0.75863199370E+03  0.75863199370E+03  0.00000000000E+00 0. -1.
         23    2    1    2    0    0 -0.62722243774E+01  0.63657932438E+02 -0.43776832952E+03  0.45181290012E+03  0.91663041748E+02 0.  0.
        -24    2    1    2    0    0 -0.58691902825E+02 -0.15752115163E+02 -0.27998501052E+03  0.29729543404E+03  0.79373171767E+02 0.  0.
         13    1    4    4    0    0 -0.20187620967E+02  0.97751531994E+01 -0.12157313719E+02  0.25512623096E+02  0.00000000000E+00 0. -1.
        -14    1    4    4    0    0 -0.38504281858E+02 -0.25527268362E+02 -0.26782769680E+03  0.27178281094E+03  0.00000000000E+00 0.  1.
        -13    1    3    3    0    0  0.23618571792E+02 -0.82215961463E+01 -0.45742914501E+02  0.52132962737E+02  0.00000000000E+00 0.  1.
         13    1    3    3    0    0 -0.29890796169E+02  0.71879528584E+02 -0.39202541502E+03  0.39967993738E+03  0.00000000000E+00 0. -1.
          2    1    1    2  501    0  0.64964127202E+02 -0.47905817275E+02  0.39431840737E+02  0.89834153950E+02  0.00000000000E+00 0. -1.
<scales pt_clust_5="13000.00000" pt_clust_6="13000.00000" pt_clust_7="13000.00000" pt_clust_8="13000.00000" pt_clust_9="80.71744"></scales>
<clustering>
<clus scale="   79.373">  5  6 -1 -1</clus>
<clus scale="   80.717">  1  9  2 -1</clus>
<clus scale="   91.663">  7  8 -1 -1</clus>
<clus scale="   92.747">  1  5  2 -1</clus>
<clus scale="   80.717">  1  5  2 -1</clus>
</clustering>
</event>
<event>
 9    1  0.4067873E-005  0.1060593E+03  0.7546771E-02  0.1278150E+00
         21   -1    0    0  501  502  0.00000000000E+00  0.00000000000E+00  0.14961432141E+03  0.14961432141E+03  0.00000000000E+00 0. -1.
          3   -1    0    0  502    0 -0.00000000000E+00 -0.00000000000E+00 -0.10191953938E+03  0.10191953938E+03  0.00000000000E+00 0. -1.
         23    2    1    2    0    0 -0.39867061129E+01  0.33519511996E+02 -0.29274705541E+02  0.10803550431E+03  0.98362646855E+02 0.  0.
        -24    2    1    2    0    0 -0.13669313880E+02 -0.52434570297E+02  0.55332856873E+02  0.10976916644E+03  0.77790169991E+02 0.  0.
         13    1    4    4    0    0  0.28720622728E+02 -0.38526763524E+02  0.17071889143E+02  0.50996422192E+02  0.00000000000E+00 0. -1.
        -14    1    4    4    0    0 -0.42389936608E+02 -0.13907806774E+02  0.38260967730E+02  0.58772744249E+02  0.00000000000E+00 0.  1.
        -13    1    3    3    0    0 -0.30003614235E+02  0.56165816380E+02 -0.14085617828E+01  0.63693012514E+02  0.00000000000E+00 0. -1.
         13    1    3    3    0    0  0.26016908122E+02 -0.22646304384E+02 -0.27866143759E+02  0.44342491794E+02  0.00000000000E+00 0.  1.
          4    1    1    2  501    0  0.17656019993E+02  0.18915058301E+02  0.21636630704E+02  0.33729190040E+02  0.00000000000E+00 0. -1.
<scales pt_clust_5="13000.00000" pt_clust_6="13000.00000" pt_clust_7="13000.00000" pt_clust_8="13000.00000" pt_clust_9="25.87498"></scales>
<clustering>
<clus scale="   25.875">  1  9  2 -1</clus>
<clus scale="   77.790">  5  6 -1 -1</clus>
<clus scale="   87.319">  1  5  2 -1</clus>
<clus scale="   98.363">  7  8 -1 -1</clus>
<clus scale="   25.875">  1  5  2 -1</clus>
</clustering>
</event>
<event>
 9    1  0.4067873E-005  0.1051123E+03  0.7546771E-02  0.1275809E+00
         -2   -1    0    0    0  501 -0.00000000000E+00  0.00000000000E+00  0.11332125470E+03  0.11332125470E+03  0.00000000000E+00 0.  1.
         21   -1    0    0  501  502  0.00000000000E+00 -0.00000000000E+00 -0.14132686308E+03  0.14132686308E+03  0.00000000000E+00 0. -1.
        -24    2    1    2    0    0 -0.45925949039E+02  0.23677463921E+02  0.23101529914E+02  0.96781076633E+02  0.78505292924E+02 0.  0.
         23    2    1    2    0    0  0.26050778347E+02 -0.52347325565E+02 -0.56499085451E+02  0.12256751606E+03  0.91715668188E+02 0.  0.
         13    1    3    3    0    0 -0.80936482516E+01 -0.20505108474E+02 -0.15519932474E+02  0.26959876104E+02  0.00000000000E+00 0. -1.
        -14    1    3    3    0    0 -0.37832300787E+02  0.44182572395E+02  0.38621462388E+02  0.69821200529E+02  0.00000000000E+00 0.  1.
        -13    1    4    4    0    0 -0.28285220322E+02 -0.16261307306E+02  0.48950792015E+01  0.32991598997E+02  0.00000000000E+00 0.  1.
         13    1    4    4    0    0  0.54335998670E+02 -0.36086018259E+02 -0.61394164652E+02  0.89575917068E+02  0.00000000000E+00 0. -1.
         -1    1    1    2    0  502  0.19875170691E+02  0.28669861644E+02  0.53919471635E+01  0.35299525080E+02  0.00000000000E+00 0.  1.
<scales pt_clust_5="13000.00000" pt_clust_6="13000.00000" pt_clust_7="13000.00000" pt_clust_8="13000.00000" pt_clust_9="34.88531"></scales>
<clustering>
<clus scale="   34.885">  2  9  1 -1</clus>
<clus scale="   78.505">  5  6 -1 -1</clus>
<clus scale="   91.716">  7  8 -1 -1</clus>
<clus scale="   93.808">  1  5  2 -1</clus>
<clus scale="   34.885">  2  5  1 -1</clus>
</clustering>
</event>
<event>
 9    1  0.1208249E-004  0.8405875E+02  0.7546771E-02  0.1320343E+00
         21   -1    0    0  501  502  0.00000000000E+00  0.00000000000E+00  0.42025282079E+03  0.42025282079E+03  0.00000000000E+00 0. -1.
          1   -1    0    0  502    0 -0.00000000000E+00 -0.00000000000E+00 -0.83167269394E+02  0.83167269394E+02  0.00000000000E+00 0. -1.
         23    2    1    2    0    0  0.25918873961E+02  0.55431802349E+01 -0.50629061906E+02  0.95949176967E+02  0.77074170620E+02 0.  0.
        -24    2    1    2    0    0  0.39131802072E+01  0.10579175975E+02  0.18861170597E+03  0.20550099087E+03  0.80802535076E+02 0.  0.
         11    1    4    4    0    0  0.15190770761E+02  0.42822971993E+02  0.84689039128E+02  0.96108271210E+02  0.00000000000E+00 0. -1.
        -12    1    4    4    0    0 -0.11277590553E+02 -0.32243796018E+02  0.10392266684E+03  0.10939271966E+03  0.00000000000E+00 0.  1.
        -13    1    3    3    0    0 -0.24396086067E+02 -0.11059517021E+02 -0.80275289019E+01  0.27962888842E+02  0.00000000000E+00 0.  1.
         13    1    3    3    0    0  0.50314960028E+02  0.16602697256E+02 -0.42601533004E+02  0.67986288125E+02  0.00000000000E+00 0. -1.
          2    1    1    2  501    0 -0.29832054168E+02 -0.16122356210E+02  0.19910290733E+03  0.20196992234E+03  0.00000000000E+00 0. -1.
<scales pt_clust_5="13000.00000" pt_clust_6="13000.00000" pt_clust_7="13000.00000" pt_clust_8="13000.00000" pt_clust_9="33.90991"></scales>
<clustering>
<clus scale="   33.910">  1  9  2 -1</clus>
<clus scale="   77.074">  7  8 -1 -1</clus>
<clus scale="   80.481">  2  7  1 -1</clus>
<clus scale="   80.803">  5  6 -1 -1</clus>
<clus scale="   33.910">  1  5  2 -1</clus>
</clustering>
</event>
<event>
 9    1  0.4067873E-005  0.1128641E+03  0.7546771E-02  0.1258566E+00
         -2   -1    0    0    0  501 -0.00000000000E+00  0.00000000000E+00  0.28136364154E+03  0.28136364154E+03  0.00000000000E+00 0.  1.
         21   -1    0    0  501  502  0.00000000000E+00 -0.00000000000E+00 -0.10652757242E+03  0.10652757242E+03  0.00000000000E+00 0.  1.
        -24    2    1    2    0    0 -0.45913286026E+02  0.43896577462E+02  0.18951339713E+02  0.10343441965E+03  0.79401426588E+02 0.  0.
         23    2    1    2    0    0  0.96059467289E+02  0.35029958508E+02  0.52419443081E+02  0.14499675326E+03  0.88440608294E+02 0.  0.
         11    1    3    3    0    0 -0.78009408426E+01  0.51779978861E+02  0.33185087244E+02  0.61994119916E+02  0.00000000000E+00 0. -1.
        -12    1    3    3    0    0 -0.38112345184E+02 -0.78834013985E+01 -0.14233747531E+02  0.41440299731E+02  0.00000000000E+00 0.  1.
        -13    1    4    4    0    0  0.28933322591E+02 -0.28715884367E+02  0.52515420624E+01  0.41101312207E+02  0.00000000000E+00 0. -1.
         13    1    4    4    0    0  0.67126144699E+02  0.63745842875E+02  0.47167901019E+02  0.10389544106E+03  0.00000000000E+00 0.  1.
         -1    1    1    2    0  502 -0.50146181263E+02 -0.78926535970E+02  0.10346528633E+03  0.13946004105E+03  0.00000000000E+00 0.  1.
<scales pt_clust_5="13000.00000" pt_clust_6="13000.00000" pt_clust_7="13000.00000" pt_clust_8="13000.00000" pt_clust_9="93.50961"></scales>
<clustering>
<clus scale="   79.401">  5  6 -1 -1</clus>
<clus scale="   88.441">  7  8 -1 -1</clus>
<clus scale="   93.510">  2  9  1 -1</clus>
<clus scale="  105.930">  1  5  2 -1</clus>
<clus scale="   93.510">  2  5  1 -1</clus>
</clustering>
</event>
<event>
 9    1  0.4067873E-005  0.8854284E+02  0.7546771E-02  0.1314016E+00
          1   -1    0    0  502    0 -0.00000000000E+00  0.00000000000E+00  0.34573633918E+02  0.34573633918E+02  0.00000000000E+00 0. -1.
         21   -1    0    0  501  502  0.00000000000E+00 -0.00000000000E+00 -0.39272296914E+03  0.39272296914E+03  0.00000000000E+00 0. -1.
         23    2    1    2    0    0 -0.11046501544E+02  0.18789385618E+02 -0.75059589330E+02  0.11789773408E+03  0.88265891155E+02 0.  0.
        -24    2    1    2    0    0 -0.59004696734E+01  0.22364306549E+02 -0.17568391318E+03  0.19313692718E+03  0.76824849746E+02 0.  0.
         11    1    4    4    0    0  0.27688266627E+02  0.12799352858E+02 -0.13970137460E+03  0.14299278865E+03  0.00000000000E+00 0. -1.
        -12    1    4    4    0    0 -0.33588736301E+02  0.95649536914E+01 -0.35982538589E+02  0.50144138528E+02  0.00000000000E+00 0.  1.
        -11    1    3    3    0    0 -0.46619681724E+02  0.24251408762E+02 -0.57354022643E+02  0.77788234742E+02  0.00000000000E+00 0. -1.
         11    1    3    3    0    0  0.35573180181E+02 -0.54620231437E+01 -0.17705566687E+02  0.40109499333E+02  0.00000000000E+00 0.  1.
          2    1    1    2  501    0  0.16946971217E+02 -0.41153692168E+02 -0.10740583271E+03  0.11626194180E+03  0.00000000000E+00 0. -1.
<scales pt_clust_5="13000.00000" pt_clust_6="13000.00000" pt_clust_7="13000.00000" pt_clust_8="13000.00000" pt_clust_9="44.50647"></scales>
<clustering>
<clus scale="   44.506">  2  9  1 -1</clus>
<clus scale="   76.825">  5  6 -1 -1</clus>
<clus scale="   77.143">  2  5  1 -1</clus>
<clus scale="   88.266">  7  8 -1 -1</clus>
<clus scale="   44.506">  2  5  1 -1</clus>
</clustering>
</event>
<event>
 9    1  0.4067873E-005  0.1087162E+03  0.7546771E-02  0.1269500E+00
         21   -1    0    0  501  502  0.00000000000E+00  0.00000000000E+00  0.72309770560E+02  0.72309770560E+02  0.00000000000E+00 0.  1.
          1   -1    0    0  502    0 -0.00000000000E+00 -0.00000000000E+00 -0.51019017381E+03  0.51019017381E+03  0.00000000000E+00 0. -1.
        -24    2    1    2    0    0  0.24061718677E+02 -0.37283930827E+01 -0.37550804583E+03  0.39094684208E+03  0.10602015669E+03 0.  0.
         23    2    1    2    0    0 -0.31124922270E+01  0.49852412124E+02 -0.85736641674E+02  0.13576614145E+03  0.92664571631E+02 0.  0.
         13    1    3    3    0    0  0.63777343371E+02  0.90283368356E+01 -0.18401458152E+03  0.19496262874E+03  0.00000000000E+00 0. -1.
        -14    1    3    3    0    0 -0.39715624694E+02 -0.12756729918E+02 -0.19149346431E+03  0.19598421333E+03  0.00000000000E+00 0.  1.
        -13    1    4    4    0    0 -0.12525138062E+02  0.68843056675E+02 -0.29995555883E+02  0.76131326723E+02  0.00000000000E+00 0.  1.
         13    1    4    4    0    0  0.94126458352E+01 -0.18990644551E+02 -0.55741085791E+02  0.59634814724E+02  0.00000000000E+00 0. -1.
          2    1    1    2  501    0 -0.20949226450E+02 -0.46124019041E+02  0.23364284257E+02  0.55786960844E+02  0.00000000000E+00 0. -1.
<scales pt_clust_5="13000.00000" pt_clust_6="13000.00000" pt_clust_7="13000.00000" pt_clust_8="13000.00000" pt_clust_9="50.65861"></scales>
<clustering>
<clus scale="   50.659">  1  9  2 -1</clus>
<clus scale="   92.665">  7  8 -1 -1</clus>
<clus scale="   95.738">  1  7  2 -1</clus>
<clus scale="  106.020">  5  6 -1 -1</clus>
<clus scale="   50.659">  1  5  2 -1</clus>
</clustering>
</event>
<event>
 9    1  0.4067873E-005  0.1679030E+03  0.7546771E-02  0.1181366E+00
         21   -1    0    0  501  502  0.00000000000E+00  0.00000000000E+00  0.90147783439E+02  0.90147783439E+02  0.00000000000E+00 0. -1.
          1   -1    0    0  502    0 -0.00000000000E+00 -0.00000000000E+00 -0.11187612923E+04  0.11187612923E+04  0.00000000000E+00 0. -1.
        -24    2    1    2    0    0  0.10397234409E+03  0.77140821648E+02 -0.88610296270E+03  0.90105751179E+03  0.99825970299E+02 0.  0.
         23    2    1    2    0    0 -0.15446778533E+03 -0.73657303223E+02 -0.16286032505E+03  0.25329848901E+03  0.91383499809E+02 0.  0.
         13    1    3    3    0    0 -0.15006647965E+02  0.33566849372E+02 -0.19618016732E+03  0.19959606938E+03  0.00000000000E+00 0. -1.
        -14    1    3    3    0    0  0.11897899206E+03  0.43573972277E+02 -0.68992279538E+03  0.70146144242E+03  0.00000000000E+00 0.  1.
        -11    1    4    4    0    0 -0.14779862461E+02  0.19599856425E+02 -0.11125886022E+02  0.26951512870E+02  0.00000000000E+00 0.  1.
         11    1    4    4    0    0 -0.13968792287E+03 -0.93257159648E+02 -0.15173443903E+03  0.22634697614E+03  0.00000000000E+00 0. -1.
          2    1    1    2  501    0  0.50495441235E+02 -0.34835184252E+01  0.20349778880E+02  0.54553074951E+02  0.00000000000E+00 0. -1.
<scales pt_clust_5="13000.00000" pt_clust_6="13000.00000" pt_clust_7="13000.00000" pt_clust_8="13000.00000" pt_clust_9="50.61546"></scales>
<clustering>
<clus scale="   50.615">  1  9  2 -1</clus>
<clus scale="   91.383">  7  8 -1 -1</clus>
<clus scale="   99.826">  5  6 -1 -1</clus>
<clus scale="  163.025">  1  7  2 -1</clus>
<clus scale="   50.615">  1  5  2 -1</clus>
</clustering>
</event>
<event>
 9    1  0.4067873E-005  0.2816955E+03  0.7546771E-02  0.1095380E+00
          1   -1    0    0  502    0 -0.00000000000E+00  0.00000000000E+00  0.12539925348E+04  0.12539925348E+04  0.00000000000E+00 0. -1.
         21   -1    0    0  501  502  0.00000000000E+00 -0.00000000000E+00 -0.11617843708E+03  0.11617843708E+03  0.00000000000E+00 0. -1.
         23    2    1    2    0    0 -0.24848703302E+03 -0.41877483935E+02  0.73794316256E+03  0.78517222586E+03  0.91846523352E+02 0.  0.
        -24    2    1    2    0    0  0.31770781259E+03  0.27593639821E+02  0.22899208059E+03  0.40007950023E+03  0.76984221671E+02 0.  0.
         11    1    4    4    0    0  0.20713405165E+03  0.62577650761E+01  0.10407519731E+03  0.23189506608E+03  0.00000000000E+00 0. -1.
        -12    1    4    4    0    0  0.11057376094E+03  0.21335874745E+02  0.12491688329E+03  0.16818443415E+03  0.00000000000E+00 0.  1.
        -11    1    3    3    0    0 -0.21697619178E+03 -0.47695247001E+02  0.70517311419E+03  0.73933931680E+03  0.00000000000E+00 0. -1.
         11    1    3    3    0    0 -0.31510841243E+02  0.58177630662E+01  0.32770048368E+02  0.45832909061E+02  0.00000000000E+00 0.  1.
          2    1    1    2  501    0 -0.69220779570E+02  0.14283844113E+02  0.17087885460E+03  0.18491924582E+03  0.00000000000E+00 0. -1.
<scales pt_clust_5="13000.00000" pt_clust_6="13000.00000" pt_clust_7="13000.00000" pt_clust_8="13000.00000" pt_clust_9="70.67920"></scales>
<clustering>
<clus scale="   70.679">  2  9  1 -1</clus>
<clus scale="   76.984">  5  6 -1 -1</clus>
<clus scale="   91.847">  7  8 -1 -1</clus>
<clus scale="  277.206">  2  5  1 -1</clus>
<clus scale="   70.679">  2  5  1 -1</clus>
</clustering>
</event>
<event>
 9    1  0.4067873E-005  0.1680081E+03  0.7546771E-02  0.1199255E+00
         -2   -1    0    0    0  501 -0.00000000000E+00  0.00000000000E+00  0.67158132765E+03  0.67158132765E+03  0.00000000000E+00 0.  1.
         21   -1    0    0  501  502  0.00000000000E+00 -0.00000000000E+00 -0.11914570574E+03  0.11914570574E+03  0.00000000000E+00 0. -1.
        -24    2    1    2    0    0 -0.73752014247E+02  0.22954404355E+01  0.65503365959E+02  0.12769486835E+03  0.81059606460E+02 0.  0.
         23    2    1    2    0    0 -0.93133194211E+02 -0.93209169497E+02  0.24206810121E+02  0.16280140113E+03  0.92501813019E+02 0.  0.
         11    1    3    3    0    0 -0.10234766557E+02  0.35910271590E+02  0.17237258066E+02  0.41126890446E+02  0.00000000000E+00 0. -1.
        -12    1    3    3    0    0 -0.63517247690E+02 -0.33614831155E+02  0.48266107893E+02  0.86567977906E+02  0.00000000000E+00 0.  1.
        -13    1    4    4    0    0 -0.52848817293E+02 -0.32981977277E+01 -0.17564806357E+02  0.55788870036E+02  0.00000000000E+00 0.  1.
         13    1    4    4    0    0 -0.40284376918E+02 -0.89910971769E+02  0.41771616478E+02  0.10701253109E+03  0.00000000000E+00 0. -1.
         -1    1    1    2    0  502  0.16688520846E+03  0.90913729061E+02  0.46272544583E+03  0.50023076390E+03  0.00000000000E+00 0.  1.
<scales pt_clust_5="13000.00000" pt_clust_6="13000.00000" pt_clust_7="13000.00000" pt_clust_8="13000.00000" pt_clust_9="140.25037"></scales>
<clustering>
<clus scale="   81.060">  5  6 -1 -1</clus>
<clus scale="   92.502">  7  8 -1 -1</clus>
<clus scale="  109.614">  1  5  2 -1</clus>
<clus scale="  140.250">  2  9  1 -1</clus>
<clus scale="  140.250">  2  5  1 -1</clus>
</clustering>
</event>
<event>
 9    1  0.4067873E-005  0.1387568E+03  0.7546771E-02  0.1218126E+00
         21   -1    0    0  501  502  0.00000000000E+00  0.00000000000E+00  0.16227519462E+03  0.16227519462E+03  0.00000000000E+00 0. -1.
         -2   -1    0    0    0  501 -0.00000000000E+00 -0.00000000000E+00 -0.28668816796E+03  0.28668816796E+03  0.00000000000E+00 0.  1.
        -24    2    1    2    0    0 -0.97507224752E+02 -0.44209680690E+02 -0.22933440027E+03  0.26466579683E+03  0.77405181502E+02 0.  0.
         23    2    1    2    0    0  0.84082179617E+02  0.23777114551E+02  0.81723840964E+02  0.15059519802E+03  0.91460173731E+02 0.  0.
         11    1    3    3    0    0  0.51116820497E+01 -0.27339144051E+02 -0.41375061395E+02  0.49854325753E+02  0.00000000000E+00 0. -1.
        -12    1    3    3    0    0 -0.10261890680E+03 -0.16870536639E+02 -0.18795933887E+03  0.21481147108E+03  0.00000000000E+00 0.  1.
        -13    1    4    4    0    0  0.47441228662E+02  0.50292017968E+01  0.95861073598E+02  0.10707618073E+03  0.00000000000E+00 0. -1.
         13    1    4    4    0    0  0.36640950955E+02  0.18747912754E+02 -0.14137232634E+02  0.43519017292E+02  0.00000000000E+00 0.  1.
         -1    1    1    2    0  502  0.13425045134E+02  0.20432566140E+02  0.23197585958E+02  0.33702367724E+02  0.00000000000E+00 0.  1.
<scales pt_clust_5="13000.00000" pt_clust_6="13000.00000" pt_clust_7="13000.00000" pt_clust_8="13000.00000" pt_clust_9="24.44835"></scales>
<clustering>
<clus scale="   24.448">  1  9  2 -1</clus>
<clus scale="   77.405">  5  6 -1 -1</clus>
<clus scale="   91.460">  7  8 -1 -1</clus>
<clus scale="  129.923">  2  5  1 -1</clus>
<clus scale="   24.448">  1  5  2 -1</clus>
</clustering>
</event>
<event>
 9    1  0.4067873E-005  0.9200723E+02  0.7546771E-02  0.1299389E+00
         21   -1    0    0  501  502  0.00000000000E+00  0.00000000000E+00  0.69013767310E+02  0.69013767310E+02  0.00000000000E+00 0. -1.
          1   -1    0    0  502    0 -0.00000000000E+00 -0.00000000000E+00 -0.46901323000E+03  0.46901323000E+03  0.00000000000E+00 0. -1.
         23    2    1    2    0    0 -0.11227269043E+01 -0.41826610284E+00 -0.21379874509E+03  0.23223396474E+03  0.90671249667E+02 0.  0.
        -24    2    1    2    0    0  0.63342440533E+02  0.65142817056E+02 -0.31376603448E+02  0.12682078169E+03  0.82723443099E+02 0.  0.
         13    1    4    4    0    0  0.41532275043E+02  0.85558345584E+01  0.20421945849E+02  0.47065784254E+02  0.00000000000E+00 0. -1.
        -14    1    4    4    0    0  0.21810165490E+02  0.56586982498E+02 -0.51798549296E+02  0.79754997437E+02  0.00000000000E+00 0.  1.
        -13    1    3    3    0    0  0.14685828023E+02  0.32372815323E+02 -0.17676701562E+03  0.18030599138E+03  0.00000000000E+00 0. -1.
         13    1    3    3    0    0 -0.15808554927E+02 -0.32791081425E+02 -0.37031729466E+02  0.51927973359E+02  0.00000000000E+00 0.  1.
          2    1    1    2  501    0 -0.62219713629E+02 -0.64724550953E+02 -0.15482411416E+03  0.17897225088E+03  0.00000000000E+00 0. -1.
<scales pt_clust_5="13000.00000" pt_clust_6="13000.00000" pt_clust_7="13000.00000" pt_clust_8="13000.00000" pt_clust_9="89.78067"></scales>
<clustering>
<clus scale="   82.723">  5  6 -1 -1</clus>
<clus scale="   89.781">  1  9  2 -1</clus>
<clus scale="   89.781">  1  5  2 -1</clus>
<clus scale="   90.671">  7  8 -1 -1</clus>
<clus scale="   89.781">  1  5  2 -1</clus>
</clustering>
</event>
<event>
 9    1  0.4067873E-005  0.2396327E+03  0.7546771E-02  0.1159279E+00
         -2   -1    0    0    0  501 -0.00000000000E+00  0.00000000000E+00  0.28033230712E+03  0.28033230712E+03  0.00000000000E+00 0.  1.
         21   -1    0    0  501  502  0.00000000000E+00 -0.00000000000E+00 -0.71504176475E+03  0.71504176475E+03  0.00000000000E+00 0. -1.
        -24    2    1    2    0    0 -0.39656323392E+02 -0.25248001750E+02  0.18499167941E+03  0.20701591134E+03  0.80147242728E+02 0.  0.
         23    2    1    2    0    0 -0.10619407637E+03  0.19520397609E+03 -0.43986330593E+03  0.50113173796E+03  0.90947879306E+02 0.  0.
         13    1    3    3    0    0  0.16338547036E+02  0.14913426657E+02  0.64801961213E+02  0.68473736505E+02  0.00000000000E+00 0. -1.
        -14    1    3    3    0    0 -0.55994870428E+02 -0.40161428407E+02  0.12018971820E+03  0.13854217483E+03  0.00000000000E+00 0.  1.
        -11    1    4    4    0    0 -0.12004588378E+03  0.14705851158E+03 -0.35566937409E+03  0.40315992324E+03  0.00000000000E+00 0. -1.
         11    1    4    4    0    0  0.13851807407E+02  0.48145464510E+02 -0.84193931841E+02  0.97971814723E+02  0.00000000000E+00 0.  1.
         -1    1    1    2    0  502  0.14585039976E+03 -0.16995597434E+03 -0.17983783111E+03  0.28722642257E+03  0.00000000000E+00 0.  1.
<scales pt_clust_5="13000.00000" pt_clust_6="13000.00000" pt_clust_7="13000.00000" pt_clust_8="13000.00000" pt_clust_9="221.70334"></scales>
<clustering>
<clus scale="   80.147">  5  6 -1 -1</clus>
<clus scale="   90.948">  7  8 -1 -1</clus>
<clus scale="   92.918">  1  5  2 -1</clus>
<clus scale="  221.703">  2  9  1 -1</clus>
<clus scale="  221.703">  2  5  1 -1</clus>
</clustering>
</event>
<event>
 9    1  0.4067873E-005  0.1089907E+03  0.7546771E-02  0.1266838E+00
         21   -1    0    0  501  502  0.00000000000E+00  0.00000000000E+00  0.86022854651E+02  0.86022854651E+02  0.00000000000E+00 0. -1.
          1   -1    0    0  502    0 -0.00000000000E+00 -0.00000000000E+00 -0.27209936991E+03  0.27209936991E+03  0.00000000000E+00 0. -1.
        -24    2    1    2    0    0 -0.40165073632E+02  0.27871203580E+02 -0.50658569755E+02  0.10670992186E+03  0.80191518279E+02 0.  0.
         23    2    1    2    0    0  0.32915440324E+02 -0.81001716421E+02 -0.25084854242E+02  0.12873875378E+03  0.91102758128E+02 0.  0.
         11    1    3    3    0    0 -0.36381500611E+02 -0.26696777420E+01  0.10742686666E+02  0.38028227447E+02  0.00000000000E+00 0. -1.
        -12    1    3    3    0    0 -0.37835730210E+01  0.30540881322E+02 -0.61401256421E+02  0.68681694408E+02  0.00000000000E+00 0.  1.
        -13    1    4    4    0    0 -0.29288574591E+02 -0.18450202952E+02  0.61478455161E+01  0.35157169895E+02  0.00000000000E+00 0.  1.
         13    1    4    4    0    0  0.62204014915E+02 -0.62551513469E+02 -0.31232699758E+02  0.93581583888E+02  0.00000000000E+00 0. -1.
          2    1    1    2  501    0  0.72496333084E+01  0.53130512841E+02 -0.11033309126E+03  0.12267354892E+03  0.00000000000E+00 0. -1.
<scales pt_clust_5="13000.00000" pt_clust_6="13000.00000" pt_clust_7="13000.00000" pt_clust_8="13000.00000" pt_clust_9="53.62286"></scales>
<clustering>
<clus scale="   53.623">  1  9  2 -1</clus>
<clus scale="   80.192">  5  6 -1 -1</clus>
<clus scale="   91.103">  7  8 -1 -1</clus>
<clus scale="  100.050">  2  5  1 -1</clus>
<clus scale="   53.623">  1  5  2 -1</clus>
</clustering>
</event>
<event>
 9    1  0.4067873E-005  0.1427583E+03  0.7546771E-02  0.1215317E+00
         -2   -1    0    0    0  501 -0.00000000000E+00  0.00000000000E+00  0.36686337414E+03  0.36686337414E+03  0.00000000000E+00 0.  1.
         21   -1    0    0  501  502  0.00000000000E+00 -0.00000000000E+00 -0.61433692963E+02  0.61433692963E+02  0.00000000000E+00 0. -1.
        -24    2    1    2    0    0  0.42388494929E+02  0.83569298613E+02  0.12472265970E+03  0.17575436590E+03  0.80952103832E+02 0.  0.
         23    2    1    2    0    0 -0.70378643615E+02 -0.75877213686E+02  0.15664707577E+03  0.21483994824E+03  0.10443846025E+03 0.  0.
         13    1    3    3    0    0  0.91963412072E+01  0.41515791982E+02  0.28400514075E+01  0.42616892983E+02  0.00000000000E+00 0. -1.
        -14    1    3    3    0    0  0.33192153722E+02  0.42053506631E+02  0.12188260830E+03  0.13313747291E+03  0.00000000000E+00 0.  1.
        -11    1    4    4    0    0 -0.53375541409E+02  0.69143140910E+01  0.27357840662E+02  0.60375554703E+02  0.00000000000E+00 0. -1.
         11    1    4    4    0    0 -0.17003102206E+02 -0.82791527777E+02  0.12928923511E+03  0.15446439354E+03  0.00000000000E+00 0.  1.
         -1    1    1    2    0  502  0.27990148685E+02 -0.76920849267E+01  0.24059945706E+02  0.37702752968E+02  0.00000000000E+00 0.  1.
<scales pt_clust_5="13000.00000" pt_clust_6="13000.00000" pt_clust_7="13000.00000" pt_clust_8="13000.00000" pt_clust_9="29.02786"></scales>
<clustering>
<clus scale="   29.028">  2  9  1 -1</clus>
<clus scale="   80.952">  5  6 -1 -1</clus>
<clus scale="  104.438">  7  8 -1 -1</clus>
<clus scale="  126.593">  1  5  2 -1</clus>
<clus scale="   29.028">  2  5  1 -1</clus>
</clustering>
</event>
<event>
 9    1  0.4067873E-005  0.1486270E+03  0.7546771E-02  0.1204402E+00
         21   -1    0    0  501  502  0.00000000000E+00  0.00000000000E+00  0.12422782680E+03  0.12422782680E+03  0.00000000000E+00 0.  1.
          1   -1    0    0  502    0 -0.00000000000E+00 -0.00000000000E+00 -0.79359799992E+03  0.79359799992E+03  0.00000000000E+00 0. -1.
        -24    2    1    2    0    0 -0.87687941371E+02 -0.74667021635E+02 -0.69836818194E+03  0.71234522146E+03  0.80332171738E+02 0.  0.
         23    2    1    2    0    0  0.10721699306E+03  0.90183562318E+02  0.47683839608E+02  0.17431480402E+03  0.92105069497E+02 0.  0.
         13    1    3    3    0    0 -0.71269139599E+02 -0.89232286429E+02 -0.63733465981E+03  0.64748525836E+03  0.00000000000E+00 0. -1.
        -14    1    3    3    0    0 -0.16418801773E+02  0.14565264794E+02 -0.61033522127E+02  0.64859963101E+02  0.00000000000E+00 0.  1.
        -11    1    4    4    0    0  0.97791708015E+02  0.10812520089E+03  0.49510127503E+02  0.15396600257E+03  0.00000000000E+00 0.  1.
         11    1    4    4    0    0  0.94252850396E+01 -0.17941638569E+02 -0.18262878950E+01  0.20348801441E+02  0.00000000000E+00 0. -1.
          2    1    1    2  501    0 -0.19529051684E+02 -0.15516540682E+02 -0.18685830791E+02  0.31165801237E+02  0.00000000000E+00 0. -1.
<scales pt_clust_5="13000.00000" pt_clust_6="13000.00000" pt_clust_7="13000.00000" pt_clust_8="13000.00000" pt_clust_9="24.94287"></scales>
<clustering>
<clus scale="   24.943">  1  9  2 -1</clus>
<clus scale="   80.332">  5  6 -1 -1</clus>
<clus scale="   92.105">  7  8 -1 -1</clus>
<clus scale="  141.633">  2  5  1 -1</clus>
<clus scale="   24.943">  1  5  2 -1</clus>
</clustering>
</event>
<event>
 9    1  0.4067873E-005  0.9768327E+02  0.7546771E-02  0.1287764E+00
          1   -1    0    0  502    0 -0.00000000000E+00  0.00000000000E+00  0.45201855500E+03  0.45201855500E+03  0.00000000000E+00 0. -1.
         21   -1    0    0  501  502  0.00000000000E+00 -0.00000000000E+00 -0.35081766574E+02  0.35081766574E+02  0.00000000000E+00 0. -1.
        -24    2    1    2    0    0 -0.10293277761E+02 -0.46429942626E+02  0.19470345738E+03  0.21822925213E+03  0.86330058670E+02 0.  0.
         23    2    1    2    0    0  0.36479690354E+01  0.11875241666E+02  0.78732861250E+02  0.12111934418E+03  0.91195959623E+02 0.  0.
         13    1    3    3    0    0 -0.26899820865E+02 -0.59488573434E+02  0.88676914565E+02  0.11011850847E+03  0.00000000000E+00 0. -1.
        -14    1    3    3    0    0  0.16606543104E+02  0.13058630808E+02  0.10602654282E+03  0.10811074366E+03  0.00000000000E+00 0.  1.
        -11    1    4    4    0    0 -0.20927288941E+02 -0.25983446354E+02  0.66429570725E+02  0.74336927389E+02  0.00000000000E+00 0.  1.
         11    1    4    4    0    0  0.24575257976E+02  0.37858688020E+02  0.12303290525E+02  0.46782416793E+02  0.00000000000E+00 0. -1.
          2    1    1    2  501    0  0.66453087257E+01  0.34554700960E+02  0.14350046979E+03  0.14775172526E+03  0.00000000000E+00 0. -1.
<scales pt_clust_5="13000.00000" pt_clust_6="13000.00000" pt_clust_7="13000.00000" pt_clust_8="13000.00000" pt_clust_9="35.18791"></scales>
<clustering>
<clus scale="   35.188">  2  9  1 -1</clus>
<clus scale="   86.330">  5  6 -1 -1</clus>
<clus scale="   91.196">  7  8 -1 -1</clus>
<clus scale="   93.157">  1  5  2 -1</clus>
<clus scale="   35.188">  2  5  1 -1</clus>
</clustering>
</event>
<event>
 9    1  0.4067873E-005  0.9225569E+02  0.7546771E-02  0.1302874E+00
         21   -1    0    0  501  502  0.00000000000E+00  0.00000000000E+00  0.57161229157E+03  0.57161229157E+03  0.00000000000E+00 0.  1.
         -2   -1    0    0    0  501 -0.00000000000E+00 -0.00000000000E+00 -0.93836110732E+02  0.93836110732E+02  0.00000000000E+00 0.  1.
        -24    2    1    2    0    0 -0.33040943517E+01  0.16275892953E+02 -0.59430156962E+02  0.10299238904E+03  0.82460092847E+02 0.  0.
         23    2    1    2    0    0  0.36667529118E+01  0.46274840465E+02  0.37069788889E+03  0.38458586588E+03  0.91293797543E+02 0.  0.
         13    1    3    3    0    0  0.90123008414E+01 -0.19155832402E+02  0.10504395863E+02  0.23632812231E+02  0.00000000000E+00 0. -1.
        -14    1    3    3    0    0 -0.12316395193E+02  0.35431725355E+02 -0.69934552825E+02  0.79359576807E+02  0.00000000000E+00 0.  1.
        -13    1    4    4    0    0  0.39476308610E+02  0.47032851656E+02  0.28785746186E+03  0.29433380103E+03  0.00000000000E+00 0.  1.
         13    1    4    4    0    0 -0.35809555698E+02 -0.75801119095E+00  0.82840427027E+02  0.90252064853E+02  0.00000000000E+00 0. -1.
         -1    1    1    2    0  502 -0.36265856011E+00 -0.62550733418E+02  0.16650844891E+03  0.17787014738E+03  0.00000000000E+00 0.  1.
<scales pt_clust_5="13000.00000" pt_clust_6="13000.00000" pt_clust_7="13000.00000" pt_clust_8="13000.00000" pt_clust_9="62.55178"></scales>
<clustering>
<clus scale="   62.552">  1  9  2 -1</clus>
<clus scale="   82.460">  5  6 -1 -1</clus>
<clus scale="   83.524">  2  5  1 -1</clus>
<clus scale="   91.294">  7  8 -1 -1</clus>
<clus scale="   62.552">  1  5  2 -1</clus>
</clustering>
</event>
<event>
 9    1  0.4067873E-005  0.1219493E+03  0.7546771E-02  0.1256104E+00
         21   -1    0    0  501  502  0.00000000000E+00  0.00000000000E+00  0.80511455248E+02  0.80511455248E+02  0.00000000000E+00 0. -1.
          1   -1    0    0  502    0 -0.00000000000E+00 -0.00000000000E+00 -0.47635906710E+03  0.47635906710E+03  0.00000000000E+00 0. -1.
         23    2    1    2    0    0 -0.69098483110E+02 -0.27148822487E+02 -0.30408800921E+03  0.33224336059E+03  0.11137537601E+03 0.  0.
        -24    2    1    2    0    0  0.24525928865E+02 -0.48910020451E+02 -0.10106024167E+03  0.13598088678E+03  0.72690562220E+02 0.  0.
         13    1    4    4    0    0 -0.15824270453E+02 -0.12568691037E+02  0.11496989554E+01  0.20241080442E+02  0.00000000000E+00 0. -1.
        -14    1    4    4    0    0  0.40350199318E+02 -0.36341329415E+02 -0.10220994062E+03  0.11573980634E+03  0.00000000000E+00 0.  1.
        -13    1    3    3    0    0 -0.26566340830E+02  0.37274781317E+02 -0.55476797352E+02  0.71922561354E+02  0.00000000000E+00 0.  1.
         13    1    3    3    0    0 -0.42532142280E+02 -0.64423603804E+02 -0.24861121186E+03  0.26032079924E+03  0.00000000000E+00 0. -1.
          2    1    1    2  501    0  0.44572554245E+02  0.76058842938E+02  0.93006390258E+01  0.88646274977E+02  0.00000000000E+00 0. -1.
<scales pt_clust_5="13000.00000" pt_clust_6="13000.00000" pt_clust_7="13000.00000" pt_clust_8="13000.00000" pt_clust_9="88.15702"></scales>
<clustering>
<clus scale="   72.691">  5  6 -1 -1</clus>
<clus scale="   88.157">  1  9  2 -1</clus>
<clus scale="   88.157">  1  5  2 -1</clus>
<clus scale="  111.375">  7  8 -1 -1</clus>
<clus scale="   88.157">  1  5  2 -1</clus>
</clustering>
</event>
<event>
 9    1  0.4067873E-005  0.1321358E+03  0.7546771E-02  0.1226480E+00
         21   -1    0    0  501  502  0.00000000000E+00  0.00000000000E+00  0.16997368682E+03  0.16997368682E+03  0.00000000000E+00 0.  1.
          3   -1    0    0  502    0 -0.00000000000E+00 -0.00000000000E+00 -0.24849105198E+03  0.24849105198E+03  0.00000000000E+00 0. -1.
        -24    2    1    2    0    0  0.94461001350E+02  0.11106471148E-02 -0.11315773299E+03  0.16774147018E+03  0.80060274195E+02 0.  0.
         23    2    1    2    0    0 -0.10078610757E+03  0.87154175524E+02  0.31600284108E+02  0.16328590256E+03  0.88938283254E+02 0.  0.
         13    1    3    3    0    0  0.99870705495E+02  0.17362234500E+02 -0.10945394112E+03  0.14918367951E+03  0.00000000000E+00 0. -1.
        -14    1    3    3    0    0 -0.54097041459E+01 -0.17361123853E+02 -0.37037918655E+01  0.18557790671E+02  0.00000000000E+00 0.  1.
        -13    1    4    4    0    0 -0.86257016550E+02  0.10582102843E+03  0.25973633193E+02  0.13897119335E+03  0.00000000000E+00 0.  1.
         13    1    4    4    0    0 -0.14529091018E+02 -0.18666852902E+02  0.56266509158E+01  0.24314709203E+02  0.00000000000E+00 0. -1.
          4    1    1    2  501    0  0.63251062187E+01 -0.87155286171E+02  0.30400837145E+01  0.87437366069E+02  0.00000000000E+00 0. -1.
<scales pt_clust_5="13000.00000" pt_clust_6="13000.00000" pt_clust_7="13000.00000" pt_clust_8="13000.00000" pt_clust_9="87.38450"></scales>
<clustering>
<clus scale="   80.060">  5  6 -1 -1</clus>
<clus scale="   87.385">  1  9  2 -1</clus>
<clus scale="   88.938">  7  8 -1 -1</clus>
<clus scale="  126.331">  2  5  1 -1</clus>
<clus scale="   87.385">  1  5  2 -1</clus>
</clustering>
</event>
<event>
 9    1  0.4067873E-005  0.1089696E+03  0.7546771E-02  0.1266669E+00
         21   -1    0    0  501  502  0.00000000000E+00  0.00000000000E+00  0.40530772784E+03  0.40530772784E+03  0.00000000000E+00 0.  1.
         -4   -1    0    0    0  501 -0.00000000000E+00 -0.00000000000E+00 -0.45880077135E+02  0.45880077135E+02  0.00000000000E+00 0.  1.
        -24    2    1    2    0    0 -0.76153992313E+02 -0.14882126229E-01  0.12597633791E+03  0.16754810950E+03  0.80018126166E+02 0.  0.
         23    2    1    2    0    0  0.35719000327E+02  0.27594310098E+02  0.20072818675E+03  0.22476341501E+03  0.90495827727E+02 0.  0.
         11    1    3    3    0    0 -0.59806033515E+02 -0.35470018228E+02  0.94901458132E+02  0.11764850442E+03  0.00000000000E+00 0. -1.
        -12    1    3    3    0    0 -0.16347958797E+02  0.35455136102E+02  0.31074879781E+02  0.49899605071E+02  0.00000000000E+00 0.  1.
        -11    1    4    4    0    0  0.55955971854E+02  0.34518767032E+02  0.18955242212E+03  0.20063084707E+03  0.00000000000E+00 0.  1.
         11    1    4    4    0    0 -0.20236971527E+02 -0.69244569338E+01  0.11175764634E+02  0.24132567944E+02  0.00000000000E+00 0. -1.
         -3    1    1    2    0  502  0.40434991985E+02 -0.27579427972E+02  0.32723126041E+02  0.58876280470E+02  0.00000000000E+00 0.  1.
<scales pt_clust_5="13000.00000" pt_clust_6="13000.00000" pt_clust_7="13000.00000" pt_clust_8="13000.00000" pt_clust_9="48.94503"></scales>
<clustering>
<clus scale="   48.945">  1  9  2 -1</clus>
<clus scale="   80.018">  5  6 -1 -1</clus>
<clus scale="   90.496">  7  8 -1 -1</clus>
<clus scale="  100.438">  2  5  1 -1</clus>
<clus scale="   48.945">  1  5  2 -1</clus>
</clustering>
</event>
<event>
 9    1  0.5052377E-005  0.8464800E+02  0.7546771E-02  0.1316905E+00
          1   -1    0    0  502    0 -0.00000000000E+00  0.00000000000E+00  0.34495815909E+03  0.34495815909E+03  0.00000000000E+00 0. -1.
         21   -1    0    0  501  502  0.00000000000E+00 -0.00000000000E+00 -0.11705283659E+03  0.11705283659E+03  0.00000000000E+00 0.  1.
         23    2    1    2    0    0  0.11889740578E+02 -0.19619194144E+01  0.11479391725E+03  0.14239573453E+03  0.83388768538E+02 0.  0.
        -24    2    1    2    0    0 -0.20523450288E+02  0.41200901738E+02 -0.79103396003E+02  0.12324630101E+03  0.82544394956E+02 0.  0.
         13    1    4    4    0    0 -0.28453123801E+02 -0.18506525950E+02 -0.33583110504E+02  0.47748267695E+02  0.00000000000E+00 0. -1.
        -14    1    4    4    0    0  0.79296735123E+01  0.59707427688E+02 -0.45520285500E+02  0.75498033320E+02  0.00000000000E+00 0.  1.
        -11    1    3    3    0    0  0.38723647670E+02  0.20664827869E+02  0.87644455254E+02  0.98020949478E+02  0.00000000000E+00 0. -1.
         11    1    3    3    0    0 -0.26833907092E+02 -0.22626747283E+02  0.27149461992E+02  0.44374785057E+02  0.00000000000E+00 0.  1.
          2    1    1    2  501    0  0.86337097104E+01 -0.39238982324E+02  0.19221480126E+03  0.19636896013E+03  0.00000000000E+00 0. -1.
<scales pt_clust_5="13000.00000" pt_clust_6="13000.00000" pt_clust_7="13000.00000" pt_clust_8="13000.00000" pt_clust_9="40.17761"></scales>
<clustering>
<clus scale="   40.178">  2  9  1 -1</clus>
<clus scale="   82.544">  5  6 -1 -1</clus>
<clus scale="   83.389">  7  8 -1 -1</clus>
<clus scale="   83.816">  2  5  1 -1</clus>
<clus scale="   40.178">  2  5  1 -1</clus>
</clustering>
</event>
<event>
 9    1  0.4067873E-005  0.9690297E+02  0.7546771E-02  0.1293418E+00
          1   -1    0    0  502    0 -0.00000000000E+00  0.00000000000E+00  0.94661591748E+03  0.94661591748E+03  0.00000000000E+00 0. -1.
         21   -1    0    0  501  502  0.00000000000E+00 -0.00000000000E+00 -0.13234769320E+02  0.13234769320E+02  0.00000000000E+00 0.  1.
        -24    2    1    2    0    0  0.35361519961E+02  0.20936801596E+01  0.40747033117E+03  0.41663657680E+03  0.79367157880E+02 0.  0.
         23    2    1    2    0    0 -0.23317766347E+02  0.32140215287E+02  0.39919035619E+03  0.41139951755E+03  0.91213545590E+02 0.  0.
         13    1    3    3    0    0  0.50632034472E+02  0.24919108513E+02  0.21796701855E+03  0.22515369430E+03  0.00000000000E+00 0. -1.
        -14    1    3    3    0    0 -0.15270514511E+02 -0.22825428353E+02  0.18950331262E+03  0.19148288249E+03  0.00000000000E+00 0.  1.
        -11    1    4    4    0    0 -0.47738962511E+02 -0.49322552785E+01  0.28254482540E+03  0.28659189459E+03  0.00000000000E+00 0. -1.
         11    1    4    4    0    0  0.24421196164E+02  0.37072470566E+02  0.11664553079E+03  0.12480762296E+03  0.00000000000E+00 0.  1.
          2    1    1    2  501    0 -0.12043753614E+02 -0.34233895447E+02  0.12672046080E+03  0.13181459245E+03  0.00000000000E+00 0. -1.
<scales pt_clust_5="13000.00000" pt_clust_6="13000.00000" pt_clust_7="13000.00000" pt_clust_8="13000.00000" pt_clust_9="36.29065"></scales>
<clustering>
<clus scale="   36.291">  2  9  1 -1</clus>
<clus scale="   79.367">  5  6 -1 -1</clus>
<clus scale="   85.845">  1  5  2 -1</clus>
<clus scale="   91.214">  7  8 -1 -1</clus>
<clus scale="   36.291">  2  5  1 -1</clus>
</clustering>
</event>
<event>
 9    1  0.4067873E-005  0.1845426E+03  0.7546771E-02  0.1164276E+00
         21   -1    0    0  501  502  0.00000000000E+00  0.00000000000E+00  0.24082235338E+03  0.24082235338E+03  0.00000000000E+00 0. -1.
          1   -1    0    0  502    0 -0.00000000000E+00 -0.00000000000E+00 -0.29102286811E+03  0.29102286811E+03  0.00000000000E+00 0. -1.
         23    2    1    2    0    0 -0.20046992044E+02 -0.18358193285E+03 -0.17359784833E+03  0.26843323030E+03  0.88408021264E+02 0.  0.
        -24    2    1    2    0    0 -0.18589343965E+02  0.94490439268E+02  0.77775443471E+02  0.15612071686E+03  0.95134913691E+02 0.  0.
         11    1    4    4    0    0 -0.35448338902E+02  0.33752725240E+02  0.79160949648E+02  0.93071408828E+02  0.00000000000E+00 0. -1.
        -12    1    4    4    0    0  0.16858994937E+02  0.60737714029E+02 -0.13855061767E+01  0.63049308030E+02  0.00000000000E+00 0.  1.
        -13    1    3    3    0    0  0.25727853490E+02 -0.59745208033E+02 -0.25081065138E+02  0.69717086547E+02  0.00000000000E+00 0.  1.
         13    1    3    3    0    0 -0.45774845533E+02 -0.12383672482E+03 -0.14851678319E+03  0.19871614375E+03  0.00000000000E+00 0. -1.
          2    1    1    2  501    0  0.38636336009E+02  0.89091493581E+02  0.45621890139E+02  0.10729127434E+03  0.00000000000E+00 0. -1.
<scales pt_clust_5="13000.00000" pt_clust_6="13000.00000" pt_clust_7="13000.00000" pt_clust_8="13000.00000" pt_clust_9="97.10850"></scales>
<clustering>
<clus scale="   88.408">  7  8 -1 -1</clus>
<clus scale="   95.135">  5  6 -1 -1</clus>
<clus scale="   97.108">  1  9  2 -1</clus>
<clus scale="  181.167">  2  7  1 -1</clus>
<clus scale="   97.108">  1  5  2 -1</clus>
</clustering>
</event>
<event>
 9    1  0.4067873E-005  0.1037137E+03  0.7546771E-02  0.1276261E+00
         21   -1    0    0  501  502  0.00000000000E+00  0.00000000000E+00  0.96422080027E+02  0.96422080027E+02  0.00000000000E+00 0. -1.
          1   -1    0    0  502    0 -0.00000000000E+00 -0.00000000000E+00 -0.26668644142E+03  0.26668644142E+03  0.00000000000E+00 0. -1.
        -24    2    1    2    0    0 -0.80570373639E+02 -0.11075622626E+02 -0.10750255785E+03  0.15741585514E+03  0.81293892632E+02 0.  0.
         23    2    1    2    0    0  0.28818182675E+01 -0.42190672024E+02 -0.14832801356E+02  0.10000445016E+03  0.89400896940E+02 0.  0.
         13    1    3    3    0    0 -0.84353183131E+02  0.15697431604E+02 -0.93729228837E+02  0.12707099276E+03  0.00000000000E+00 0. -1.
        -14    1    3    3    0    0  0.37828094923E+01 -0.26773054230E+02 -0.13773329016E+02  0.30344862376E+02  0.00000000000E+00 0.  1.
        -13    1    4    4    0    0  0.20393262888E+02 -0.57028336954E+02 -0.34566766219E+02  0.69735053694E+02  0.00000000000E+00 0. -1.
         13    1    4    4    0    0 -0.17511444620E+02  0.14837664930E+02  0.19733964864E+02  0.30269396467E+02  0.00000000000E+00 0.  1.
          2    1    1    2  501    0  0.77688555371E+02  0.53266294650E+02 -0.47929002181E+02  0.10568821614E+03  0.00000000000E+00 0. -1.
<scales pt_clust_5="13000.00000" pt_clust_6="13000.00000" pt_clust_7="13000.00000" pt_clust_8="13000.00000" pt_clust_9="94.19559"></scales>
<clustering>
<clus scale="   81.294">  5  6 -1 -1</clus>
<clus scale="   89.401">  7  8 -1 -1</clus>
<clus scale="   94.196">  1  9  2 -1</clus>
<clus scale="   96.813">  2  5  1 -1</clus>
<clus scale="   94.196">  1  5  2 -1</clus>
</clustering>
</event>
<event>
 9    1  0.4067873E-005  0.1089745E+03  0.7546771E-02  0.1267316E+00
         -2   -1    0    0    0  501 -0.00000000000E+00  0.00000000000E+00  0.65350002098E+03  0.65350002098E+03  0.00000000000E+00 0.  1.
         21   -1    0    0  501  502  0.00000000000E+00 -0.00000000000E+00 -0.59300824605E+02  0.59300824605E+02  0.00000000000E+00 0. -1.
        -24    2    1    2    0    0 -0.10127019235E+02  0.49149057793E+02  0.44347710901E+03  0.45352117199E+03  0.80568733520E+02 0.  0.
         23    2    1    2    0    0  0.50256202454E+02 -0.97927457474E+02  0.12711536325E+03  0.19184851578E+03  0.92369175703E+02 0.  0.
         13    1    3    3    0    0 -0.30862883889E+02  0.10759673332E+02  0.67244611914E+02  0.74767145215E+02  0.00000000000E+00 0. -1.
        -14    1    3    3    0    0  0.20735864654E+02  0.38389384461E+02  0.37623249710E+03  0.37875402677E+03  0.00000000000E+00 0.  1.
        -13    1    4    4    0    0  0.36409477704E+02  0.17360735791E+01  0.62234571611E+02  0.72123546237E+02  0.00000000000E+00 0.  1.
         13    1    4    4    0    0  0.13846724750E+02 -0.99663531053E+02  0.64880791643E+02  0.11972496954E+03  0.00000000000E+00 0. -1.
         -1    1    1    2    0  502 -0.40129183219E+02  0.48778399681E+02  0.23606724105E+02  0.67431157814E+02  0.00000000000E+00 0.  1.
<scales pt_clust_5="13000.00000" pt_clust_6="13000.00000" pt_clust_7="13000.00000" pt_clust_8="13000.00000" pt_clust_9="63.16394"></scales>
<clustering>
<clus scale="   63.164">  2  9  1 -1</clus>
<clus scale="   80.569">  5  6 -1 -1</clus>
<clus scale="   92.369">  7  8 -1 -1</clus>
<clus scale="   99.170">  1  5  2 -1</clus>
<clus scale="   63.164">  2  5  1 -1</clus>
</clustering>
</event>
<event>
 9    1  0.4067873E-005  0.1026383E+03  0.7546771E-02  0.1279076E+00
         21   -1    0    0  501  502  0.00000000000E+00  0.00000000000E+00  0.31484965057E+03  0.31484965057E+03  0.00000000000E+00 0.  1.
         -2   -1    0    0    0  501 -0.00000000000E+00 -0.00000000000E+00 -0.11107062924E+03  0.11107062924E+03  0.00000000000E+00 0.  1.
         23    2    1    2    0    0  0.15579836351E+02 -0.53952203388E+02 -0.46786954123E+02  0.11625054590E+03  0.90396895942E+02 0.  0.
        -24    2    1    2    0    0 -0.29153301982E+02  0.24509630717E+02  0.42814423126E+02  0.99403684468E+02  0.81224261423E+02 0.  0.
         13    1    4    4    0    0 -0.65628129400E+01  0.47459535458E+02  0.46775104853E+02  0.66958109692E+02  0.00000000000E+00 0. -1.
        -14    1    4    4    0    0 -0.22590489042E+02 -0.22949904740E+02 -0.39606817274E+01  0.32445574775E+02  0.00000000000E+00 0.  1.
        -11    1    3    3    0    0 -0.34329613265E+02 -0.39185924081E+02 -0.11449236412E+02  0.53339891333E+02  0.00000000000E+00 0.  1.
         11    1    3    3    0    0  0.49909449616E+02 -0.14766279307E+02 -0.35337717711E+02  0.62910654571E+02  0.00000000000E+00 0. -1.
         -1    1    1    2    0  502  0.13573465632E+02  0.29442572670E+02  0.20775155232E+03  0.21026604944E+03  0.00000000000E+00 0.  1.
<scales pt_clust_5="13000.00000" pt_clust_6="13000.00000" pt_clust_7="13000.00000" pt_clust_8="13000.00000" pt_clust_9="32.42073"></scales>
<clustering>
<clus scale="   32.421">  1  9  2 -1</clus>
<clus scale="   81.224">  5  6 -1 -1</clus>
<clus scale="   90.397">  7  8 -1 -1</clus>
<clus scale="   94.659">  1  5  2 -1</clus>
<clus scale="   32.421">  1  5  2 -1</clus>
</clustering>
</event>
<event>
 9    1  0.4067873E-005  0.1361766E+03  0.7546771E-02  0.1220262E+00
         -4   -1    0    0    0  501 -0.00000000000E+00  0.00000000000E+00  0.32474608549E+03  0.32474608549E+03  0.00000000000E+00 0.  1.
         21   -1    0    0  501  502  0.00000000000E+00 -0.00000000000E+00 -0.95410490613E+02  0.95410490613E+02  0.00000000000E+00 0. -1.
        -24    2    1    2    0    0  0.71317011091E+02 -0.74432374889E+02  0.20381223022E+03  0.24296791087E+03  0.82871503060E+02 0.  0.
         23    2    1    2    0    0 -0.91960783254E+02  0.46916581576E+02  0.34998551764E+02  0.14150865148E+03  0.90232192340E+02 0.  0.
         11    1    3    3    0    0  0.64340323608E+02 -0.92564471306E+02  0.17025954531E+03  0.20419640388E+03  0.00000000000E+00 0. -1.
        -12    1    3    3    0    0  0.69766874833E+01  0.18132096417E+02  0.33552684916E+02  0.38771506984E+02  0.00000000000E+00 0.  1.
        -13    1    4    4    0    0 -0.27873013786E+02  0.60563117498E+02  0.36420323192E+02  0.75968651693E+02  0.00000000000E+00 0.  1.
         13    1    4    4    0    0 -0.64087769468E+02 -0.13646535922E+02 -0.14217714275E+01  0.65539999787E+02  0.00000000000E+00 0. -1.
         -3    1    1    2    0  502  0.20643772163E+02  0.27515793312E+02 -0.94751871135E+01  0.35680013755E+02  0.00000000000E+00 0.  1.
<scales pt_clust_5="13000.00000" pt_clust_6="13000.00000" pt_clust_7="13000.00000" pt_clust_8="13000.00000" pt_clust_9="34.39890"></scales>
<clustering>
<clus scale="   34.399">  2  9  1 -1</clus>
<clus scale="   82.872">  5  6 -1 -1</clus>
<clus scale="   90.232">  7  8 -1 -1</clus>
<clus scale="  131.415">  1  5  2 -1</clus>
<clus scale="   34.399">  2  5  1 -1</clus>
</clustering>
</event>
<event>
 9    1  0.4067873E-005  0.9778869E+02  0.7546771E-02  0.1293639E+00
         -4   -1    0    0    0  501 -0.00000000000E+00  0.00000000000E+00  0.40059750264E+03  0.40059750264E+03  0.00000000000E+00 0.  1.
         21   -1    0    0  501  502  0.00000000000E+00 -0.00000000000E+00 -0.28813508573E+02  0.28813508573E+02  0.00000000000E+00 0. -1.
         23    2    1    2    0    0 -0.12365238781E+02  0.12542378302E+01  0.17041398403E+03  0.19566760196E+03  0.95343653485E+02 0.  0.
        -24    2    1    2    0    0  0.27698948815E+02 -0.19302021260E+02  0.11549258399E+03  0.14466042854E+03  0.80301325250E+02 0.  0.
         11    1    4    4    0    0  0.29523534578E+02 -0.48207600725E+02  0.62523124876E+02  0.84289696914E+02  0.00000000000E+00 0. -1.
        -12    1    4    4    0    0 -0.18245857634E+01  0.28905579466E+02  0.52969459118E+02  0.60370731623E+02  0.00000000000E+00 0.  1.
        -11    1    3    3    0    0 -0.33777628215E+02 -0.16383611250E+02  0.19650854712E+02  0.42373422996E+02  0.00000000000E+00 0.  1.
         11    1    3    3    0    0  0.21412389435E+02  0.17637849080E+02  0.15076312932E+03  0.15329417896E+03  0.00000000000E+00 0. -1.
         -3    1    1    2    0  502 -0.15333710034E+02  0.18047783429E+02  0.85877426038E+02  0.89082980714E+02  0.00000000000E+00 0.  1.
<scales pt_clust_5="13000.00000" pt_clust_6="13000.00000" pt_clust_7="13000.00000" pt_clust_8="13000.00000" pt_clust_9="23.68218"></scales>
<clustering>
<clus scale="   23.682">  2  9  1 -1</clus>
<clus scale="   80.301">  5  6 -1 -1</clus>
<clus scale="   83.190">  2  5  1 -1</clus>
<clus scale="   95.344">  7  8 -1 -1</clus>
<clus scale="   23.682">  2  5  1 -1</clus>
</clustering>
</event>
<event>
 9    1  0.4067873E-005  0.1136072E+03  0.7546771E-02  0.1258325E+00
         -4   -1    0    0    0  501 -0.00000000000E+00  0.00000000000E+00  0.32888938332E+03  0.32888938332E+03  0.00000000000E+00 0.  1.
         21   -1    0    0  501  502  0.00000000000E+00 -0.00000000000E+00 -0.11642857018E+03  0.11642857018E+03  0.00000000000E+00 0. -1.
        -24    2    1    2    0    0 -0.33698368522E+02  0.61358443025E+02  0.27239555185E+03  0.29226543438E+03  0.79494080849E+02 0.  0.
         23    2    1    2    0    0  0.43375768746E+02 -0.28895181626E+02 -0.55536975446E+02  0.11889324897E+03  0.91295455381E+02 0.  0.
         11    1    3    3    0    0  0.53437576531E-01  0.43691112777E+02  0.49021340361E+02  0.65665881568E+02  0.00000000000E+00 0. -1.
        -12    1    3    3    0    0 -0.33751806099E+02  0.17667330247E+02  0.22337421149E+03  0.22659955281E+03  0.00000000000E+00 0.  1.
        -11    1    4    4    0    0  0.14067743953E+02 -0.36031225618E+02 -0.74019640224E+02  0.83516811352E+02  0.00000000000E+00 0. -1.
         11    1    4    4    0    0  0.29308024793E+02  0.71360439923E+01  0.18482664778E+02  0.35376437617E+02  0.00000000000E+00 0.  1.
         -3    1    1    2    0  502 -0.96774002236E+01 -0.32463261399E+02 -0.43977632705E+01  0.34159270155E+02  0.00000000000E+00 0.  1.
<scales pt_clust_5="13000.00000" pt_clust_6="13000.00000" pt_clust_7="13000.00000" pt_clust_8="13000.00000" pt_clust_9="33.87500"></scales>
<clustering>
<clus scale="   33.875">  2  9  1 -1</clus>
<clus scale="   79.494">  5  6 -1 -1</clus>
<clus scale="   91.295">  7  8 -1 -1</clus>
<clus scale="  104.360">  1  5  2 -1</clus>
<clus scale="   33.875">  2  5  1 -1</clus>
</clustering>
</event>
<event>
 9    1  0.4067873E-005  0.1061821E+03  0.7546771E-02  0.1272024E+00
         21   -1    0    0  501  502  0.00000000000E+00  0.00000000000E+00  0.46376671159E+02  0.46376671159E+02  0.00000000000E+00 0. -1.
         -2   -1    0    0    0  501 -0.00000000000E+00 -0.00000000000E+00 -0.33508085072E+03  0.33508085072E+03  0.00000000000E+00 0.  1.
        -24    2    1    2    0    0 -0.52579803273E+02 -0.19624000000E+01 -0.17083237359E+03  0.19625042056E+03  0.81006425531E+02 0.  0.
         23    2    1    2    0    0  0.58265034215E+02 -0.28345165500E+02 -0.86387509732E+02  0.14113748268E+03  0.90877525055E+02 0.  0.
         11    1    3    3    0    0 -0.19888249772E+01 -0.27461201126E+02 -0.17099805430E+02  0.32411052711E+02  0.00000000000E+00 0. -1.
        -12    1    3    3    0    0 -0.50590978295E+02  0.25498801126E+02 -0.15373256816E+03  0.16383936785E+03  0.00000000000E+00 0.  1.
        -11    1    4    4    0    0  0.19976236039E+02 -0.43742113018E+02 -0.87511779466E+02  0.99853562795E+02  0.00000000000E+00 0.  1.
         11    1    4    4    0    0  0.38288798176E+02  0.15396947518E+02  0.11242697339E+01  0.41283919885E+02  0.00000000000E+00 0. -1.
         -1    1    1    2    0  502 -0.56852309423E+01  0.30307565500E+02 -0.31484296235E+02  0.44069618637E+02  0.00000000000E+00 0.  1.
<scales pt_clust_5="13000.00000" pt_clust_6="13000.00000" pt_clust_7="13000.00000" pt_clust_8="13000.00000" pt_clust_9="30.83619"></scales>
<clustering>
<clus scale="   30.836">  1  9  2 -1</clus>
<clus scale="   81.006">  5  6 -1 -1</clus>
<clus scale="   90.878">  7  8 -1 -1</clus>
<clus scale="   97.867">  2  5  1 -1</clus>
<clus scale="   30.836">  1  5  2 -1</clus>
</clustering>
</event>
<event>
 9    1  0.4067873E-005  0.1470102E+03  0.7546771E-02  0.1232563E+00
         21   -1    0    0  501  502  0.00000000000E+00  0.00000000000E+00  0.39168872362E+03  0.39168872362E+03  0.00000000000E+00 0.  1.
          1   -1    0    0  502    0 -0.00000000000E+00 -0.00000000000E+00 -0.11283447071E+03  0.11283447071E+03  0.00000000000E+00 0. -1.
        -24    2    1    2    0    0 -0.28733303872E+01 -0.96784886944E+01 -0.40647484568E+02  0.90534572198E+02  0.80264323273E+02 0.  0.
         23    2    1    2    0    0  0.49159026050E+02  0.11123763843E+03  0.19202694514E+03  0.24455884552E+03  0.90245549571E+02 0.  0.
         11    1    3    3    0    0  0.26755761012E+02 -0.27750715410E+02 -0.40382828102E+02  0.55827822441E+02  0.00000000000E+00 0. -1.
        -12    1    3    3    0    0 -0.29629091399E+02  0.18072226715E+02 -0.26465646596E+00  0.34706749756E+02  0.00000000000E+00 0.  1.
        -11    1    4    4    0    0  0.70662435397E+02  0.70166698748E+02  0.97957365063E+02  0.13968604354E+03  0.00000000000E+00 0.  1.
         11    1    4    4    0    0 -0.21503409347E+02  0.41070939685E+02  0.94069580075E+02  0.10487280198E+03  0.00000000000E+00 0. -1.
          2    1    1    2  501    0 -0.46285695663E+02 -0.10155914974E+03  0.12747479234E+03  0.16942977661E+03  0.00000000000E+00 0. -1.
<scales pt_clust_5="13000.00000" pt_clust_6="13000.00000" pt_clust_7="13000.00000" pt_clust_8="13000.00000" pt_clust_9="116.05064"></scales>
<clustering>
<clus scale="   80.264">  5  6 -1 -1</clus>
<clus scale="   80.897">  2  5  1 -1</clus>
<clus scale="   90.246">  7  8 -1 -1</clus>
<clus scale="  116.051">  1  9  2 -1</clus>
<clus scale="  116.051">  1  5  2 -1</clus>
</clustering>
</event>
<event>
 9    1  0.4067873E-005  0.9322828E+02  0.7546771E-02  0.1301291E+00
          3   -1    0    0  502    0 -0.00000000000E+00  0.00000000000E+00  0.25996430294E+02  0.25996430294E+02  0.00000000000E+00 0. -1.
         21   -1    0    0  501  502  0.00000000000E+00 -0.00000000000E+00 -0.84622934819E+03  0.84622934819E+03  0.00000000000E+00 0. -1.
         23    2    1    2    0    0  0.18247264899E+02 -0.14802581435E+01 -0.10903856046E+03  0.14281369362E+03  0.90394632462E+02 0.  0.
        -24    2    1    2    0    0 -0.33091037226E+02 -0.52616705680E+02 -0.53413376763E+03  0.54367767358E+03  0.80143599669E+02 0.  0.
         13    1    4    4    0    0 -0.48156640673E+02 -0.39353050582E+02 -0.21237993427E+03  0.22129835316E+03  0.00000000000E+00 0. -1.
        -14    1    4    4    0    0  0.15065603447E+02 -0.13263655097E+02 -0.32175383336E+03  0.32237932042E+03  0.00000000000E+00 0.  1.
        -11    1    3    3    0    0  0.51283363471E+02  0.10718742167E+02 -0.86093778822E+02  0.10078201007E+03  0.00000000000E+00 0. -1.
         11    1    3    3    0    0 -0.33036098572E+02 -0.12199000310E+02 -0.22944781639E+02  0.42031683548E+02  0.00000000000E+00 0.  1.
          4    1    1    2  501    0  0.14843772326E+02  0.54096963823E+02 -0.17706058980E+03  0.18573441128E+03  0.00000000000E+00 0. -1.
<scales pt_clust_5="13000.00000" pt_clust_6="13000.00000" pt_clust_7="13000.00000" pt_clust_8="13000.00000" pt_clust_9="56.09652"></scales>
<clustering>
<clus scale="   56.097">  2  9  1 -1</clus>
<clus scale="   80.144">  5  6 -1 -1</clus>
<clus scale="   83.327">  2  5  1 -1</clus>
<clus scale="   90.395">  7  8 -1 -1</clus>
<clus scale="   56.097">  2  5  1 -1</clus>
</clustering>
</event>
<event>
 9    1  0.4067873E-005  0.9920988E+02  0.7546771E-02  0.1288213E+00
         21   -1    0    0  501  502  0.00000000000E+00  0.00000000000E+00  0.23424526868E+03  0.23424526868E+03  0.00000000000E+00 0.  1.
          1   -1    0    0  502    0 -0.00000000000E+00 -0.00000000000E+00 -0.29525925620E+03  0.29525925620E+03  0.00000000000E+00 0. -1.
        -24    2    1    2    0    0  0.37433213696E+02 -0.22283361364E+01 -0.26611466680E+03  0.28040719809E+03  0.80031055749E+02 0.  0.
         23    2    1    2    0    0 -0.27679221942E+02  0.20848112101E+02  0.94082162250E+02  0.13610640886E+03  0.92047369180E+02 0.  0.
         11    1    3    3    0    0  0.16070058397E+02  0.32398401422E+02 -0.19628653032E+03  0.19959034340E+03  0.00000000000E+00 0. -1.
        -12    1    3    3    0    0  0.21363155298E+02 -0.34626737558E+02 -0.69828136476E+02  0.80816854690E+02  0.00000000000E+00 0.  1.
        -13    1    4    4    0    0 -0.15176997746E+02  0.47191325952E+02  0.94755670434E+02  0.10693923314E+03  0.00000000000E+00 0.  1.
         13    1    4    4    0    0 -0.12502224196E+02 -0.26343213852E+02 -0.67350818421E+00  0.29167175715E+02  0.00000000000E+00 0. -1.
          2    1    1    2  501    0 -0.97539917539E+01 -0.18619775964E+02  0.11101851703E+03  0.11299091794E+03  0.00000000000E+00 0. -1.
<scales pt_clust_5="13000.00000" pt_clust_6="13000.00000" pt_clust_7="13000.00000" pt_clust_8="13000.00000" pt_clust_9="21.01991"></scales>
<clustering>
<clus scale="   21.020">  1  9  2 -1</clus>
<clus scale="   80.031">  5  6 -1 -1</clus>
<clus scale="   88.175">  2  5  1 -1</clus>
<clus scale="   92.047">  7  8 -1 -1</clus>
<clus scale="   21.020">  1  5  2 -1</clus>
</clustering>
</event>
<event>
 9    1  0.4067873E-005  0.1445931E+03  0.7546771E-02  0.1233106E+00
          1   -1    0    0  502    0 -0.00000000000E+00  0.00000000000E+00  0.57065778306E+03  0.57065778306E+03  0.00000000000E+00 0. -1.
         21   -1    0    0  501  502  0.00000000000E+00 -0.00000000000E+00 -0.56660438982E+02  0.56660438982E+02  0.00000000000E+00 0.  1.
        -24    2    1    2    0    0  0.21279055960E+02 -0.74910260464E+01  0.10733830958E+03  0.13634737931E+03  0.80994947042E+02 0.  0.
         23    2    1    2    0    0  0.99532240191E+02  0.11847852255E+02  0.13592988144E+03  0.19447695489E+03  0.96422584882E+02 0.  0.
         11    1    3    3    0    0  0.26149189869E+01  0.32528205251E+02  0.19450389419E+02  0.37989993245E+02  0.00000000000E+00 0. -1.
        -12    1    3    3    0    0  0.18664136974E+02 -0.40019231298E+02  0.87887920161E+02  0.98357386061E+02  0.00000000000E+00 0.  1.
        -11    1    4    4    0    0  0.43825784674E+02 -0.40502898753E+02  0.40124741292E+02  0.71910910670E+02  0.00000000000E+00 0. -1.
         11    1    4    4    0    0  0.55706455517E+02  0.52350751009E+02  0.95805140146E+02  0.12256604422E+03  0.00000000000E+00 0.  1.
          2    1    1    2  501    0 -0.12081129615E+03 -0.43568262090E+01  0.27072915306E+03  0.29649388784E+03  0.00000000000E+00 0. -1.
<scales pt_clust_5="13000.00000" pt_clust_6="13000.00000" pt_clust_7="13000.00000" pt_clust_8="13000.00000" pt_clust_9="107.74902"></scales>
<clustering>
<clus scale="   80.995">  5  6 -1 -1</clus>
<clus scale="   84.078">  1  5  2 -1</clus>
<clus scale="   96.423">  7  8 -1 -1</clus>
<clus scale="  107.749">  2  9  1 -1</clus>
<clus scale="  107.749">  2  5  1 -1</clus>
</clustering>
</event>
<event>
 9    1  0.4067873E-005  0.1288143E+03  0.7546771E-02  0.1234824E+00
          1   -1    0    0  502    0 -0.00000000000E+00  0.00000000000E+00  0.74055469088E+03  0.74055469088E+03  0.00000000000E+00 0. -1.
         21   -1    0    0  501  502  0.00000000000E+00 -0.00000000000E+00 -0.58680608842E+02  0.58680608842E+02  0.00000000000E+00 0. -1.
         23    2    1    2    0    0 -0.64074646299E+02 -0.81318133351E+02  0.42690094324E+03  0.44837224894E+03  0.89861333002E+02 0.  0.
        -24    2    1    2    0    0 -0.32527367485E+02  0.99326329836E+02  0.20647671780E+03  0.24128135953E+03  0.68266463434E+02 0.  0.
         13    1    4    4    0    0 -0.53383613184E+02  0.81243861783E+02  0.15902613274E+03  0.18638585281E+03  0.00000000000E+00 0. -1.
        -14    1    4    4    0    0  0.20856245699E+02  0.18082468053E+02  0.47450585062E+02  0.54895506722E+02  0.00000000000E+00 0.  1.
        -13    1    3    3    0    0 -0.85290787802E+02 -0.74566118854E+02  0.32858731386E+03  0.34756905414E+03  0.00000000000E+00 0. -1.
         13    1    3    3    0    0  0.21216141503E+02 -0.67520144968E+01  0.98313629385E+02  0.10080319480E+03  0.00000000000E+00 0.  1.
          2    1    1    2  501    0  0.96602013784E+02 -0.18008196485E+02  0.48496420996E+02  0.10958169125E+03  0.00000000000E+00 0. -1.
<scales pt_clust_5="13000.00000" pt_clust_6="13000.00000" pt_clust_7="13000.00000" pt_clust_8="13000.00000" pt_clust_9="98.26619"></scales>
<clustering>
<clus scale="   68.266">  5  6 -1 -1</clus>
<clus scale="   89.861">  7  8 -1 -1</clus>
<clus scale="   98.266">  2  9  1 -1</clus>
<clus scale="  114.797">  2  5  1 -1</clus>
<clus scale="   98.266">  2  5  1 -1</clus>
</clustering>
</event>
<event>
 9    1  0.4067873E-005  0.1315008E+03  0.7546771E-02  0.1228244E+00
         -2   -1    0    0    0  501 -0.00000000000E+00  0.00000000000E+00  0.44669989405E+03  0.44669989405E+03  0.00000000000E+00 0.  1.
         21   -1    0    0  501  502  0.00000000000E+00 -0.00000000000E+00 -0.97029887675E+02  0.97029887675E+02  0.00000000000E+00 0. -1.
        -24    2    1    2    0    0  0.29047798239E+02  0.95615758575E+02  0.29664515651E+03  0.32299595777E+03  0.79635996779E+02 0.  0.
         23    2    1    2    0    0 -0.48763816190E+02 -0.69943066551E+02  0.10244840569E+03  0.16165340123E+03  0.91466955636E+02 0.  0.
         11    1    3    3    0    0  0.18305340314E+02  0.64393096985E+02  0.82142031143E+02  0.10596636119E+03  0.00000000000E+00 0. -1.
        -12    1    3    3    0    0  0.10742457925E+02  0.31222661590E+02  0.21450312536E+03  0.21702959658E+03  0.00000000000E+00 0.  1.
        -13    1    4    4    0    0 -0.45249967668E+02  0.70848950688E+01  0.24219077643E+02  0.51810414339E+02  0.00000000000E+00 0. -1.
         13    1    4    4    0    0 -0.35138485223E+01 -0.77027961620E+02  0.78229328047E+02  0.10984298689E+03  0.00000000000E+00 0.  1.
         -1    1    1    2    0  502  0.19716017951E+02 -0.25672692023E+02 -0.49423555823E+02  0.59080422728E+02  0.00000000000E+00 0.  1.
<scales pt_clust_5="13000.00000" pt_clust_6="13000.00000" pt_clust_7="13000.00000" pt_clust_8="13000.00000" pt_clust_9="32.36987"></scales>
<clustering>
<clus scale="   32.370">  2  9  1 -1</clus>
<clus scale="   79.636">  5  6 -1 -1</clus>
<clus scale="   91.467">  7  8 -1 -1</clus>
<clus scale="  123.564">  1  5  2 -1</clus>
<clus scale="   32.370">  2  5  1 -1</clus>
</clustering>
</event>
<event>
 9    1  0.4067873E-005  0.9348902E+02  0.7546771E-02  0.1300410E+00
         21   -1    0    0  501  502  0.00000000000E+00  0.00000000000E+00  0.90234782937E+03  0.90234782937E+03  0.00000000000E+00 0.  1.
         -2   -1    0    0    0  501 -0.00000000000E+00 -0.00000000000E+00 -0.21196094784E+03  0.21196094784E+03  0.00000000000E+00 0.  1.
        -24    2    1    2    0    0  0.31524328958E+00 -0.20696055237E+02 -0.19241378462E+03  0.20984537018E+03  0.81139317171E+02 0.  0.
         23    2    1    2    0    0  0.41578671297E+02  0.71138410082E+02  0.43844160934E+03  0.45529250123E+03  0.90943705560E+02 0.  0.
         11    1    3    3    0    0 -0.29122497980E+02  0.17676654516E+02 -0.98230689449E+02  0.10397043980E+03  0.00000000000E+00 0. -1.
        -12    1    3    3    0    0  0.29437741270E+02 -0.38372709753E+02 -0.94183095173E+02  0.10587493037E+03  0.00000000000E+00 0.  1.
        -11    1    4    4    0    0  0.10568304756E+02  0.83618306365E+02  0.24777146107E+03  0.26171436175E+03  0.00000000000E+00 0.  1.
         11    1    4    4    0    0  0.31010366540E+02 -0.12479896283E+02  0.19067014827E+03  0.19357813948E+03  0.00000000000E+00 0. -1.
         -1    1    1    2    0  502 -0.41893914586E+02 -0.50442354845E+02  0.44435905682E+03  0.44917090580E+03  0.00000000000E+00 0.  1.
<scales pt_clust_5="13000.00000" pt_clust_6="13000.00000" pt_clust_7="13000.00000" pt_clust_8="13000.00000" pt_clust_9="65.57081"></scales>
<clustering>
<clus scale="   65.571">  1  9  2 -1</clus>
<clus scale="   81.139">  5  6 -1 -1</clus>
<clus scale="   83.982">  2  5  1 -1</clus>
<clus scale="   90.944">  7  8 -1 -1</clus>
<clus scale="   65.571">  1  5  2 -1</clus>
</clustering>
</event>
<event>
 9    1  0.4067873E-005  0.2002348E+03  0.7546771E-02  0.1151639E+00
         -2   -1    0    0    0  501 -0.00000000000E+00  0.00000000000E+00  0.12107599462E+04  0.12107599462E+04  0.00000000000E+00 0.  1.
         21   -1    0    0  501  502  0.00000000000E+00 -0.00000000000E+00 -0.95994658574E+02  0.95994658574E+02  0.00000000000E+00 0.  1.
        -24    2    1    2    0    0  0.15628594712E+03  0.90252138995E+02  0.54611953230E+03  0.58077502540E+03  0.80512984725E+02 0.  0.
         23    2    1    2    0    0 -0.34680485870E+02 -0.20187471115E+03  0.49503417478E+03  0.54524178141E+03  0.10135892115E+03 0.  0.
         13    1    3    3    0    0  0.78001962975E+02  0.45623765329E+00  0.19645910813E+03  0.21137808672E+03  0.00000000000E+00 0. -1.
        -14    1    3    3    0    0  0.78283984142E+02  0.89795901341E+02  0.34966042417E+03  0.36939693868E+03  0.00000000000E+00 0.  1.
        -11    1    4    4    0    0  0.16488083064E+02 -0.72018585396E+02  0.87778335247E+02  0.11473260070E+03  0.00000000000E+00 0. -1.
         11    1    4    4    0    0 -0.51168568934E+02 -0.12985612576E+03  0.40725583953E+03  0.43050918071E+03  0.00000000000E+00 0.  1.
         -1    1    1    2    0  502 -0.12160546125E+03  0.11162257216E+03  0.73611580549E+02  0.18073779796E+03  0.00000000000E+00 0.  1.
<scales pt_clust_5="13000.00000" pt_clust_6="13000.00000" pt_clust_7="13000.00000" pt_clust_8="13000.00000" pt_clust_9="165.06813"></scales>
<clustering>
<clus scale="   80.513">  5  6 -1 -1</clus>
<clus scale="  101.359">  7  8 -1 -1</clus>
<clus scale="  165.068">  2  9  1 -1</clus>
<clus scale="  190.533">  1  5  2 -1</clus>
<clus scale="  165.068">  2  5  1 -1</clus>
</clustering>
</event>
<event>
 9    1  0.4067873E-005  0.2083261E+03  0.7546771E-02  0.1142898E+00
         21   -1    0    0  501  502  0.00000000000E+00  0.00000000000E+00  0.26063403789E+03  0.26063403789E+03  0.00000000000E+00 0. -1.
          1   -1    0    0  502    0 -0.00000000000E+00 -0.00000000000E+00 -0.10021569287E+03  0.10021569287E+03  0.00000000000E+00 0. -1.
        -24    2    1    2    0    0  0.46571303549E+02 -0.42325556885E+02  0.42019346386E+02  0.11306299049E+03  0.84007590533E+02 0.  0.
         23    2    1    2    0    0  0.44628543613E+02 -0.24717603665E+01  0.15236510934E+02  0.10298787762E+03  0.91523413220E+02 0.  0.
         11    1    3    3    0    0  0.56150663973E+02 -0.52259532514E+02  0.89471316993E+01  0.77226983424E+02  0.00000000000E+00 0. -1.
        -12    1    3    3    0    0 -0.95793604236E+01  0.99339756288E+01  0.33072214686E+02  0.35836007062E+02  0.00000000000E+00 0.  1.
        -11    1    4    4    0    0  0.22375961977E+02  0.42868649817E+02  0.19846279572E+02  0.52271212196E+02  0.00000000000E+00 0.  1.
         11    1    4    4    0    0  0.22252581636E+02 -0.45340410184E+02 -0.46097686385E+01  0.50716665427E+02  0.00000000000E+00 0. -1.
          2    1    1    2  501    0 -0.91199847162E+02  0.44797317252E+02  0.10316248770E+03  0.14479886265E+03  0.00000000000E+00 0. -1.
<scales pt_clust_5="13000.00000" pt_clust_6="13000.00000" pt_clust_7="13000.00000" pt_clust_8="13000.00000" pt_clust_9="101.60813"></scales>
<clustering>
<clus scale="   84.008">  5  6 -1 -1</clus>
<clus scale="   91.523">  7  8 -1 -1</clus>
<clus scale="   99.544">  5  7 -1 -1</clus>
<clus scale="  101.608">  1  9  2 -1</clus>
<clus scale="  101.608">  1  5  2 -1</clus>
</clustering>
</event>
<event>
 9    1  0.4067873E-005  0.9464962E+02  0.7546771E-02  0.1298947E+00
          1   -1    0    0  502    0 -0.00000000000E+00  0.00000000000E+00  0.41832434940E+03  0.41832434940E+03  0.00000000000E+00 0. -1.
         21   -1    0    0  501  502  0.00000000000E+00 -0.00000000000E+00 -0.37593897589E+02  0.37593897589E+02  0.00000000000E+00 0. -1.
        -24    2    1    2    0    0 -0.67802969977E+01 -0.96421486447E+01  0.12919627066E+03  0.15264686221E+03  0.80439074664E+02 0.  0.
         23    2    1    2    0    0  0.34438537522E+02  0.23003864459E+02  0.79871966888E+02  0.12888265371E+03  0.92282266364E+02 0.  0.
         11    1    3    3    0    0 -0.16440446512E+02  0.13038474620E+02  0.12606183699E+03  0.12779623174E+03  0.00000000000E+00 0. -1.
        -12    1    3    3    0    0  0.96601495141E+01 -0.22680623265E+02  0.31344336685E+01  0.24850630470E+02  0.00000000000E+00 0.  1.
        -13    1    4    4    0    0 -0.29721406309E+02  0.10223355672E+02  0.44591582845E+02  0.54555368708E+02  0.00000000000E+00 0.  1.
         13    1    4    4    0    0  0.64159943830E+02  0.12780508787E+02  0.35280384043E+02  0.74327285000E+02  0.00000000000E+00 0. -1.
          2    1    1    2  501    0 -0.27658240524E+02 -0.13361715815E+02  0.17166221426E+03  0.17438873107E+03  0.00000000000E+00 0. -1.
<scales pt_clust_5="13000.00000" pt_clust_6="13000.00000" pt_clust_7="13000.00000" pt_clust_8="13000.00000" pt_clust_9="30.71668"></scales>
<clustering>
<clus scale="   30.717">  2  9  1 -1</clus>
<clus scale="   80.439">  5  6 -1 -1</clus>
<clus scale="   83.144">  1  5  2 -1</clus>
<clus scale="   92.282">  7  8 -1 -1</clus>
<clus scale="   30.717">  2  5  1 -1</clus>
</clustering>
</event>
<event>
 9    1  0.4067873E-005  0.1628160E+03  0.7546771E-02  0.1213727E+00
          1   -1    0    0  502    0 -0.00000000000E+00  0.00000000000E+00  0.93964929771E+03  0.93964929771E+03  0.00000000000E+00 0. -1.
         21   -1    0    0  501  502  0.00000000000E+00 -0.00000000000E+00 -0.52275221653E+02  0.52275221653E+02  0.00000000000E+00 0. -1.
        -24    2    1    2    0    0  0.20610439203E+02 -0.24256455873E+02  0.47085376707E+03  0.47905376415E+03  0.82316906700E+02 0.  0.
         23    2    1    2    0    0  0.79961901336E+02  0.11235518924E+03  0.23349928097E+03  0.28621489449E+03  0.91539376230E+02 0.  0.
         11    1    3    3    0    0 -0.27273591626E+02 -0.21284825312E+02  0.11843922184E+03  0.12338858074E+03  0.00000000000E+00 0. -1.
        -12    1    3    3    0    0  0.47884030829E+02 -0.29716305612E+01  0.35241454523E+03  0.35566518341E+03  0.00000000000E+00 0.  1.
        -13    1    4    4    0    0  0.81858879119E+02  0.62731590991E+02  0.20364903839E+03  0.22827408840E+03  0.00000000000E+00 0. -1.
         13    1    4    4    0    0 -0.18969777829E+01  0.49623598249E+02  0.29850242575E+02  0.57940806084E+02  0.00000000000E+00 0.  1.
          2    1    1    2  501    0 -0.10057234054E+03 -0.88098733367E+02  0.18302102802E+03  0.22665586072E+03  0.00000000000E+00 0. -1.
<scales pt_clust_5="13000.00000" pt_clust_6="13000.00000" pt_clust_7="13000.00000" pt_clust_8="13000.00000" pt_clust_9="134.64612"></scales>
<clustering>
<clus scale="   82.317">  5  6 -1 -1</clus>
<clus scale="   88.257">  1  5  2 -1</clus>
<clus scale="   91.539">  7  8 -1 -1</clus>
<clus scale="  134.646">  2  9  1 -1</clus>
<clus scale="  134.646">  2  5  1 -1</clus>
</clustering>
</event>
<event>
 9    1  0.4067873E-005  0.1005427E+03  0.7546771E-02  0.1285502E+00
         21   -1    0    0  501  502  0.00000000000E+00  0.00000000000E+00  0.23988907374E+03  0.23988907374E+03  0.00000000000E+00 0.  1.
         -2   -1    0    0    0  501 -0.00000000000E+00 -0.00000000000E+00 -0.15777951534E+03  0.15777951534E+03  0.00000000000E+00 0.  1.
        -24    2    1    2    0    0  0.35044451885E+02  0.10964073065E+02 -0.10646758153E+03  0.13826733340E+03  0.80213372106E+02 0.  0.
         23    2    1    2    0    0 -0.68120304031E+02 -0.87121875477E+01  0.19409046277E+03  0.22579352276E+03  0.92710997971E+02 0.  0.
         11    1    3    3    0    0  0.51655173492E+01 -0.25729477309E+02 -0.55741641381E+01  0.26828340946E+02  0.00000000000E+00 0. -1.
        -12    1    3    3    0    0  0.29878934536E+02  0.36693550373E+02 -0.10089341739E+03  0.11143899246E+03  0.00000000000E+00 0.  1.
        -13    1    4    4    0    0 -0.10854848303E+02 -0.27069320223E+02  0.80207066510E+01  0.30247438970E+02  0.00000000000E+00 0. -1.
         13    1    4    4    0    0 -0.57265455728E+02  0.18357132676E+02  0.18606975612E+03  0.19554608379E+03  0.00000000000E+00 0.  1.
         -1    1    1    2    0  502  0.33075852146E+02 -0.22518855173E+01 -0.55133228436E+01  0.33607732925E+02  0.00000000000E+00 0.  1.
<scales pt_clust_5="13000.00000" pt_clust_6="13000.00000" pt_clust_7="13000.00000" pt_clust_8="13000.00000" pt_clust_9="33.15244"></scales>
<clustering>
<clus scale="   33.152">  1  9  2 -1</clus>
<clus scale="   80.213">  5  6 -1 -1</clus>
<clus scale="   89.150">  2  5  1 -1</clus>
<clus scale="   92.711">  7  8 -1 -1</clus>
<clus scale="   33.152">  1  5  2 -1</clus>
</clustering>
</event>
<event>
 9    1  0.4067873E-005  0.1019649E+03  0.7546771E-02  0.1281544E+00
         21   -1    0    0  501  502  0.00000000000E+00  0.00000000000E+00  0.17820634311E+03  0.17820634311E+03  0.00000000000E+00 0. -1.
          1   -1    0    0  502    0 -0.00000000000E+00 -0.00000000000E+00 -0.12231329682E+03  0.12231329682E+03  0.00000000000E+00 0. -1.
        -24    2    1    2    0    0 -0.34738369813E+02 -0.27054060286E+02 -0.21348136305E+02  0.95199046591E+02  0.81660510854E+02 0.  0.
         23    2    1    2    0    0 -0.25451416150E+02  0.67780446749E+02  0.47609835180E+02  0.12683833013E+03  0.92624521804E+02 0.  0.
         13    1    3    3    0    0 -0.17592806323E+02 -0.56084828762E+02 -0.17102895750E+02  0.61217022916E+02  0.00000000000E+00 0. -1.
        -14    1    3    3    0    0 -0.17145563490E+02  0.29030768477E+02 -0.42452405546E+01  0.33982023676E+02  0.00000000000E+00 0.  1.
        -11    1    4    4    0    0 -0.48762482132E+02  0.13863129672E+02  0.45405701322E+02  0.68056180767E+02  0.00000000000E+00 0. -1.
         11    1    4    4    0    0  0.23311065982E+02  0.53917317077E+02  0.22041338575E+01  0.58782149366E+02  0.00000000000E+00 0.  1.
          2    1    1    2  501    0  0.60189785963E+02 -0.40726386464E+02  0.29631347407E+02  0.78482263205E+02  0.00000000000E+00 0. -1.
<scales pt_clust_5="13000.00000" pt_clust_6="13000.00000" pt_clust_7="13000.00000" pt_clust_8="13000.00000" pt_clust_9="72.67358"></scales>
<clustering>
<clus scale="   72.674">  1  9  2 -1</clus>
<clus scale="   81.661">  5  6 -1 -1</clus>
<clus scale="   92.119">  2  5  1 -1</clus>
<clus scale="   92.625">  7  8 -1 -1</clus>
<clus scale="   72.674">  1  5  2 -1</clus>
</clustering>
</event>
<event>
 9    1  0.4067873E-005  0.9318772E+02  0.7546771E-02  0.1300397E+00
          1   -1    0    0  502    0 -0.00000000000E+00  0.00000000000E+00  0.21811721205E+03  0.21811721205E+03  0.00000000000E+00 0. -1.
         21   -1    0    0  501  502  0.00000000000E+00 -0.00000000000E+00 -0.71218595095E+02  0.71218595095E+02  0.00000000000E+00 0.  1.
         23    2    1    2    0    0  0.14565902543E+02 -0.32582333304E+02  0.10191530161E+03  0.14074479724E+03  0.90269570108E+02 0.  0.
        -24    2    1    2    0    0 -0.26934729366E+02 -0.19446481495E+02  0.29567410429E+02  0.92934603530E+02  0.81602472298E+02 0.  0.
         11    1    4    4    0    0 -0.53320867891E+02 -0.44178715030E+01  0.32215025982E+02  0.62453506229E+02  0.00000000000E+00 0. -1.
        -12    1    4    4    0    0  0.26386138525E+02 -0.15028609992E+02 -0.26476155526E+01  0.30481097301E+02  0.00000000000E+00 0.  1.
        -13    1    3    3    0    0  0.44625708586E+02 -0.42211418464E+02  0.46772232542E+02  0.77206861434E+02  0.00000000000E+00 0. -1.
         13    1    3    3    0    0 -0.30059806043E+02  0.96290851599E+01  0.55143069064E+02  0.63537935803E+02  0.00000000000E+00 0.  1.
          2    1    1    2  501    0  0.12368826823E+02  0.52028814799E+02  0.15415904920E+02  0.55656406378E+02  0.00000000000E+00 0. -1.
<scales pt_clust_5="13000.00000" pt_clust_6="13000.00000" pt_clust_7="13000.00000" pt_clust_8="13000.00000" pt_clust_9="53.47883"></scales>
<clustering>
<clus scale="   53.479">  2  9  1 -1</clus>
<clus scale="   81.602">  5  6 -1 -1</clus>
<clus scale="   84.819">  2  5  1 -1</clus>
<clus scale="   90.270">  7  8 -1 -1</clus>
<clus scale="   53.479">  2  5  1 -1</clus>
</clustering>
</event>
<event>
 9    1  0.4067873E-005  0.9267710E+02  0.7546771E-02  0.1303561E+00
         21   -1    0    0  501  502  0.00000000000E+00  0.00000000000E+00  0.55564006963E+03  0.55564006963E+03  0.00000000000E+00 0. -1.
          1   -1    0    0  502    0 -0.00000000000E+00 -0.00000000000E+00 -0.68431890080E+02  0.68431890080E+02  0.00000000000E+00 0. -1.
        -24    2    1    2    0    0  0.28993204591E+02 -0.73903525027E+01  0.79992935613E+01  0.86117037879E+02  0.80355039001E+02 0.  0.
         23    2    1    2    0    0  0.35846761082E+02  0.16618184117E+02  0.66408472168E+02  0.11999134007E+03  0.91796961788E+02 0.  0.
         13    1    3    3    0    0  0.27544401094E+02 -0.10772514906E+02 -0.33366621697E+02  0.44587807218E+02  0.00000000000E+00 0. -1.
        -14    1    3    3    0    0  0.14488034971E+01  0.33821624028E+01  0.41365915259E+02  0.41529230661E+02  0.00000000000E+00 0.  1.
        -11    1    4    4    0    0 -0.21869774870E+02  0.16388802876E+01 -0.91285485250E+01  0.23755070608E+02  0.00000000000E+00 0.  1.
         11    1    4    4    0    0  0.57716535951E+02  0.14979303829E+02  0.75537020693E+02  0.96236269465E+02  0.00000000000E+00 0. -1.
          2    1    1    2  501    0 -0.64839965673E+02 -0.92278316139E+01  0.41280041383E+03  0.41796358176E+03  0.00000000000E+00 0. -1.
<scales pt_clust_5="13000.00000" pt_clust_6="13000.00000" pt_clust_7="13000.00000" pt_clust_8="13000.00000" pt_clust_9="65.49331"></scales>
<clustering>
<clus scale="   65.493">  1  9  2 -1</clus>
<clus scale="   80.355">  5  6 -1 -1</clus>
<clus scale="   81.359">  2  5  1 -1</clus>
<clus scale="   91.797">  7  8 -1 -1</clus>
<clus scale="   65.493">  1  5  2 -1</clus>
</clustering>
</event>
<event>
 9    1  0.4067873E-005  0.1334252E+03  0.7546771E-02  0.1243847E+00
         21   -1    0    0  501  502  0.00000000000E+00  0.00000000000E+00  0.24071900343E+03  0.24071900343E+03  0.00000000000E+00 0. -1.
          1   -1    0    0  502    0 -0.00000000000E+00 -0.00000000000E+00 -0.11913032355E+03  0.11913032355E+03  0.00000000000E+00 0. -1.
        -24    2    1    2    0    0 -0.16010347601E+02 -0.24537126279E+02  0.23582010820E+02  0.89162119454E+02  0.80841638497E+02 0.  0.
         23    2    1    2    0    0 -0.77500396369E+02  0.47567764937E+02 -0.30791369530E+01  0.13106983851E+03  0.94344145462E+02 0.  0.
         11    1    3    3    0    0 -0.42937188813E+02 -0.23357379058E+02  0.34765098490E+02  0.59981508923E+02  0.00000000000E+00 0. -1.
        -12    1    3    3    0    0  0.26926841212E+02 -0.11797472204E+01 -0.11183087670E+02  0.29180610532E+02  0.00000000000E+00 0.  1.
        -13    1    4    4    0    0 -0.33173586287E+02  0.17770976553E+02 -0.48199673360E+02  0.61151475426E+02  0.00000000000E+00 0.  1.
         13    1    4    4    0    0 -0.44326810082E+02  0.29796788384E+02  0.45120536407E+02  0.69918363079E+02  0.00000000000E+00 0. -1.
          2    1    1    2  501    0  0.93510743970E+02 -0.23030638659E+02  0.10108580601E+03  0.13961736902E+03  0.00000000000E+00 0. -1.
<scales pt_clust_5="13000.00000" pt_clust_6="13000.00000" pt_clust_7="13000.00000" pt_clust_8="13000.00000" pt_clust_9="94.34758"></scales>
<clustering>
<clus scale="   80.842">  5  6 -1 -1</clus>
<clus scale="   85.987">  2  5  1 -1</clus>
<clus scale="   94.344">  7  8 -1 -1</clus>
<clus scale="   94.348">  1  9  2 -1</clus>
<clus scale="   94.348">  1  5  2 -1</clus>
</clustering>
</event>
<event>
 9    1  0.4067873E-005  0.2707988E+03  0.7546771E-02  0.1141455E+00
         -2   -1    0    0    0  501 -0.00000000000E+00  0.00000000000E+00  0.21446708308E+03  0.21446708308E+03  0.00000000000E+00 0.  1.
         21   -1    0    0  501  502  0.00000000000E+00 -0.00000000000E+00 -0.47060196904E+03  0.47060196904E+03  0.00000000000E+00 0.  1.
         23    2    1    2    0    0  0.33500493954E+02 -0.11943540040E+02 -0.77632109905E+02  0.12517640224E+03  0.91528443375E+02 0.  0.
        -24    2    1    2    0    0 -0.19079953079E+03  0.19619963615E+03 -0.12502484541E+03  0.31179350637E+03  0.81763197539E+02 0.  0.
         13    1    4    4    0    0 -0.23577340404E+02  0.20702033511E+02 -0.48178080819E+02  0.57494283572E+02  0.00000000000E+00 0. -1.
        -14    1    4    4    0    0 -0.16722219038E+03  0.17549760264E+03 -0.76846764592E+02  0.25429922280E+03  0.00000000000E+00 0.  1.
        -11    1    3    3    0    0  0.58925183208E+02 -0.32392976971E+01 -0.21260667682E+02  0.62727077534E+02  0.00000000000E+00 0.  1.
         11    1    3    3    0    0 -0.25424689254E+02 -0.87042423428E+01 -0.56371442224E+02  0.62449324711E+02  0.00000000000E+00 0. -1.
         -1    1    1    2    0  502  0.15729903683E+03 -0.18425609611E+03 -0.53477930653E+02  0.24809914351E+03  0.00000000000E+00 0.  1.
<scales pt_clust_5="13000.00000" pt_clust_6="13000.00000" pt_clust_7="13000.00000" pt_clust_8="13000.00000" pt_clust_9="258.16046"></scales>
<clustering>
<clus scale="   81.763">  5  6 -1 -1</clus>
<clus scale="   91.528">  7  8 -1 -1</clus>
<clus scale="   98.196">  1  7  2 -1</clus>
<clus scale="  258.160">  2  9  1 -1</clus>
<clus scale="  258.160">  2  5  1 -1</clus>
</clustering>
</event>
<event>
 9    1  0.4067873E-005  0.9717131E+02  0.7546771E-02  0.1292640E+00
         21   -1    0    0  501  502  0.00000000000E+00  0.00000000000E+00  0.11233548964E+03  0.11233548964E+03  0.00000000000E+00 0. -1.
          1   -1    0    0  502    0 -0.00000000000E+00 -0.00000000000E+00 -0.33616796946E+03  0.33616796946E+03  0.00000000000E+00 0. -1.
        -24    2    1    2    0    0 -0.37086912637E+02 -0.28793143360E+02 -0.19155196136E+03  0.21271710383E+03  0.79698984718E+02 0.  0.
         23    2    1    2    0    0 -0.49158512160E+02  0.35296016276E+02 -0.81272829057E+02  0.13638410604E+03  0.91285177080E+02 0.  0.
         13    1    3    3    0    0 -0.20077887471E+02  0.27288359739E+02 -0.72197562305E+02  0.79751264224E+02  0.00000000000E+00 0. -1.
        -14    1    3    3    0    0 -0.17009025166E+02 -0.56081503099E+02 -0.11935439906E+03  0.13296583960E+03  0.00000000000E+00 0.  1.
        -13    1    4    4    0    0 -0.59188940980E+02  0.59103655467E+02 -0.60446625073E+02  0.10320061679E+03  0.00000000000E+00 0. -1.
         13    1    4    4    0    0  0.10030428820E+02 -0.23807639191E+02 -0.20826203984E+02  0.33183489246E+02  0.00000000000E+00 0.  1.
          2    1    1    2  501    0  0.86245424797E+02 -0.65028729165E+01  0.48992310605E+02  0.99402249235E+02  0.00000000000E+00 0. -1.
<scales pt_clust_5="13000.00000" pt_clust_6="13000.00000" pt_clust_7="13000.00000" pt_clust_8="13000.00000" pt_clust_9="86.49023"></scales>
<clustering>
<clus scale="   79.699">  5  6 -1 -1</clus>
<clus scale="   86.490">  1  9  2 -1</clus>
<clus scale="   86.378">  2  5  1 -1</clus>
<clus scale="   91.285">  7  8 -1 -1</clus>
<clus scale="   86.490">  1  5  2 -1</clus>
</clustering>
</event>
<event>
 9    1  0.4067873E-005  0.1202731E+03  0.7546771E-02  0.1245282E+00
         21   -1    0    0  501  502  0.00000000000E+00  0.00000000000E+00  0.23523163583E+02  0.23523163583E+02  0.00000000000E+00 0.  1.
         -2   -1    0    0    0  501 -0.00000000000E+00 -0.00000000000E+00 -0.78709558579E+03  0.78709558579E+03  0.00000000000E+00 0.  1.
        -24    2    1    2    0    0  0.38818995358E+02  0.52285401714E+02 -0.46000962358E+03  0.47488765513E+03  0.98329820344E+02 0.  0.
         23    2    1    2    0    0 -0.61453454056E+02 -0.48084877051E+02 -0.26656559236E+03  0.29215637223E+03  0.90606006341E+02 0.  0.
         13    1    3    3    0    0 -0.74437194002E+00 -0.26906872061E+02 -0.15383471120E+03  0.15617186758E+03  0.00000000000E+00 0. -1.
        -14    1    3    3    0    0  0.39563367298E+02  0.79192273775E+02 -0.30617491238E+03  0.31871578754E+03  0.00000000000E+00 0.  1.
        -11    1    4    4    0    0 -0.82186718846E+02 -0.44952740707E+02 -0.17803213981E+03  0.20117367735E+03  0.00000000000E+00 0.  1.
         11    1    4    4    0    0  0.20733264790E+02 -0.31321363441E+01 -0.88533452554E+02  0.90982694883E+02  0.00000000000E+00 0. -1.
         -1    1    1    2    0  502  0.22634458698E+02 -0.42005246631E+01 -0.36997206257E+02  0.43574722017E+02  0.00000000000E+00 0.  1.
<scales pt_clust_5="13000.00000" pt_clust_6="13000.00000" pt_clust_7="13000.00000" pt_clust_8="13000.00000" pt_clust_9="23.02093"></scales>
<clustering>
<clus scale="   23.021">  1  9  2 -1</clus>
<clus scale="   90.606">  7  8 -1 -1</clus>
<clus scale="   98.330">  5  6 -1 -1</clus>
<clus scale="  114.045">  1  7  2 -1</clus>
<clus scale="   23.021">  1  5  2 -1</clus>
</clustering>
</event>
<event>
 9    1  0.4067873E-005  0.1272659E+03  0.7546771E-02  0.1233768E+00
         21   -1    0    0  501  502  0.00000000000E+00  0.00000000000E+00  0.53468568468E+03  0.53468568468E+03  0.00000000000E+00 0. -1.
          1   -1    0    0  502    0 -0.00000000000E+00 -0.00000000000E+00 -0.60109556787E+02  0.60109556787E+02  0.00000000000E+00 0. -1.
        -24    2    1    2    0    0  0.91946314987E+02 -0.18086723481E+02  0.41998185250E+02  0.13133031430E+03  0.81869099685E+02 0.  0.
         23    2    1    2    0    0 -0.78115973232E+02 -0.20930570574E+02  0.36145412770E+03  0.38117139984E+03  0.90013085521E+02 0.  0.
         13    1    3    3    0    0  0.73527381872E+02 -0.23520409868E+02 -0.81540619357E+01  0.77627149190E+02  0.00000000000E+00 0. -1.
        -14    1    3    3    0    0  0.18418933115E+02  0.54336863869E+01  0.50152247185E+02  0.53703165108E+02  0.00000000000E+00 0.  1.
        -13    1    4    4    0    0 -0.87366922753E+02  0.36882652107E+01  0.21045138713E+03  0.22789552176E+03  0.00000000000E+00 0.  1.
         13    1    4    4    0    0  0.92509495201E+01 -0.24618835785E+02  0.15100274056E+03  0.15327587808E+03  0.00000000000E+00 0. -1.
          2    1    1    2  501    0 -0.13830341754E+02  0.39017294055E+02  0.71123814949E+02  0.82293527335E+02  0.00000000000E+00 0. -1.
<scales pt_clust_5="13000.00000" pt_clust_6="13000.00000" pt_clust_7="13000.00000" pt_clust_8="13000.00000" pt_clust_9="41.39599"></scales>
<clustering>
<clus scale="   41.396">  1  9  2 -1</clus>
<clus scale="   81.869">  5  6 -1 -1</clus>
<clus scale="   90.013">  7  8 -1 -1</clus>
<clus scale="  121.642">  2  5  1 -1</clus>
<clus scale="   41.396">  1  5  2 -1</clus>
</clustering>
</event>
<event>
 9    1  0.4067873E-005  0.1035580E+03  0.7546771E-02  0.1277809E+00
         21   -1    0    0  501  502  0.00000000000E+00  0.00000000000E+00  0.12438331175E+03  0.12438331175E+03  0.00000000000E+00 0.  1.
          1   -1    0    0  502    0 -0.00000000000E+00 -0.00000000000E+00 -0.12013802576E+03  0.12013802576E+03  0.00000000000E+00 0. -1.
        -24    2    1    2    0    0 -0.23284222841E+02  0.40893762045E+02 -0.29700124391E+02  0.96716701527E+02  0.79104792257E+02 0.  0.
         23    2    1    2    0    0  0.47527468225E+02 -0.43865904861E+02  0.46837044207E+02  0.12018647524E+03  0.89822058962E+02 0.  0.
         13    1    3    3    0    0 -0.10283003826E+02  0.52692772165E+02 -0.47522957077E+02  0.71698674014E+02  0.00000000000E+00 0. -1.
        -14    1    3    3    0    0 -0.13001219015E+02 -0.11799010120E+02  0.17822832686E+02  0.25018027513E+02  0.00000000000E+00 0.  1.
        -13    1    4    4    0    0  0.67543626009E+02 -0.54312267295E+02  0.44666705691E+02  0.97504248063E+02  0.00000000000E+00 0.  1.
         13    1    4    4    0    0 -0.20016157784E+02  0.10446362434E+02  0.21703385161E+01  0.22682227180E+02  0.00000000000E+00 0. -1.
          2    1    1    2  501    0 -0.24243245383E+02  0.29721428156E+01 -0.12891633833E+02  0.27618160737E+02  0.00000000000E+00 0. -1.
<scales pt_clust_5="13000.00000" pt_clust_6="13000.00000" pt_clust_7="13000.00000" pt_clust_8="13000.00000" pt_clust_9="24.42477"></scales>
<clustering>
<clus scale="   24.425">  1  9  2 -1</clus>
<clus scale="   79.105">  5  6 -1 -1</clus>
<clus scale="   89.822">  7  8 -1 -1</clus>
<clus scale="   94.413">  2  5  1 -1</clus>
<clus scale="   24.425">  1  5  2 -1</clus>
</clustering>
</event>
<event>
 9    1  0.4067873E-005  0.8378529E+02  0.7546771E-02  0.1320768E+00
          1   -1    0    0  502    0 -0.00000000000E+00  0.00000000000E+00  0.36657733258E+03  0.36657733258E+03  0.00000000000E+00 0. -1.
         21   -1    0    0  501  502  0.00000000000E+00 -0.00000000000E+00 -0.28568098725E+02  0.28568098725E+02  0.00000000000E+00 0. -1.
        -24    2    1    2    0    0 -0.60421560127E+01 -0.10151896530E+02  0.16145248176E+03  0.18009730177E+03  0.78921261925E+02 0.  0.
         23    2    1    2    0    0 -0.91623313312E+01  0.28838694692E+02  0.91362603126E+02  0.12651330092E+03  0.82114989082E+02 0.  0.
         13    1    3    3    0    0  0.69516858468E+01 -0.38576819598E+02  0.45739957743E+02  0.60238199514E+02  0.00000000000E+00 0. -1.
        -14    1    3    3    0    0 -0.12993841860E+02  0.28424923068E+02  0.11571252402E+03  0.11985910225E+03  0.00000000000E+00 0.  1.
        -13    1    4    4    0    0  0.27107888669E+02  0.37529004079E+01  0.27133832009E+01  0.27500624319E+02  0.00000000000E+00 0.  1.
         13    1    4    4    0    0 -0.36270220000E+02  0.25085794284E+02  0.88649219925E+02  0.99012676598E+02  0.00000000000E+00 0. -1.
          2    1    1    2  501    0  0.15204487344E+02 -0.18686798162E+02  0.85194148967E+02  0.88534828622E+02  0.00000000000E+00 0. -1.
<scales pt_clust_5="13000.00000" pt_clust_6="13000.00000" pt_clust_7="13000.00000" pt_clust_8="13000.00000" pt_clust_9="24.09094"></scales>
<clustering>
<clus scale="   24.091">  2  9  1 -1</clus>
<clus scale="   78.921">  5  6 -1 -1</clus>
<clus scale="   80.658">  1  5  2 -1</clus>
<clus scale="   82.115">  7  8 -1 -1</clus>
<clus scale="   24.091">  2  5  1 -1</clus>
</clustering>
</event>
<event>
 9    1  0.4067873E-005  0.9752251E+02  0.7546771E-02  0.1289923E+00
          1   -1    0    0  502    0 -0.00000000000E+00  0.00000000000E+00  0.26247794420E+03  0.26247794420E+03  0.00000000000E+00 0. -1.
         21   -1    0    0  501  502  0.00000000000E+00 -0.00000000000E+00 -0.12037655886E+03  0.12037655886E+03  0.00000000000E+00 0.  1.
         23    2    1    2    0    0 -0.25834758449E+02  0.50468147253E+02  0.14337807483E+03  0.17411077365E+03  0.80887703195E+02 0.  0.
        -24    2    1    2    0    0  0.94185155964E+01 -0.12630390414E+02  0.77858397749E+02  0.11950499956E+03  0.89282022950E+02 0.  0.
         11    1    4    4    0    0 -0.75553310479E+01 -0.36149636023E+02  0.82258642727E+02  0.90168528408E+02  0.00000000000E+00 0. -1.
        -12    1    4    4    0    0  0.16973846644E+02  0.23519245609E+02 -0.44002449780E+01  0.29336471154E+02  0.00000000000E+00 0.  1.
        -11    1    3    3    0    0  0.21596010758E+02  0.29517036133E+02  0.23430365652E+02  0.43435298287E+02  0.00000000000E+00 0.  1.
         11    1    3    3    0    0 -0.47430769206E+02  0.20951111120E+02  0.11994770918E+03  0.13067547536E+03  0.00000000000E+00 0. -1.
          2    1    1    2  501    0  0.16416242852E+02 -0.37837756839E+02 -0.79135087241E+02  0.89238729846E+02  0.00000000000E+00 0. -1.
<scales pt_clust_5="13000.00000" pt_clust_6="13000.00000" pt_clust_7="13000.00000" pt_clust_8="13000.00000" pt_clust_9="41.24547"></scales>
<clustering>
<clus scale="   41.245">  2  9  1 -1</clus>
<clus scale="   80.888">  7  8 -1 -1</clus>
<clus scale="   89.282">  5  6 -1 -1</clus>
<clus scale="   89.901">  1  7  2 -1</clus>
<clus scale="   41.245">  2  5  1 -1</clus>
</clustering>
</event>
<event>
 9    1  0.4067873E-005  0.9548988E+02  0.7546771E-02  0.1296838E+00
         21   -1    0    0  501  502  0.00000000000E+00  0.00000000000E+00  0.62496962422E+02  0.62496962422E+02  0.00000000000E+00 0.  1.
         -4   -1    0    0    0  501 -0.00000000000E+00 -0.00000000000E+00 -0.24705281419E+03  0.24705281419E+03  0.00000000000E+00 0.  1.
        -24    2    1    2    0    0 -0.30023691877E+02 -0.46561416089E+01 -0.89681582137E+02  0.12411446455E+03  0.80240341518E+02 0.  0.
         23    2    1    2    0    0  0.13148529404E+02 -0.26704196154E+02 -0.14862606393E+02  0.97856158452E+02  0.92026804576E+02 0.  0.
         13    1    3    3    0    0  0.22270283433E+02 -0.18253677633E+02 -0.47582798147E+02  0.55617308015E+02  0.00000000000E+00 0. -1.
        -14    1    3    3    0    0 -0.52293975311E+02  0.13597536024E+02 -0.42098783990E+02  0.68497156533E+02  0.00000000000E+00 0.  1.
        -13    1    4    4    0    0  0.30926896211E+02 -0.38783193328E+02 -0.40759024805E+02  0.64202080161E+02  0.00000000000E+00 0.  1.
         13    1    4    4    0    0 -0.17778366807E+02  0.12078997174E+02  0.25896418412E+02  0.33654078291E+02  0.00000000000E+00 0. -1.
         -3    1    1    2    0  502  0.16875162473E+02  0.31360337763E+02 -0.80011663241E+02  0.87579153614E+02  0.00000000000E+00 0.  1.
<scales pt_clust_5="13000.00000" pt_clust_6="13000.00000" pt_clust_7="13000.00000" pt_clust_8="13000.00000" pt_clust_9="35.61240"></scales>
<clustering>
<clus scale="   35.612">  1  9  2 -1</clus>
<clus scale="   80.240">  5  6 -1 -1</clus>
<clus scale="   84.190">  2  5  1 -1</clus>
<clus scale="   92.027">  7  8 -1 -1</clus>
<clus scale="   35.612">  1  5  2 -1</clus>
</clustering>
</event>
<event>
 9    1  0.4067873E-005  0.9234362E+02  0.7546771E-02  0.1303809E+00
          3   -1    0    0  502    0 -0.00000000000E+00  0.00000000000E+00  0.16329144899E+03  0.16329144899E+03  0.00000000000E+00 0. -1.
         21   -1    0    0  501  502  0.00000000000E+00 -0.00000000000E+00 -0.28625471970E+03  0.28625471970E+03  0.00000000000E+00 0. -1.
        -24    2    1    2    0    0 -0.15940759642E+02  0.64023498184E+01  0.94598280985E+02  0.12545220079E+03  0.80587356436E+02 0.  0.
         23    2    1    2    0    0  0.91956279670E+01  0.28489988814E+02  0.74583777155E+01  0.96284967355E+02  0.91208160294E+02 0.  0.
         11    1    3    3    0    0 -0.35359802437E+02  0.15968023533E+02  0.96216661493E+02  0.10374458710E+03  0.00000000000E+00 0. -1.
        -12    1    3    3    0    0  0.19419042795E+02 -0.95656737147E+01 -0.16183805083E+01  0.21707613691E+02  0.00000000000E+00 0.  1.
        -11    1    4    4    0    0 -0.26764652802E+02  0.45105486609E+02 -0.93105311015E+01  0.53268541854E+02  0.00000000000E+00 0. -1.
         11    1    4    4    0    0  0.35960280769E+02 -0.16615497795E+02  0.16768908817E+02  0.43016425501E+02  0.00000000000E+00 0.  1.
          4    1    1    2  501    0  0.67451316750E+01 -0.34892338633E+02 -0.22501992941E+03  0.22780900054E+03  0.00000000000E+00 0. -1.
<scales pt_clust_5="13000.00000" pt_clust_6="13000.00000" pt_clust_7="13000.00000" pt_clust_8="13000.00000" pt_clust_9="35.53832"></scales>
<clustering>
<clus scale="   35.538">  2  9  1 -1</clus>
<clus scale="   80.587">  5  6 -1 -1</clus>
<clus scale="   81.870">  1  5  2 -1</clus>
<clus scale="   91.208">  7  8 -1 -1</clus>
<clus scale="   35.538">  2  5  1 -1</clus>
</clustering>
</event>
<event>
 9    1  0.4067873E-005  0.9895878E+02  0.7546771E-02  0.1285569E+00
         21   -1    0    0  501  502  0.00000000000E+00  0.00000000000E+00  0.46104158117E+03  0.46104158117E+03  0.00000000000E+00 0.  1.
          1   -1    0    0  502    0 -0.00000000000E+00 -0.00000000000E+00 -0.47689677631E+02  0.47689677631E+02  0.00000000000E+00 0. -1.
        -24    2    1    2    0    0  0.43915824935E+02  0.61385507314E+01  0.31006654442E+02  0.97944720855E+02  0.81642355667E+02 0.  0.
         23    2    1    2    0    0 -0.40751178378E+02 -0.39278893578E+02  0.20286727689E+03  0.22824711804E+03  0.87966612082E+02 0.  0.
         11    1    3    3    0    0  0.29215373745E+02  0.35504606042E+02 -0.83022722050E+01  0.46723043961E+02  0.00000000000E+00 0. -1.
        -12    1    3    3    0    0  0.14700451191E+02 -0.29366055310E+02  0.39308926647E+02  0.51221676894E+02  0.00000000000E+00 0.  1.
        -11    1    4    4    0    0 -0.54585652717E+02 -0.56505724889E+02  0.18025579563E+03  0.19663326851E+03  0.00000000000E+00 0.  1.
         11    1    4    4    0    0  0.13834474339E+02  0.17226831310E+02  0.22611481262E+02  0.31613849530E+02  0.00000000000E+00 0. -1.
          2    1    1    2  501    0 -0.31646465570E+01  0.33140342847E+02  0.17947797220E+03  0.18253941990E+03  0.00000000000E+00 0. -1.
<scales pt_clust_5="13000.00000" pt_clust_6="13000.00000" pt_clust_7="13000.00000" pt_clust_8="13000.00000" pt_clust_9="33.29110"></scales>
<clustering>
<clus scale="   33.291">  1  9  2 -1</clus>
<clus scale="   81.642">  5  6 -1 -1</clus>
<clus scale="   87.967">  7  8 -1 -1</clus>
<clus scale="   93.382">  2  5  1 -1</clus>
<clus scale="   33.291">  1  5  2 -1</clus>
</clustering>
</event>
<event>
 9    1  0.4067873E-005  0.1331212E+03  0.7546771E-02  0.1250863E+00
         21   -1    0    0  501  502  0.00000000000E+00  0.00000000000E+00  0.43056910380E+02  0.43056910380E+02  0.00000000000E+00 0.  1.
          1   -1    0    0  502    0 -0.00000000000E+00 -0.00000000000E+00 -0.59088225748E+03  0.59088225748E+03  0.00000000000E+00 0. -1.
        -24    2    1    2    0    0  0.20460288254E+01  0.29009107282E+01 -0.22743784869E+03  0.23955021576E+03  0.75124758472E+02 0.  0.
         23    2    1    2    0    0  0.89874343135E+02 -0.34473459848E+02 -0.18095326528E+03  0.22442399686E+03  0.91412412544E+02 0.  0.
         13    1    3    3    0    0  0.15919844121E+02  0.35262885479E+02 -0.96670286366E+02  0.10412519770E+03  0.00000000000E+00 0. -1.
        -14    1    3    3    0    0 -0.13873815295E+02 -0.32361974751E+02 -0.13076756232E+03  0.13542501806E+03  0.00000000000E+00 0.  1.
        -13    1    4    4    0    0  0.46384302064E+02 -0.17610995944E+02 -0.14693564893E+02  0.51745062618E+02  0.00000000000E+00 0.  1.
         13    1    4    4    0    0  0.43490041072E+02 -0.16862463904E+02 -0.16625970038E+03  0.17267893425E+03  0.00000000000E+00 0. -1.
          2    1    1    2  501    0 -0.91920371961E+02  0.31572549120E+02 -0.13943423314E+03  0.16996495524E+03  0.00000000000E+00 0. -1.
<scales pt_clust_5="13000.00000" pt_clust_6="13000.00000" pt_clust_7="13000.00000" pt_clust_8="13000.00000" pt_clust_9="96.77305"></scales>
<clustering>
<clus scale="   75.125">  5  6 -1 -1</clus>
<clus scale="   75.209">  2  5  1 -1</clus>
<clus scale="   91.412">  7  8 -1 -1</clus>
<clus scale="   96.773">  1  9  2 -1</clus>
<clus scale="   96.773">  1  5  2 -1</clus>
</clustering>
</event>
<event>
 9    1  0.4067873E-005  0.1193946E+03  0.7546771E-02  0.1248964E+00
         21   -1    0    0  501  502  0.00000000000E+00  0.00000000000E+00  0.48693436335E+02  0.48693436335E+02  0.00000000000E+00 0. -1.
          1   -1    0    0  502    0 -0.00000000000E+00 -0.00000000000E+00 -0.56251881403E+03  0.56251881403E+03  0.00000000000E+00 0. -1.
         23    2    1    2    0    0 -0.64636594242E+02  0.49371484512E+02 -0.44932553162E+03  0.46619115989E+03  0.93943234940E+02 0.  0.
        -24    2    1    2    0    0  0.39930590392E+02 -0.32140536547E+02 -0.65401439266E+02  0.11488630884E+03  0.79335046239E+02 0.  0.
         13    1    4    4    0    0  0.39511485414E+02 -0.12692711990E+02 -0.80296023170E+02  0.90386468866E+02  0.00000000000E+00 0. -1.
        -14    1    4    4    0    0  0.41910497797E+00 -0.19447824557E+02  0.14894583904E+02  0.24499839972E+02  0.00000000000E+00 0.  1.
        -11    1    3    3    0    0  0.15068329699E+02  0.21117885830E+02 -0.36420079160E+02  0.44715118560E+02  0.00000000000E+00 0.  1.
         11    1    3    3    0    0 -0.79704923942E+02  0.28253598682E+02 -0.41290545246E+03  0.42147604133E+03  0.00000000000E+00 0. -1.
          2    1    1    2  501    0  0.24706003851E+02 -0.17230947966E+02  0.90159319527E+00  0.30134781638E+02  0.00000000000E+00 0. -1.
<scales pt_clust_5="13000.00000" pt_clust_6="13000.00000" pt_clust_7="13000.00000" pt_clust_8="13000.00000" pt_clust_9="30.12129"></scales>
<clustering>
<clus scale="   30.121">  1  9  2 -1</clus>
<clus scale="   79.335">  5  6 -1 -1</clus>
<clus scale="   93.943">  7  8 -1 -1</clus>
<clus scale="  108.276">  1  5  2 -1</clus>
<clus scale="   30.121">  1  5  2 -1</clus>
</clustering>
</event>
<event>
 9    1  0.4067873E-005  0.1246182E+03  0.7546771E-02  0.1238314E+00
         21   -1    0    0  501  502  0.00000000000E+00  0.00000000000E+00  0.19267647424E+03  0.19267647424E+03  0.00000000000E+00 0.  1.
         -4   -1    0    0    0  501 -0.00000000000E+00 -0.00000000000E+00 -0.42599748495E+03  0.42599748495E+03  0.00000000000E+00 0.  1.
        -24    2    1    2    0    0 -0.86524080424E+02 -0.46964572908E+02 -0.35011907525E+03  0.37254671206E+03  0.80719255512E+02 0.  0.
         23    2    1    2    0    0  0.35364444827E+02  0.19976167114E+02 -0.17125547212E+02  0.10024641854E+03  0.90035375566E+02 0.  0.
         13    1    3    3    0    0 -0.35092480650E+02 -0.60331197264E+02 -0.14918113667E+03  0.16470078051E+03  0.00000000000E+00 0. -1.
        -14    1    3    3    0    0 -0.51431599773E+02  0.13366624356E+02 -0.20093793858E+03  0.20784593155E+03  0.00000000000E+00 0.  1.
        -13    1    4    4    0    0 -0.16226919981E+02 -0.15269548220E+02 -0.29076657705E+02  0.36632281641E+02  0.00000000000E+00 0.  1.
         13    1    4    4    0    0  0.51591364807E+02  0.35245715334E+02  0.11951110493E+02  0.63614136904E+02  0.00000000000E+00 0. -1.
         -3    1    1    2    0  502  0.51159635597E+02  0.26988405795E+02  0.13392361175E+03  0.14588082858E+03  0.00000000000E+00 0.  1.
<scales pt_clust_5="13000.00000" pt_clust_6="13000.00000" pt_clust_7="13000.00000" pt_clust_8="13000.00000" pt_clust_9="57.84187"></scales>
<clustering>
<clus scale="   57.842">  1  9  2 -1</clus>
<clus scale="   80.719">  5  6 -1 -1</clus>
<clus scale="   90.035">  7  8 -1 -1</clus>
<clus scale="  118.063">  2  5  1 -1</clus>
<clus scale="   57.842">  1  5  2 -1</clus>
</clustering>
</event>
<event>
 9    1  0.4067873E-005  0.1044831E+03  0.7546771E-02  0.1276221E+00
         21   -1    0    0  501  502  0.00000000000E+00  0.00000000000E+00  0.67475579887E+03  0.67475579887E+03  0.00000000000E+00 0. -1.
         -4   -1    0    0    0  501 -0.00000000000E+00 -0.00000000000E+00 -0.25704047270E+02  0.25704047270E+02  0.00000000000E+00 0.  1.
         23    2    1    2    0    0  0.34335920229E+02 -0.95741179325E+01  0.26070865455E+03  0.27860270122E+03  0.91541484693E+02 0.  0.
        -24    2    1    2    0    0 -0.71413716116E+02 -0.89888163575E+01  0.34675827632E+03  0.36313199875E+03  0.80267232731E+02 0.  0.
         13    1    4    4    0    0 -0.51266966416E+02  0.30990429359E+02  0.15395691143E+03  0.16520120803E+03  0.00000000000E+00 0. -1.
        -14    1    4    4    0    0 -0.20146749699E+02 -0.39979245717E+02  0.19280136488E+03  0.19793079071E+03  0.00000000000E+00 0.  1.
        -11    1    3    3    0    0  0.51691367648E+01  0.39889342528E+02  0.92641589869E+02  0.10099675141E+03  0.00000000000E+00 0.  1.
         11    1    3    3    0    0  0.29166783464E+02 -0.49463460460E+02  0.16806706468E+03  0.17760594981E+03  0.00000000000E+00 0. -1.
         -3    1    1    2    0  502  0.37077795887E+02  0.18562934290E+02  0.41584820734E+02  0.58725146171E+02  0.00000000000E+00 0.  1.
<scales pt_clust_5="13000.00000" pt_clust_6="13000.00000" pt_clust_7="13000.00000" pt_clust_8="13000.00000" pt_clust_9="41.46501"></scales>
<clustering>
<clus scale="   41.465">  1  9  2 -1</clus>
<clus scale="   80.267">  5  6 -1 -1</clus>
<clus scale="   91.541">  7  8 -1 -1</clus>
<clus scale="   94.761">  1  5  2 -1</clus>
<clus scale="   41.465">  1  5  2 -1</clus>
</clustering>
</event>
<event>
 9    1  0.1059090E-004  0.1686127E+03  0.7546771E-02  0.1185637E+00
         21   -1    0    0  501  502  0.00000000000E+00  0.00000000000E+00  0.30316291210E+03  0.30316291210E+03  0.00000000000E+00 0.  1.
          1   -1    0    0  502    0 -0.00000000000E+00 -0.00000000000E+00 -0.50464907071E+03  0.50464907071E+03  0.00000000000E+00 0. -1.
         23    2    1    2    0    0  0.12536035402E+03  0.14317054818E+02 -0.44604093325E+03  0.47727416834E+03  0.11365703329E+03 0.  0.
        -24    2    1    2    0    0 -0.11474104874E+03  0.20996122844E+02  0.78028830686E+02  0.15997791247E+03  0.76799014460E+02 0.  0.
         13    1    4    4    0    0 -0.30956194108E+02  0.35990592074E+02  0.48328486345E+01  0.47717555443E+02  0.00000000000E+00 0. -1.
        -14    1    4    4    0    0 -0.83784854627E+02 -0.14994469230E+02  0.73195982052E+02  0.11226035703E+03  0.00000000000E+00 0.  1.
        -13    1    3    3    0    0 -0.20420716490E+02  0.33851246642E+01 -0.90783775908E+02  0.93113686959E+02  0.00000000000E+00 0.  1.
         13    1    3    3    0    0  0.14578107051E+03  0.10931930154E+02 -0.35525715734E+03  0.38416048138E+03  0.00000000000E+00 0. -1.
          2    1    1    2  501    0 -0.10619305281E+02 -0.35313177662E+02  0.16652594395E+03  0.17055990200E+03  0.00000000000E+00 0. -1.
<scales pt_clust_5="13000.00000" pt_clust_6="13000.00000" pt_clust_7="13000.00000" pt_clust_8="13000.00000" pt_clust_9="36.87533"></scales>
<clustering>
<clus scale="   36.875">  1  9  2 -1</clus>
<clus scale="   76.799">  5  6 -1 -1</clus>
<clus scale="  113.657">  7  8 -1 -1</clus>
<clus scale="  146.323">  1  5  2 -1</clus>
<clus scale="   36.875">  1  5  2 -1</clus>
</clustering>
</event>
<event>
 9    1  0.4067873E-005  0.4301670E+03  0.7546771E-02  0.1033807E+00
         21   -1    0    0  501  502  0.00000000000E+00  0.00000000000E+00  0.20667624423E+03  0.20667624423E+03  0.00000000000E+00 0. -1.
         -4   -1    0    0    0  501 -0.00000000000E+00 -0.00000000000E+00 -0.79579819286E+03  0.79579819286E+03  0.00000000000E+00 0.  1.
        -24    2    1    2    0    0  0.56610089605E+02  0.46358386917E+02 -0.83596279599E+02  0.13689338457E+03  0.79985364248E+02 0.  0.
         23    2    1    2    0    0  0.27252777401E+03  0.14532420826E+03 -0.23450568751E+03  0.39811364088E+03  0.90061315064E+02 0.  0.
         11    1    3    3    0    0  0.17895411823E+02 -0.20280914487E+02 -0.63642511550E+01  0.27786056747E+02  0.00000000000E+00 0. -1.
        -12    1    3    3    0    0  0.38714677782E+02  0.66639301405E+02 -0.77232028444E+02  0.10910732782E+03  0.00000000000E+00 0.  1.
        -11    1    4    4    0    0  0.11215823733E+03  0.10998996243E+03 -0.10460795134E+03  0.18873284166E+03  0.00000000000E+00 0. -1.
         11    1    4    4    0    0  0.16036953667E+03  0.35334245826E+02 -0.12989773617E+03  0.20938079922E+03  0.00000000000E+00 0.  1.
         -3    1    1    2    0  502 -0.32913786361E+03 -0.19168259517E+03 -0.27101998152E+03  0.46746741163E+03  0.00000000000E+00 0.  1.
<scales pt_clust_5="13000.00000" pt_clust_6="13000.00000" pt_clust_7="13000.00000" pt_clust_8="13000.00000" pt_clust_9="380.88574"></scales>
<clustering>
<clus scale="   79.985">  5  6 -1 -1</clus>
<clus scale="   90.061">  7  8 -1 -1</clus>
<clus scale="   91.272">  5  7 -1 -1</clus>
<clus scale="  380.886">  1  9  2 -1</clus>
<clus scale="  380.886">  1  5  2 -1</clus>
</clustering>
</event>
<event>
 9    1  0.4067873E-005  0.9817200E+02  0.7546771E-02  0.1289476E+00
         -4   -1    0    0    0  501 -0.00000000000E+00  0.00000000000E+00  0.62316583117E+03  0.62316583117E+03  0.00000000000E+00 0.  1.
         21   -1    0    0  501  502  0.00000000000E+00 -0.00000000000E+00 -0.31534056626E+02  0.31534056626E+02  0.00000000000E+00 0.  1.
        -24    2    1    2    0    0 -0.37622345653E+02  0.16264508256E+02  0.43383079163E+03  0.44321011496E+03  0.80907818667E+02 0.  0.
         23    2    1    2    0    0  0.29936743201E+02  0.14016158360E+02  0.15120597850E+03  0.17956045497E+03  0.91027730767E+02 0.  0.
         11    1    3    3    0    0  0.23085249524E+02  0.18983259344E+02  0.14936831830E+03  0.15232920729E+03  0.00000000000E+00 0. -1.
        -12    1    3    3    0    0 -0.60707595177E+02 -0.27187510884E+01  0.28446247332E+03  0.29088090767E+03  0.00000000000E+00 0.  1.
        -13    1    4    4    0    0  0.26018504477E+02  0.42427383002E+02  0.14031799681E+03  0.14888312742E+03  0.00000000000E+00 0.  1.
         13    1    4    4    0    0  0.39182387238E+01 -0.28411224641E+02  0.10887981689E+02  0.30677327550E+02  0.00000000000E+00 0. -1.
         -3    1    1    2    0  502  0.76856024516E+01 -0.30280666616E+02  0.65950044242E+01  0.31929317862E+02  0.00000000000E+00 0.  1.
<scales pt_clust_5="13000.00000" pt_clust_6="13000.00000" pt_clust_7="13000.00000" pt_clust_8="13000.00000" pt_clust_9="31.24079"></scales>
<clustering>
<clus scale="   31.241">  2  9  1 -1</clus>
<clus scale="   80.908">  5  6 -1 -1</clus>
<clus scale="   88.869">  1  5  2 -1</clus>
<clus scale="   91.028">  7  8 -1 -1</clus>
<clus scale="   31.241">  2  5  1 -1</clus>
</clustering>
</event>
<event>
 9    1  0.4067873E-005  0.1143825E+03  0.7546771E-02  0.1259805E+00
         21   -1    0    0  501  502  0.00000000000E+00  0.00000000000E+00  0.77134120146E+02  0.77134120146E+02  0.00000000000E+00 0. -1.
         -4   -1    0    0    0  501 -0.00000000000E+00 -0.00000000000E+00 -0.10774374172E+04  0.10774374172E+04  0.00000000000E+00 0.  1.
        -24    2    1    2    0    0 -0.60843056273E+02 -0.26888129377E+02 -0.97156238969E+03  0.97670046187E+03  0.74735976288E+02 0.  0.
         23    2    1    2    0    0  0.31563318325E+02  0.52814739570E+02 -0.60510133181E+02  0.12748480876E+03  0.93836349389E+02 0.  0.
         13    1    3    3    0    0 -0.49227364863E+02  0.68614585192E+00 -0.26687226429E+03  0.27137540363E+03  0.00000000000E+00 0. -1.
        -14    1    3    3    0    0 -0.11615691410E+02 -0.27574275229E+02 -0.70469012541E+03  0.70532505824E+03  0.00000000000E+00 0.  1.
        -13    1    4    4    0    0  0.30954881749E+02  0.22130570739E+02 -0.81742816700E+02  0.90165708268E+02  0.00000000000E+00 0.  1.
         13    1    4    4    0    0  0.60843657570E+00  0.30684168831E+02  0.21232683519E+02  0.37319100489E+02  0.00000000000E+00 0. -1.
         -3    1    1    2    0  502  0.29279737948E+02 -0.25926610193E+02  0.31769225786E+02  0.50386266754E+02  0.00000000000E+00 0.  1.
<scales pt_clust_5="13000.00000" pt_clust_6="13000.00000" pt_clust_7="13000.00000" pt_clust_8="13000.00000" pt_clust_9="39.10872"></scales>
<clustering>
<clus scale="   39.109">  1  9  2 -1</clus>
<clus scale="   74.736">  5  6 -1 -1</clus>
<clus scale="   93.836">  7  8 -1 -1</clus>
<clus scale="   99.315">  2  5  1 -1</clus>
<clus scale="   39.109">  1  5  2 -1</clus>
</clustering>
</event>
<event>
 9    1  0.4067873E-005  0.1814287E+03  0.7546771E-02  0.1187935E+00
          1   -1    0    0  502    0 -0.00000000000E+00  0.00000000000E+00  0.15553186136E+04  0.15553186136E+04  0.00000000000E+00 0. -1.
         21   -1    0    0  501  502  0.00000000000E+00 -0.00000000000E+00 -0.33978774914E+02  0.33978774914E+02  0.00000000000E+00 0.  1.
        -24    2    1    2    0    0 -0.30934123092E+01 -0.78008801332E+02  0.31286376053E+03  0.33217431905E+03  0.79756525144E+02 0.  0.
         23    2    1    2    0    0 -0.88199800676E+02  0.17132107664E+03  0.70795291884E+03  0.73985615145E+03  0.95182316600E+02 0.  0.
         11    1    3    3    0    0  0.20990547262E+02 -0.57297504930E+01  0.19968036529E+02  0.29532280608E+02  0.00000000000E+00 0. -1.
        -12    1    3    3    0    0 -0.24083959571E+02 -0.72279050839E+02  0.29289572400E+03  0.30264203845E+03  0.00000000000E+00 0.  1.
        -13    1    4    4    0    0 -0.61366826423E+01  0.10226731385E+03  0.42724679152E+03  0.43935871815E+03  0.00000000000E+00 0.  1.
         13    1    4    4    0    0 -0.82063118034E+02  0.69053762795E+02  0.28070612733E+03  0.30049743329E+03  0.00000000000E+00 0. -1.
          2    1    1    2  501    0  0.91293212985E+02 -0.93312275310E+02  0.50052315935E+03  0.51726691805E+03  0.00000000000E+00 0. -1.
<scales pt_clust_5="13000.00000" pt_clust_6="13000.00000" pt_clust_7="13000.00000" pt_clust_8="13000.00000" pt_clust_9="154.45613"></scales>
<clustering>
<clus scale="   79.757">  5  6 -1 -1</clus>
<clus scale="   95.182">  7  8 -1 -1</clus>
<clus scale="  111.607">  1  5  2 -1</clus>
<clus scale="  154.456">  2  9  1 -1</clus>
<clus scale="  154.456">  2  5  1 -1</clus>
</clustering>
</event>
<event>
 9    1  0.4067873E-005  0.9795619E+02  0.7546771E-02  0.1290385E+00
         21   -1    0    0  501  502  0.00000000000E+00  0.00000000000E+00  0.76712216757E+02  0.76712216757E+02  0.00000000000E+00 0.  1.
         -4   -1    0    0    0  501 -0.00000000000E+00 -0.00000000000E+00 -0.63136419442E+03  0.63136419442E+03  0.00000000000E+00 0.  1.
        -24    2    1    2    0    0 -0.42039998626E+01  0.39648723242E+02 -0.47309498197E+03  0.48153909041E+03  0.80444631662E+02 0.  0.
         23    2    1    2    0    0 -0.20052723908E+02 -0.20624063145E+02 -0.13461814432E+03  0.16517110992E+03  0.91279718744E+02 0.  0.
         11    1    3    3    0    0 -0.16039486872E+02 -0.13706839984E+02 -0.42080484118E+02  0.47073450533E+02  0.00000000000E+00 0. -1.
        -12    1    3    3    0    0  0.11835487010E+02  0.53355563226E+02 -0.43101449785E+03  0.43446563988E+03  0.00000000000E+00 0.  1.
        -11    1    4    4    0    0 -0.41820256535E+02 -0.93739803690E+01 -0.18818510383E+02  0.46807496169E+02  0.00000000000E+00 0.  1.
         11    1    4    4    0    0  0.21767532626E+02 -0.11250082776E+02 -0.11579963394E+03  0.11836361375E+03  0.00000000000E+00 0. -1.
         -3    1    1    2    0  502  0.24256723771E+02 -0.19024660097E+02  0.53061148627E+02  0.61366210846E+02  0.00000000000E+00 0.  1.
<scales pt_clust_5="13000.00000" pt_clust_6="13000.00000" pt_clust_7="13000.00000" pt_clust_8="13000.00000" pt_clust_9="30.82736"></scales>
<clustering>
<clus scale="   30.827">  1  9  2 -1</clus>
<clus scale="   80.445">  5  6 -1 -1</clus>
<clus scale="   87.948">  2  5  1 -1</clus>
<clus scale="   91.280">  7  8 -1 -1</clus>
<clus scale="   30.827">  1  5  2 -1</clus>
</clustering>
</event>
<event>
 9    1  0.4067873E-005  0.1220557E+03  0.7546771E-02  0.1260700E+00
          1   -1    0    0  502    0 -0.00000000000E+00  0.00000000000E+00  0.10850732595E+03  0.10850732595E+03  0.00000000000E+00 0. -1.
         21   -1    0    0  501  502  0.00000000000E+00 -0.00000000000E+00 -0.20893558160E+03  0.20893558160E+03  0.00000000000E+00 0.  1.
        -24    2    1    2    0    0 -0.61634208337E+00 -0.51980406352E+01 -0.26068575961E+02  0.84437885471E+02  0.80142288127E+02 0.  0.
         23    2    1    2    0    0 -0.80172139211E+02 -0.65050023144E+01 -0.88001928807E+02  0.15024119613E+03  0.91423140294E+02 0.  0.
         13    1    3    3    0    0  0.25966984889E+02 -0.55987671741E+01 -0.44683091343E+02  0.51982777437E+02  0.00000000000E+00 0. -1.
        -14    1    3    3    0    0 -0.26583326972E+02  0.40072653892E+00  0.18614515382E+02  0.32455108035E+02  0.00000000000E+00 0.  1.
        -13    1    4    4    0    0 -0.62237321601E+02  0.10766817621E+02 -0.10325503175E+03  0.12104135716E+03  0.00000000000E+00 0.  1.
         13    1    4    4    0    0 -0.17934817610E+02 -0.17271819935E+02  0.15253102943E+02  0.29199838972E+02  0.00000000000E+00 0. -1.
          2    1    1    2  501    0  0.80788481294E+02  0.11703042950E+02  0.13642249110E+02  0.82763825944E+02  0.00000000000E+00 0. -1.
<scales pt_clust_5="13000.00000" pt_clust_6="13000.00000" pt_clust_7="13000.00000" pt_clust_8="13000.00000" pt_clust_9="80.86664"></scales>
<clustering>
<clus scale="   80.142">  5  6 -1 -1</clus>
<clus scale="   80.313">  1  5  2 -1</clus>
<clus scale="   80.867">  2  9  1 -1</clus>
<clus scale="   91.423">  7  8 -1 -1</clus>
<clus scale="   80.867">  2  5  1 -1</clus>
</clustering>
</event>
<event>
 9    1  0.4067873E-005  0.9814200E+02  0.7546771E-02  0.1289771E+00
         -4   -1    0    0    0  501 -0.00000000000E+00  0.00000000000E+00  0.12295106067E+03  0.12295106067E+03  0.00000000000E+00 0.  1.
         21   -1    0    0  501  502  0.00000000000E+00 -0.00000000000E+00 -0.45776604043E+03  0.45776604043E+03  0.00000000000E+00 0.  1.
        -24    2    1    2    0    0  0.18795011047E+02 -0.50368793632E+02  0.69783351342E+02  0.11864977301E+03  0.79484493448E+02 0.  0.
         23    2    1    2    0    0  0.15363087674E+02 -0.69274367333E+01 -0.56656251350E+02  0.10778873068E+03  0.90135818636E+02 0.  0.
         13    1    3    3    0    0  0.27585887170E+02  0.12523336639E+02  0.34830487911E+02  0.46162517475E+02  0.00000000000E+00 0. -1.
        -14    1    3    3    0    0 -0.87908761227E+01 -0.62892130271E+02  0.34952863431E+02  0.72487255535E+02  0.00000000000E+00 0.  1.
        -11    1    4    4    0    0  0.38387337504E+02  0.27661866957E+02 -0.43314852963E+02  0.64147821876E+02  0.00000000000E+00 0.  1.
         11    1    4    4    0    0 -0.23024249830E+02 -0.34589303690E+02 -0.13341398387E+02  0.43640908801E+02  0.00000000000E+00 0. -1.
         -3    1    1    2    0  502 -0.34158098721E+02  0.57296230365E+02 -0.34794207975E+03  0.35427859741E+03  0.00000000000E+00 0.  1.
<scales pt_clust_5="13000.00000" pt_clust_6="13000.00000" pt_clust_7="13000.00000" pt_clust_8="13000.00000" pt_clust_9="66.70557"></scales>
<clustering>
<clus scale="   66.706">  2  9  1 -1</clus>
<clus scale="   79.484">  5  6 -1 -1</clus>
<clus scale="   88.460">  1  5  2 -1</clus>
<clus scale="   90.136">  7  8 -1 -1</clus>
<clus scale="   66.706">  2  5  1 -1</clus>
</clustering>
</event>
<event>
 9    1  0.4067873E-005  0.1186965E+03  0.7546771E-02  0.1249608E+00
          1   -1    0    0  502    0 -0.00000000000E+00  0.00000000000E+00  0.28361842326E+03  0.28361842326E+03  0.00000000000E+00 0. -1.
         21   -1    0    0  501  502  0.00000000000E+00 -0.00000000000E+00 -0.58357220563E+02  0.58357220563E+02  0.00000000000E+00 0.  1.
         23    2    1    2    0    0 -0.65505987242E+02  0.20788108114E+02  0.10599348851E+03  0.15596700816E+03  0.91476271373E+02 0.  0.
        -24    2    1    2    0    0  0.73346209994E+02 -0.42933077844E+02  0.80833619607E+02  0.14096367586E+03  0.78190588693E+02 0.  0.
         13    1    4    4    0    0  0.43312753412E+02 -0.55521205021E+02  0.82364501243E+02  0.10836286209E+03  0.00000000000E+00 0. -1.
        -14    1    4    4    0    0  0.30033456582E+02  0.12588127177E+02 -0.15308816364E+01  0.32600813773E+02  0.00000000000E+00 0.  1.
        -11    1    3    3    0    0 -0.93873586472E+01 -0.34429111147E+02  0.33422465168E+02  0.48893224220E+02  0.00000000000E+00 0.  1.
         11    1    3    3    0    0 -0.56118628594E+02  0.55217219260E+02  0.72571023337E+02  0.10707378394E+03  0.00000000000E+00 0. -1.
          2    1    1    2  501    0 -0.78402227521E+01  0.22144969731E+02  0.38434094584E+02  0.45044959803E+02  0.00000000000E+00 0. -1.
<scales pt_clust_5="13000.00000" pt_clust_6="13000.00000" pt_clust_7="13000.00000" pt_clust_8="13000.00000" pt_clust_9="23.49190"></scales>
<clustering>
<clus scale="   23.492">  2  9  1 -1</clus>
<clus scale="   78.191">  5  6 -1 -1</clus>
<clus scale="   91.476">  7  8 -1 -1</clus>
<clus scale="  108.788">  2  5  1 -1</clus>
<clus scale="   23.492">  2  5  1 -1</clus>
</clustering>
</event>
<event>
 9    1  0.4067873E-005  0.1205954E+03  0.7546771E-02  0.1245976E+00
         21   -1    0    0  501  502  0.00000000000E+00  0.00000000000E+00  0.61790598927E+02  0.61790598927E+02  0.00000000000E+00 0. -1.
         -4   -1    0    0    0  501 -0.00000000000E+00 -0.00000000000E+00 -0.84687385430E+03  0.84687385430E+03  0.00000000000E+00 0.  1.
        -24    2    1    2    0    0  0.24262518939E+02  0.72738631061E+02 -0.73723016125E+03  0.74561006934E+03  0.80910361364E+02 0.  0.
         23    2    1    2    0    0  0.45602971354E+01 -0.83554666056E+02 -0.37690785084E+02  0.13063503990E+03  0.92966337126E+02 0.  0.
         11    1    3    3    0    0 -0.20831149066E+02  0.10191883840E+02 -0.65804498261E+02  0.69771364176E+02  0.00000000000E+00 0. -1.
        -12    1    3    3    0    0  0.45093668006E+02  0.62546747221E+02 -0.67142566299E+03  0.67583870517E+03  0.00000000000E+00 0.  1.
        -13    1    4    4    0    0 -0.22350379375E+02 -0.71171739920E+02 -0.58190843060E+02  0.94610412944E+02  0.00000000000E+00 0.  1.
         13    1    4    4    0    0  0.26910676511E+02 -0.12382926136E+02  0.20500057976E+02  0.36024626951E+02  0.00000000000E+00 0. -1.
         -3    1    1    2    0  502 -0.28822816075E+02  0.10816034995E+02 -0.10162309038E+02  0.32419343986E+02  0.00000000000E+00 0.  1.
<scales pt_clust_5="13000.00000" pt_clust_6="13000.00000" pt_clust_7="13000.00000" pt_clust_8="13000.00000" pt_clust_9="30.78541"></scales>
<clustering>
<clus scale="   30.785">  1  9  2 -1</clus>
<clus scale="   80.910">  5  6 -1 -1</clus>
<clus scale="   92.966">  7  8 -1 -1</clus>
<clus scale="  111.566">  2  5  1 -1</clus>
<clus scale="   30.785">  1  5  2 -1</clus>
</clustering>
</event>
<event>
 9    1  0.4067873E-005  0.1801350E+03  0.7546771E-02  0.1196129E+00
         21   -1    0    0  501  502  0.00000000000E+00  0.00000000000E+00  0.85030456442E+02  0.85030456442E+02  0.00000000000E+00 0.  1.
         -4   -1    0    0    0  501 -0.00000000000E+00 -0.00000000000E+00 -0.71663879440E+03  0.71663879440E+03  0.00000000000E+00 0.  1.
        -24    2    1    2    0    0 -0.49682784055E+02 -0.71707192417E+01 -0.15492531604E+03  0.18184017884E+03  0.80896222679E+02 0.  0.
         23    2    1    2    0    0  0.53875337418E+02  0.15154570081E+03 -0.87632241069E+02  0.20483241794E+03  0.91696555818E+02 0.  0.
         11    1    3    3    0    0  0.17160599622E+02  0.13656986777E+02 -0.19321183295E+02  0.29228540694E+02  0.00000000000E+00 0. -1.
        -12    1    3    3    0    0 -0.66843383676E+02 -0.20827706018E+02 -0.13560413275E+03  0.15261163815E+03  0.00000000000E+00 0.  1.
        -11    1    4    4    0    0  0.56273913812E+02  0.10747490633E+03 -0.10191461368E+03  0.15844304134E+03  0.00000000000E+00 0. -1.
         11    1    4    4    0    0 -0.23985763939E+01  0.44070794475E+02  0.14282372607E+02  0.46389376604E+02  0.00000000000E+00 0.  1.
         -3    1    1    2    0  502 -0.41925533639E+01 -0.14437498157E+03 -0.38905078085E+03  0.41499665406E+03  0.00000000000E+00 0.  1.
<scales pt_clust_5="13000.00000" pt_clust_6="13000.00000" pt_clust_7="13000.00000" pt_clust_8="13000.00000" pt_clust_9="155.04962"></scales>
<clustering>
<clus scale="   80.896">  5  6 -1 -1</clus>
<clus scale="   91.697">  7  8 -1 -1</clus>
<clus scale="   95.205">  2  5  1 -1</clus>
<clus scale="  155.050">  1  9  2 -1</clus>
<clus scale="  155.050">  1  5  2 -1</clus>
</clustering>
</event>
<event>
 9    1  0.4067873E-005  0.1091049E+03  0.7546771E-02  0.1263826E+00
         21   -1    0    0  501  502  0.00000000000E+00  0.00000000000E+00  0.35488155149E+03  0.35488155149E+03  0.00000000000E+00 0.  1.
          3   -1    0    0  502    0 -0.00000000000E+00 -0.00000000000E+00 -0.26843910592E+03  0.26843910592E+03  0.00000000000E+00 0. -1.
        -24    2    1    2    0    0 -0.63718395543E+02  0.16729481389E+02 -0.22665203418E+03  0.25077913828E+03  0.84729700328E+02 0.  0.
         23    2    1    2    0    0  0.82113664434E+01 -0.73832395432E+02  0.13783761927E+03  0.18004024584E+03  0.88862993888E+02 0.  0.
         11    1    3    3    0    0 -0.54586535735E+02 -0.19812220744E+01 -0.22306097203E+03  0.22965150199E+03  0.00000000000E+00 0. -1.
        -12    1    3    3    0    0 -0.91318598076E+01  0.18710703464E+02 -0.35910621552E+01  0.21127636287E+02  0.00000000000E+00 0.  1.
        -13    1    4    4    0    0 -0.27087818202E+02  0.42447216730E+01  0.18300434434E+02  0.32964730509E+02  0.00000000000E+00 0. -1.
         13    1    4    4    0    0  0.35299184646E+02 -0.78077117105E+02  0.11953718483E+03  0.14707551533E+03  0.00000000000E+00 0.  1.
          4    1    1    2  501    0  0.55507029100E+02  0.57102914042E+02  0.17525686049E+03  0.19250127329E+03  0.00000000000E+00 0. -1.
<scales pt_clust_5="13000.00000" pt_clust_6="13000.00000" pt_clust_7="13000.00000" pt_clust_8="13000.00000" pt_clust_9="79.63525"></scales>
<clustering>
<clus scale="   79.635">  1  9  2 -1</clus>
<clus scale="   84.730">  5  6 -1 -1</clus>
<clus scale="   88.863">  7  8 -1 -1</clus>
<clus scale="  105.766">  2  5  1 -1</clus>
<clus scale="   79.635">  1  5  2 -1</clus>
</clustering>
</event>
<event>
 9    1  0.4067873E-005  0.1678026E+03  0.7546771E-02  0.1204544E+00
         21   -1    0    0  501  502  0.00000000000E+00  0.00000000000E+00  0.25883081109E+03  0.25883081109E+03  0.00000000000E+00 0. -1.
          1   -1    0    0  502    0 -0.00000000000E+00 -0.00000000000E+00 -0.18464888030E+03  0.18464888030E+03  0.00000000000E+00 0. -1.
        -24    2    1    2    0    0  0.39973725134E+02 -0.40472188629E+02 -0.13738369237E+02  0.99070643331E+02  0.79939682431E+02 0.  0.
         23    2    1    2    0    0  0.12808563307E+03  0.27849820901E+02  0.78543093021E+02  0.17561567125E+03  0.86546545880E+02 0.  0.
         11    1    3    3    0    0  0.53067216475E+02 -0.52414376701E+02 -0.24292422925E+02  0.78444363475E+02  0.00000000000E+00 0. -1.
        -12    1    3    3    0    0 -0.13093491341E+02  0.11942188072E+02  0.10554053689E+02  0.20626279856E+02  0.00000000000E+00 0.  1.
        -11    1    4    4    0    0  0.12773448919E+03  0.61499529435E+01  0.44813371112E+02  0.13550704734E+03  0.00000000000E+00 0. -1.
         11    1    4    4    0    0  0.35114387972E+00  0.21699867957E+02  0.33729721909E+02  0.40108623904E+02  0.00000000000E+00 0.  1.
          2    1    1    2  501    0 -0.16805935820E+03  0.12622367728E+02  0.93772070063E+01  0.16879337682E+03  0.00000000000E+00 0. -1.
<scales pt_clust_5="13000.00000" pt_clust_6="13000.00000" pt_clust_7="13000.00000" pt_clust_8="13000.00000" pt_clust_9="143.76175"></scales>
<clustering>
<clus scale="   79.940">  5  6 -1 -1</clus>
<clus scale="   86.547">  7  8 -1 -1</clus>
<clus scale="   98.113">  2  5  1 -1</clus>
<clus scale="  143.762">  1  9  2 -1</clus>
<clus scale="  143.762">  1  5  2 -1</clus>
</clustering>
</event>
<event>
 9    1  0.4067873E-005  0.9624048E+02  0.7546771E-02  0.1290674E+00
         21   -1    0    0  501  502  0.00000000000E+00  0.00000000000E+00  0.70643559671E+02  0.70643559671E+02  0.00000000000E+00 0.  1.
         -4   -1    0    0    0  501 -0.00000000000E+00 -0.00000000000E+00 -0.36692661089E+03  0.36692661089E+03  0.00000000000E+00 0.  1.
        -24    2    1    2    0    0 -0.19903410903E+02  0.38081313979E+02 -0.19499536261E+03  0.21739089719E+03  0.85960912652E+02 0.  0.
         23    2    1    2    0    0 -0.18779174318E+00 -0.23616037523E+02 -0.14355145889E+03  0.17119839010E+03  0.90244750145E+02 0.  0.
         13    1    3    3    0    0  0.28036184101E+02  0.13029244130E+02 -0.27495465439E+02  0.41373777218E+02  0.00000000000E+00 0. -1.
        -14    1    3    3    0    0 -0.47939595004E+02  0.25052069849E+02 -0.16749989717E+03  0.17601711998E+03  0.00000000000E+00 0.  1.
        -11    1    4    4    0    0 -0.28881336454E+02  0.18153541947E+02 -0.95315821792E+02  0.10123630063E+03  0.00000000000E+00 0.  1.
         11    1    4    4    0    0  0.28693544710E+02 -0.41769579470E+02 -0.48235637101E+02  0.69962089475E+02  0.00000000000E+00 0. -1.
         -3    1    1    2    0  502  0.20091202646E+02 -0.14465276455E+02  0.42263770285E+02  0.48980883265E+02  0.00000000000E+00 0.  1.
<scales pt_clust_5="13000.00000" pt_clust_6="13000.00000" pt_clust_7="13000.00000" pt_clust_8="13000.00000" pt_clust_9="24.75683"></scales>
<clustering>
<clus scale="   24.757">  1  9  2 -1</clus>
<clus scale="   85.961">  5  6 -1 -1</clus>
<clus scale="   90.245">  7  8 -1 -1</clus>
<clus scale="   92.236">  2  5  1 -1</clus>
<clus scale="   24.757">  1  5  2 -1</clus>
</clustering>
</event>
<event>
 9    1  0.4067873E-005  0.1080885E+03  0.7546771E-02  0.1277650E+00
         -4   -1    0    0    0  501 -0.00000000000E+00  0.00000000000E+00  0.65668556476E+02  0.65668556476E+02  0.00000000000E+00 0.  1.
         21   -1    0    0  501  502  0.00000000000E+00 -0.00000000000E+00 -0.24733426733E+03  0.24733426733E+03  0.00000000000E+00 0.  1.
         23    2    1    2    0    0  0.10134414497E+02 -0.22727573988E+02 -0.26364000559E+02  0.11083007656E+03  0.10473297651E+03 0.  0.
        -24    2    1    2    0    0 -0.37812646924E+02  0.11358576127E+02 -0.14645853140E+03  0.17097113710E+03  0.78881016624E+02 0.  0.
         11    1    4    4    0    0 -0.23269753066E+02 -0.25734698576E+02 -0.23981560887E+02  0.42176668682E+02  0.00000000000E+00 0. -1.
        -12    1    4    4    0    0 -0.14542893858E+02  0.37093274703E+02 -0.12247697051E+03  0.12879446842E+03  0.00000000000E+00 0.  1.
        -13    1    3    3    0    0  0.24236562309E+02  0.24024528696E+02  0.23188899987E+02  0.41259108258E+02  0.00000000000E+00 0. -1.
         13    1    3    3    0    0 -0.14102147811E+02 -0.46752102684E+02 -0.49552900546E+02  0.69570968305E+02  0.00000000000E+00 0.  1.
         -3    1    1    2    0  502  0.27678232427E+02  0.11368997861E+02 -0.88431789021E+01  0.31201610146E+02  0.00000000000E+00 0.  1.
<scales pt_clust_5="13000.00000" pt_clust_6="13000.00000" pt_clust_7="13000.00000" pt_clust_8="13000.00000" pt_clust_9="29.92223"></scales>
<clustering>
<clus scale="   29.922">  2  9  1 -1</clus>
<clus scale="   78.881">  5  6 -1 -1</clus>
<clus scale="   83.285">  2  5  1 -1</clus>
<clus scale="  104.733">  7  8 -1 -1</clus>
<clus scale="   29.922">  2  5  1 -1</clus>
</clustering>
</event>
<event>
 9    1  0.4067873E-005  0.1870894E+03  0.7546771E-02  0.1162412E+00
         21   -1    0    0  501  502  0.00000000000E+00  0.00000000000E+00  0.16310353728E+03  0.16310353728E+03  0.00000000000E+00 0. -1.
          1   -1    0    0  502    0 -0.00000000000E+00 -0.00000000000E+00 -0.43076381578E+03  0.43076381578E+03  0.00000000000E+00 0. -1.
        -24    2    1    2    0    0  0.16486680262E+03 -0.66537781320E+02 -0.16027813814E+03  0.25215674120E+03  0.79281786154E+02 0.  0.
         23    2    1    2    0    0 -0.14738775289E+03 -0.31815059367E+02  0.22674595800E+02  0.17771807218E+03  0.91291994060E+02 0.  0.
         11    1    3    3    0    0  0.63576771466E+01 -0.27439936436E+02 -0.41934119946E+02  0.50515745921E+02  0.00000000000E+00 0. -1.
        -12    1    3    3    0    0  0.15850912548E+03 -0.39097844883E+02 -0.11834401820E+03  0.20164099528E+03  0.00000000000E+00 0.  1.
        -13    1    4    4    0    0 -0.84290812554E+02 -0.35885868918E+02  0.54847298474E+02  0.10677529124E+03  0.00000000000E+00 0. -1.
         13    1    4    4    0    0 -0.63096940341E+02  0.40708095501E+01 -0.32172702674E+02  0.70942780945E+02  0.00000000000E+00 0.  1.
          2    1    1    2  501    0 -0.17479049729E+02  0.98352840687E+02 -0.13005673616E+03  0.16399253968E+03  0.00000000000E+00 0. -1.
<scales pt_clust_5="13000.00000" pt_clust_6="13000.00000" pt_clust_7="13000.00000" pt_clust_8="13000.00000" pt_clust_9="99.89399"></scales>
<clustering>
<clus scale="   79.282">  5  6 -1 -1</clus>
<clus scale="   91.292">  7  8 -1 -1</clus>
<clus scale="   99.894">  1  9  2 -1</clus>
<clus scale="  181.532">  2  5  1 -1</clus>
<clus scale="   99.894">  1  5  2 -1</clus>
</clustering>
</event>
<event>
 9    1  0.4067873E-005  0.1012864E+03  0.7546771E-02  0.1286409E+00
         21   -1    0    0  501  502  0.00000000000E+00  0.00000000000E+00  0.37758397766E+02  0.37758397766E+02  0.00000000000E+00 0.  1.
          1   -1    0    0  502    0 -0.00000000000E+00 -0.00000000000E+00 -0.35593770588E+03  0.35593770588E+03  0.00000000000E+00 0. -1.
        -24    2    1    2    0    0  0.10010750690E+02  0.35047624886E+02 -0.22197973757E+03  0.23857491991E+03  0.79463434250E+02 0.  0.
         23    2    1    2    0    0 -0.16565829948E+02 -0.14310249563E+02 -0.68889418417E+02  0.12020911979E+03  0.96048271959E+02 0.  0.
         11    1    3    3    0    0  0.98885951303E+01  0.58958049524E+02 -0.12314155817E+03  0.13688564302E+03  0.00000000000E+00 0. -1.
        -12    1    3    3    0    0  0.12215555991E+00 -0.23910424637E+02 -0.98838179399E+02  0.10168927689E+03  0.00000000000E+00 0.  1.
        -11    1    4    4    0    0  0.33742292349E+02  0.14398979397E+02 -0.43667367120E+02  0.57032550809E+02  0.00000000000E+00 0.  1.
         11    1    4    4    0    0 -0.50308122296E+02 -0.28709228960E+02 -0.25222051298E+02  0.63176568980E+02  0.00000000000E+00 0. -1.
          2    1    1    2  501    0  0.65550792574E+01 -0.20737375323E+02 -0.27310152135E+02  0.34912063947E+02  0.00000000000E+00 0. -1.
<scales pt_clust_5="13000.00000" pt_clust_6="13000.00000" pt_clust_7="13000.00000" pt_clust_8="13000.00000" pt_clust_9="21.74874"></scales>
<clustering>
<clus scale="   21.749">  1  9  2 -1</clus>
<clus scale="   79.463">  5  6 -1 -1</clus>
<clus scale="   85.721">  2  5  1 -1</clus>
<clus scale="   96.048">  7  8 -1 -1</clus>
<clus scale="   21.749">  1  5  2 -1</clus>
</clustering>
</event>
<event>
 9    1  0.4067873E-005  0.1514311E+03  0.7546771E-02  0.1207305E+00
          1   -1    0    0  502    0 -0.00000000000E+00  0.00000000000E+00  0.92171588675E+03  0.92171588675E+03  0.00000000000E+00 0. -1.
         21   -1    0    0  501  502  0.00000000000E+00 -0.00000000000E+00 -0.33614508872E+02  0.33614508872E+02  0.00000000000E+00 0. -1.
         23    2    1    2    0    0  0.66405103081E+02  0.49374178100E+02  0.46617315129E+03  0.48764909481E+03  0.11677664797E+03 0.  0.
        -24    2    1    2    0    0 -0.62318980965E+02 -0.99191850622E+02  0.36586123116E+03  0.39256802058E+03  0.80824078729E+02 0.  0.
         13    1    4    4    0    0 -0.38562165292E+02 -0.42725039378E+02  0.70936349994E+02  0.91347880831E+02  0.00000000000E+00 0. -1.
        -14    1    4    4    0    0 -0.23756815673E+02 -0.56466811244E+02  0.29492488116E+03  0.30122013975E+03  0.00000000000E+00 0.  1.
        -11    1    3    3    0    0  0.50893971339E+01  0.75761648491E+02  0.22896691943E+03  0.24122930904E+03  0.00000000000E+00 0.  1.
         11    1    3    3    0    0  0.61315705947E+02 -0.26387470391E+02  0.23720623185E+03  0.24641978577E+03  0.00000000000E+00 0. -1.
          2    1    1    2  501    0 -0.40861221159E+01  0.49817672522E+02  0.56066995430E+02  0.75113280224E+02  0.00000000000E+00 0. -1.
<scales pt_clust_5="13000.00000" pt_clust_6="13000.00000" pt_clust_7="13000.00000" pt_clust_8="13000.00000" pt_clust_9="49.98497"></scales>
<clustering>
<clus scale="   49.985">  2  9  1 -1</clus>
<clus scale="   80.824">  5  6 -1 -1</clus>
<clus scale="  116.777">  7  8 -1 -1</clus>
<clus scale="  125.806">  2  5  1 -1</clus>
<clus scale="   49.985">  2  5  1 -1</clus>
</clustering>
</event>
<event>
 9    1  0.4067873E-005  0.9473054E+02  0.7546771E-02  0.1297443E+00
         21   -1    0    0  501  502  0.00000000000E+00  0.00000000000E+00  0.30287714564E+02  0.30287714564E+02  0.00000000000E+00 0. -1.
          1   -1    0    0  502    0 -0.00000000000E+00 -0.00000000000E+00 -0.69955737294E+03  0.69955737294E+03  0.00000000000E+00 0. -1.
        -24    2    1    2    0    0  0.34820143267E+02  0.10846211561E+02 -0.29891567741E+03  0.31201127355E+03  0.81672332748E+02 0.  0.
         23    2    1    2    0    0  0.74149474559E+01  0.60919546875E+02 -0.21084829223E+03  0.23789996025E+03  0.91505279143E+02 0.  0.
         11    1    3    3    0    0  0.59308097621E+02  0.19801227919E+02 -0.22932785808E+03  0.23769898099E+03  0.00000000000E+00 0. -1.
        -12    1    3    3    0    0 -0.24487954354E+02 -0.89550163583E+01 -0.69587819330E+02  0.74312292560E+02  0.00000000000E+00 0.  1.
        -13    1    4    4    0    0  0.13928917840E+02 -0.22082525044E+02 -0.38812569021E+02  0.46776791024E+02  0.00000000000E+00 0.  1.
         13    1    4    4    0    0 -0.65139703843E+01  0.83002071919E+02 -0.17203572321E+03  0.19112316922E+03  0.00000000000E+00 0. -1.
          2    1    1    2  501    0 -0.42235090723E+02 -0.71765758436E+02 -0.15950568873E+03  0.17993385371E+03  0.00000000000E+00 0. -1.
<scales pt_clust_5="13000.00000" pt_clust_6="13000.00000" pt_clust_7="13000.00000" pt_clust_8="13000.00000" pt_clust_9="83.27141"></scales>
<clustering>
<clus scale="   81.672">  5  6 -1 -1</clus>
<clus scale="   83.271">  1  9  2 -1</clus>
<clus scale="   85.270">  2  5  1 -1</clus>
<clus scale="   91.505">  7  8 -1 -1</clus>
<clus scale="   83.271">  1  5  2 -1</clus>
</clustering>
</event>
<event>
 9    1  0.4067873E-005  0.1669530E+03  0.7546771E-02  0.1195848E+00
         -2   -1    0    0    0  501 -0.00000000000E+00  0.00000000000E+00  0.27111411707E+03  0.27111411707E+03  0.00000000000E+00 0.  1.
         21   -1    0    0  501  502  0.00000000000E+00 -0.00000000000E+00 -0.35706323941E+03  0.35706323941E+03  0.00000000000E+00 0.  1.
        -24    2    1    2    0    0 -0.91762224102E+02  0.87986880669E+01  0.15123202804E+03  0.19325811678E+03  0.77329494465E+02 0.  0.
         23    2    1    2    0    0 -0.36606506672E+02 -0.85227945612E+02  0.20671812557E+02  0.13691233887E+03  0.98558742168E+02 0.  0.
         13    1    3    3    0    0 -0.37679546727E+02 -0.25590063985E+02  0.25665207141E+02  0.52280995342E+02  0.00000000000E+00 0. -1.
        -14    1    3    3    0    0 -0.54082677375E+02  0.34388752052E+02  0.12556682090E+03  0.14097712144E+03  0.00000000000E+00 0.  1.
        -11    1    4    4    0    0 -0.63545616335E+02 -0.23441640413E+02  0.14150467440E+02  0.69193869594E+02  0.00000000000E+00 0.  1.
         11    1    4    4    0    0  0.26939109663E+02 -0.61786305198E+02  0.65213451165E+01  0.67718469280E+02  0.00000000000E+00 0. -1.
         -1    1    1    2    0  502  0.12836873077E+03  0.76429257545E+02 -0.25785296293E+03  0.29800690083E+03  0.00000000000E+00 0.  1.
<scales pt_clust_5="13000.00000" pt_clust_6="13000.00000" pt_clust_7="13000.00000" pt_clust_8="13000.00000" pt_clust_9="134.75715"></scales>
<clustering>
<clus scale="   77.329">  5  6 -1 -1</clus>
<clus scale="   98.559">  7  8 -1 -1</clus>
<clus scale="  120.323">  1  5  2 -1</clus>
<clus scale="  134.757">  2  9  1 -1</clus>
<clus scale="  134.757">  2  5  1 -1</clus>
</clustering>
</event>
<event>
 9    1  0.4067873E-005  0.1306858E+03  0.7546771E-02  0.1229365E+00
         21   -1    0    0  501  502  0.00000000000E+00  0.00000000000E+00  0.11543926861E+03  0.11543926861E+03  0.00000000000E+00 0. -1.
          1   -1    0    0  502    0 -0.00000000000E+00 -0.00000000000E+00 -0.21714241687E+03  0.21714241687E+03  0.00000000000E+00 0. -1.
         23    2    1    2    0    0  0.16560145416E+02  0.99503150168E+02 -0.82790504765E+02  0.15952471042E+03  0.91753747860E+02 0.  0.
        -24    2    1    2    0    0  0.20961473071E+02 -0.85941087729E+02 -0.42280958181E+02  0.12681976577E+03  0.80438297164E+02 0.  0.
         11    1    4    4    0    0  0.43221516845E+02 -0.22089981390E+02 -0.32694671905E+02  0.58523571039E+02  0.00000000000E+00 0. -1.
        -12    1    4    4    0    0 -0.22260043774E+02 -0.63851106339E+02 -0.95862862766E+01  0.68296194726E+02  0.00000000000E+00 0.  1.
        -13    1    3    3    0    0 -0.13995781730E+02  0.29624848661E+02  0.14562336261E+02  0.35854918795E+02  0.00000000000E+00 0. -1.
         13    1    3    3    0    0  0.30555927146E+02  0.69878301508E+02 -0.97352841026E+02  0.12366979163E+03  0.00000000000E+00 0.  1.
          2    1    1    2  501    0 -0.37521618487E+02 -0.13562062440E+02  0.23368314695E+02  0.46237209293E+02  0.00000000000E+00 0. -1.
<scales pt_clust_5="13000.00000" pt_clust_6="13000.00000" pt_clust_7="13000.00000" pt_clust_8="13000.00000" pt_clust_9="39.89739"></scales>
<clustering>
<clus scale="   39.897">  1  9  2 -1</clus>
<clus scale="   80.438">  5  6 -1 -1</clus>
<clus scale="   91.754">  7  8 -1 -1</clus>
<clus scale="  123.005">  1  5  2 -1</clus>
<clus scale="   39.897">  1  5  2 -1</clus>
</clustering>
</event>
<event>
 9    1  0.4067873E-005  0.8475662E+02  0.7546771E-02  0.1323108E+00
         -4   -1    0    0    0  501 -0.00000000000E+00  0.00000000000E+00  0.20634531272E+03  0.20634531272E+03  0.00000000000E+00 0.  1.
         21   -1    0    0  501  502  0.00000000000E+00 -0.00000000000E+00 -0.10384573765E+03  0.10384573765E+03  0.00000000000E+00 0.  1.
        -24    2    1    2    0    0  0.21696636492E+00 -0.28500311986E+02  0.13308396981E+03  0.15864200297E+03  0.81508448816E+02 0.  0.
         23    2    1    2    0    0 -0.19274165020E+02  0.10446138336E+02  0.34067395516E+02  0.81770942032E+02  0.71030164579E+02 0.  0.
         13    1    3    3    0    0 -0.24908753349E+02  0.19847685222E+02  0.50350565720E+02  0.59578150948E+02  0.00000000000E+00 0. -1.
        -14    1    3    3    0    0  0.25125719714E+02 -0.48347997208E+02  0.82733404088E+02  0.99063852021E+02  0.00000000000E+00 0.  1.
        -13    1    4    4    0    0 -0.32628294557E+02 -0.77092225841E+01  0.45485125568E+02  0.56506056016E+02  0.00000000000E+00 0.  1.
         13    1    4    4    0    0  0.13354129537E+02  0.18155360920E+02 -0.11417730052E+02  0.25264886016E+02  0.00000000000E+00 0. -1.
         -3    1    1    2    0  502  0.19057198655E+02  0.18054173650E+02 -0.64651790249E+02  0.69778105371E+02  0.00000000000E+00 0.  1.
<scales pt_clust_5="13000.00000" pt_clust_6="13000.00000" pt_clust_7="13000.00000" pt_clust_8="13000.00000" pt_clust_9="26.25129"></scales>
<clustering>
<clus scale="   26.251">  2  9  1 -1</clus>
<clus scale="   71.030">  7  8 -1 -1</clus>
<clus scale="   74.735">  2  7  1 -1</clus>
<clus scale="   81.508">  5  6 -1 -1</clus>
<clus scale="   26.251">  2  5  1 -1</clus>
</clustering>
</event>
<event>
 9    1  0.4067873E-005  0.1124994E+03  0.7546771E-02  0.1260209E+00
          1   -1    0    0  502    0 -0.00000000000E+00  0.00000000000E+00  0.17952971195E+03  0.17952971195E+03  0.00000000000E+00 0. -1.
         21   -1    0    0  501  502  0.00000000000E+00 -0.00000000000E+00 -0.26224987034E+03  0.26224987034E+03  0.00000000000E+00 0.  1.
        -24    2    1    2    0    0 -0.45830788269E+02  0.41839376449E+02  0.11952692855E+03  0.15650261458E+03  0.79720682053E+02 0.  0.
         23    2    1    2    0    0  0.10366980759E+03 -0.38551400048E+02 -0.14253516300E+03  0.20208035236E+03  0.91030526021E+02 0.  0.
         11    1    3    3    0    0 -0.54299565384E+02  0.45843810951E+02  0.12631565742E+03  0.14493358173E+03  0.00000000000E+00 0. -1.
        -12    1    3    3    0    0  0.84687771150E+01 -0.40044345021E+01 -0.67887288682E+01  0.11569032853E+02  0.00000000000E+00 0.  1.
        -13    1    4    4    0    0  0.83065947958E+02  0.16242710928E+02 -0.81145414854E+02  0.11725338255E+03  0.00000000000E+00 0.  1.
         13    1    4    4    0    0  0.20603859635E+02 -0.54794110976E+02 -0.61389748149E+02  0.84826969811E+02  0.00000000000E+00 0. -1.
          2    1    1    2  501    0 -0.57839019324E+02 -0.32879764011E+01 -0.59711923935E+02  0.83196615347E+02  0.00000000000E+00 0. -1.
<scales pt_clust_5="13000.00000" pt_clust_6="13000.00000" pt_clust_7="13000.00000" pt_clust_8="13000.00000" pt_clust_9="57.93240"></scales>
<clustering>
<clus scale="   57.932">  2  9  1 -1</clus>
<clus scale="   79.721">  5  6 -1 -1</clus>
<clus scale="   91.031">  7  8 -1 -1</clus>
<clus scale="  103.561">  1  5  2 -1</clus>
<clus scale="   57.932">  2  5  1 -1</clus>
</clustering>
</event>
<event>
 9    1  0.4067873E-005  0.1278682E+03  0.7546771E-02  0.1244776E+00
         21   -1    0    0  501  502  0.00000000000E+00  0.00000000000E+00  0.12005312028E+03  0.12005312028E+03  0.00000000000E+00 0.  1.
         -2   -1    0    0    0  501 -0.00000000000E+00 -0.00000000000E+00 -0.46712545043E+03  0.46712545043E+03  0.00000000000E+00 0.  1.
        -24    2    1    2    0    0 -0.56942620776E+02  0.18287741871E+01 -0.31763302819E+03  0.33178859988E+03  0.77117624018E+02 0.  0.
         23    2    1    2    0    0 -0.33637295867E+02  0.72719971829E+02  0.29003583635E+02  0.12432583498E+03  0.90532002093E+02 0.  0.
         13    1    3    3    0    0 -0.13764940649E+02 -0.31992228599E+02 -0.70386146565E+02  0.78531432625E+02  0.00000000000E+00 0. -1.
        -14    1    3    3    0    0 -0.43177680126E+02  0.33821002786E+02 -0.24724688163E+03  0.25325716725E+03  0.00000000000E+00 0.  1.
        -13    1    4    4    0    0 -0.30608537778E+02  0.19320114050E+02 -0.28295131559E+02  0.45943050201E+02  0.00000000000E+00 0. -1.
         13    1    4    4    0    0 -0.30287580890E+01  0.53399857779E+02  0.57298715194E+02  0.78382784777E+02  0.00000000000E+00 0.  1.
         -1    1    1    2    0  502  0.90579916643E+02 -0.74548746016E+02 -0.58442885583E+02  0.13106413585E+03  0.00000000000E+00 0.  1.
<scales pt_clust_5="13000.00000" pt_clust_6="13000.00000" pt_clust_7="13000.00000" pt_clust_8="13000.00000" pt_clust_9="90.30086"></scales>
<clustering>
<clus scale="   77.118">  5  6 -1 -1</clus>
<clus scale="   90.532">  7  8 -1 -1</clus>
<clus scale="   95.880">  2  5  1 -1</clus>
<clus scale="   90.301">  1  9  2 -1</clus>
<clus scale="   90.301">  1  5  2 -1</clus>
</clustering>
</event>
<event>
 9    1  0.4067873E-005  0.1040256E+03  0.7546771E-02  0.1275697E+00
         21   -1    0    0  501  502  0.00000000000E+00  0.00000000000E+00  0.52560643234E+03  0.52560643234E+03  0.00000000000E+00 0. -1.
         -2   -1    0    0    0  501 -0.00000000000E+00 -0.00000000000E+00 -0.34357825736E+02  0.34357825736E+02  0.00000000000E+00 0.  1.
        -24    2    1    2    0    0  0.54900470377E+01 -0.12712525351E+02  0.94914269246E+02  0.14138612394E+03  0.10387284833E+03 0.  0.
         23    2    1    2    0    0 -0.20315308675E+01 -0.15113925639E+02  0.23179627440E+03  0.25166783825E+03  0.96822673583E+02 0.  0.
         11    1    3    3    0    0  0.27003829964E+01  0.21463440971E+02 -0.14949501516E+02  0.26295607280E+02  0.00000000000E+00 0. -1.
        -12    1    3    3    0    0  0.27896640413E+01 -0.34175966322E+02  0.10986377076E+03  0.11509051666E+03  0.00000000000E+00 0.  1.
        -11    1    4    4    0    0  0.48505358140E+01 -0.41841505687E+02  0.21558105845E+03  0.21965753358E+03  0.00000000000E+00 0. -1.
         11    1    4    4    0    0 -0.68820666815E+01  0.26727580048E+02  0.16215215950E+02  0.32010304675E+02  0.00000000000E+00 0.  1.
         -1    1    1    2    0  502 -0.34585161702E+01  0.27826450990E+02  0.16453806296E+03  0.16691029588E+03  0.00000000000E+00 0.  1.
<scales pt_clust_5="13000.00000" pt_clust_6="13000.00000" pt_clust_7="13000.00000" pt_clust_8="13000.00000" pt_clust_9="28.04055"></scales>
<clustering>
<clus scale="   28.041">  1  9  2 -1</clus>
<clus scale="   96.823">  7  8 -1 -1</clus>
<clus scale="   96.987">  1  7  2 -1</clus>
<clus scale="  103.873">  5  6 -1 -1</clus>
<clus scale="   28.041">  1  5  2 -1</clus>
</clustering>
</event>
<event>
 9    1  0.4219594E-005  0.5917062E+03  0.7546771E-02  0.9922764E-01
          1   -1    0    0  502    0 -0.00000000000E+00  0.00000000000E+00  0.13901494618E+04  0.13901494618E+04  0.00000000000E+00 0. -1.
         21   -1    0    0  501  502  0.00000000000E+00 -0.00000000000E+00 -0.74510599507E+03  0.74510599507E+03  0.00000000000E+00 0.  1.
        -24    2    1    2    0    0 -0.11376899956E+03  0.11613696506E+03 -0.75062814597E+02  0.19638825879E+03  0.80639581742E+02 0.  0.
         23    2    1    2    0    0 -0.26932229213E+03  0.25188587012E+03 -0.48720017045E+03  0.61985673053E+03  0.10429463885E+03 0.  0.
         11    1    3    3    0    0 -0.93952916714E+02  0.12754532610E+03 -0.62486674542E+02  0.17029252850E+03  0.00000000000E+00 0. -1.
        -12    1    3    3    0    0 -0.19816082842E+02 -0.11408361038E+02 -0.12576140055E+02  0.26095730292E+02  0.00000000000E+00 0.  1.
        -13    1    4    4    0    0 -0.16447355140E+03  0.11198011945E+03 -0.32670035680E+03  0.38252348868E+03  0.00000000000E+00 0. -1.
         13    1    4    4    0    0 -0.10484874073E+03  0.13990575067E+03 -0.16049981365E+03  0.23733324185E+03  0.00000000000E+00 0.  1.
          2    1    1    2  501    0  0.38309129169E+03 -0.36802283517E+03  0.12073064518E+04  0.13190104675E+04  0.00000000000E+00 0. -1.
<scales pt_clust_5="13000.00000" pt_clust_6="13000.00000" pt_clust_7="13000.00000" pt_clust_8="13000.00000" pt_clust_9="531.22502"></scales>
<clustering>
<clus scale="   80.640">  5  6 -1 -1</clus>
<clus scale="  104.295">  7  8 -1 -1</clus>
<clus scale="  146.635">  5  7 -1 -1</clus>
<clus scale="  531.225">  2  9  1 -1</clus>
<clus scale="  531.225">  2  5  1 -1</clus>
</clustering>
</event>
<event>
 9    1  0.4067873E-005  0.9674416E+02  0.7546771E-02  0.1294606E+00
         -2   -1    0    0    0  501 -0.00000000000E+00  0.00000000000E+00  0.12779728901E+03  0.12779728901E+03  0.00000000000E+00 0.  1.
         21   -1    0    0  501  502  0.00000000000E+00 -0.00000000000E+00 -0.29886995657E+03  0.29886995657E+03  0.00000000000E+00 0.  1.
        -24    2    1    2    0    0 -0.22446137946E+02  0.13924826567E+02  0.87219416338E+02  0.12118615815E+03  0.79881965660E+02 0.  0.
         23    2    1    2    0    0  0.48879781060E+02  0.22179157758E+02 -0.12406807219E+03  0.16399497329E+03  0.92845660600E+02 0.  0.
         11    1    3    3    0    0  0.28129710419E+02  0.13034273418E+02  0.19371206041E+02  0.36557030996E+02  0.00000000000E+00 0. -1.
        -12    1    3    3    0    0 -0.50575848365E+02  0.89055314918E+00  0.67848210297E+02  0.84629127156E+02  0.00000000000E+00 0.  1.
        -13    1    4    4    0    0  0.16244483311E+02  0.54120836752E+02 -0.43214280411E+02  0.71136644848E+02  0.00000000000E+00 0.  1.
         13    1    4    4    0    0  0.32635297749E+02 -0.31941678994E+02 -0.80853791782E+02  0.92858328445E+02  0.00000000000E+00 0. -1.
         -1    1    1    2    0  502 -0.26433643114E+02 -0.36103984325E+02 -0.13422401171E+03  0.14148611413E+03  0.00000000000E+00 0.  1.
<scales pt_clust_5="13000.00000" pt_clust_6="13000.00000" pt_clust_7="13000.00000" pt_clust_8="13000.00000" pt_clust_9="44.74634"></scales>
<clustering>
<clus scale="   44.746">  2  9  1 -1</clus>
<clus scale="   79.882">  5  6 -1 -1</clus>
<clus scale="   84.382">  1  5  2 -1</clus>
<clus scale="   92.846">  7  8 -1 -1</clus>
<clus scale="   44.746">  2  5  1 -1</clus>
</clustering>
</event>
<event>
 9    1  0.4067873E-005  0.9546610E+02  0.7546771E-02  0.1297897E+00
         -4   -1    0    0    0  501 -0.00000000000E+00  0.00000000000E+00  0.96651865063E+02  0.96651865063E+02  0.00000000000E+00 0.  1.
         21   -1    0    0  501  502  0.00000000000E+00 -0.00000000000E+00 -0.35411861173E+03  0.35411861173E+03  0.00000000000E+00 0. -1.
         23    2    1    2    0    0 -0.81600094155E+01 -0.24737740750E+01 -0.10079695597E+03  0.13609224475E+03  0.91040471418E+02 0.  0.
        -24    2    1    2    0    0  0.97909748145E+01 -0.80126651802E+02 -0.19545606692E+03  0.22341013452E+03  0.72061575005E+02 0.  0.
         13    1    4    4    0    0 -0.29960872569E+02 -0.34963524843E+02 -0.10639354751E+03  0.11592967224E+03  0.00000000000E+00 0. -1.
        -14    1    4    4    0    0  0.39751847383E+02 -0.45163126959E+02 -0.89062519412E+02  0.10748046228E+03  0.00000000000E+00 0.  1.
        -13    1    3    3    0    0 -0.27846234491E+02  0.36756487955E+02 -0.39608015363E+02  0.60788543848E+02  0.00000000000E+00 0.  1.
         13    1    3    3    0    0  0.19686225076E+02 -0.39230262030E+02 -0.61188940609E+02  0.75303700902E+02  0.00000000000E+00 0. -1.
         -3    1    1    2    0  502 -0.16309653990E+01  0.82600425877E+02  0.38786276222E+02  0.91268097528E+02  0.00000000000E+00 0.  1.
<scales pt_clust_5="13000.00000" pt_clust_6="13000.00000" pt_clust_7="13000.00000" pt_clust_8="13000.00000" pt_clust_9="82.61657"></scales>
<clustering>
<clus scale="   72.062">  5  6 -1 -1</clus>
<clus scale="   82.617">  2  9  1 -1</clus>
<clus scale="   82.617">  2  5  1 -1</clus>
<clus scale="   91.040">  7  8 -1 -1</clus>
<clus scale="   82.617">  2  5  1 -1</clus>
</clustering>
</event>
<event>
 9    1  0.4067873E-005  0.1188570E+03  0.7546771E-02  0.1248843E+00
          1   -1    0    0  502    0 -0.00000000000E+00  0.00000000000E+00  0.48325600986E+03  0.48325600986E+03  0.00000000000E+00 0. -1.
         21   -1    0    0  501  502  0.00000000000E+00 -0.00000000000E+00 -0.21065813032E+03  0.21065813032E+03  0.00000000000E+00 0. -1.
        -24    2    1    2    0    0 -0.55840820244E+02  0.62717463560E+02  0.26857307449E+03  0.29252972462E+03  0.79940390339E+02 0.  0.
         23    2    1    2    0    0  0.55011613064E+02 -0.36314377835E+02  0.18594125210E+03  0.21756003137E+03  0.91723532467E+02 0.  0.
         13    1    3    3    0    0 -0.54823731469E+02  0.15940992590E+02  0.20967667497E+03  0.21731098639E+03  0.00000000000E+00 0. -1.
        -14    1    3    3    0    0 -0.10170887747E+01  0.46776470970E+02  0.58896399515E+02  0.75218738236E+02  0.00000000000E+00 0.  1.
        -13    1    4    4    0    0 -0.97903251902E+01 -0.37915293667E+02  0.11490105613E+03  0.12139057896E+03  0.00000000000E+00 0. -1.
         13    1    4    4    0    0  0.64801938254E+02  0.16009158318E+01  0.71040195969E+02  0.96169452407E+02  0.00000000000E+00 0.  1.
          2    1    1    2  501    0  0.82920718019E+00 -0.26403085725E+02 -0.18191644704E+03  0.18382438419E+03  0.00000000000E+00 0. -1.
<scales pt_clust_5="13000.00000" pt_clust_6="13000.00000" pt_clust_7="13000.00000" pt_clust_8="13000.00000" pt_clust_9="26.41610"></scales>
<clustering>
<clus scale="   26.416">  2  9  1 -1</clus>
<clus scale="   79.940">  5  6 -1 -1</clus>
<clus scale="   91.724">  7  8 -1 -1</clus>
<clus scale="  110.019">  1  5  2 -1</clus>
<clus scale="   26.416">  2  5  1 -1</clus>
</clustering>
</event>
<event>
 9    1  0.4067873E-005  0.9589749E+02  0.7546771E-02  0.1294330E+00
          1   -1    0    0  502    0 -0.00000000000E+00  0.00000000000E+00  0.34834449086E+03  0.34834449086E+03  0.00000000000E+00 0. -1.
         21   -1    0    0  501  502  0.00000000000E+00 -0.00000000000E+00 -0.78895678836E+02  0.78895678836E+02  0.00000000000E+00 0.  1.
         23    2    1    2    0    0 -0.44085340126E+02  0.57357411665E+01  0.65889505753E+02  0.12086702999E+03  0.91054906670E+02 0.  0.
        -24    2    1    2    0    0 -0.21227154984E+01  0.46401995271E+02  0.29861285370E+01  0.94045262142E+02  0.81718683797E+02 0.  0.
         11    1    4    4    0    0  0.31933630478E+02  0.13835080764E+02  0.24179563606E+02  0.42377087104E+02  0.00000000000E+00 0. -1.
        -12    1    4    4    0    0 -0.34056345976E+02  0.32566914507E+02 -0.21193435069E+02  0.51668175038E+02  0.00000000000E+00 0.  1.
        -11    1    3    3    0    0 -0.51402172615E+02 -0.25725078381E+02  0.67337441885E+02  0.88534140798E+02  0.00000000000E+00 0. -1.
         11    1    3    3    0    0  0.73168324886E+01  0.31460819547E+02 -0.14479361322E+01  0.32332889189E+02  0.00000000000E+00 0.  1.
          2    1    1    2  501    0  0.46208055625E+02 -0.52137736438E+02  0.20057317773E+03  0.21232787757E+03  0.00000000000E+00 0. -1.
<scales pt_clust_5="13000.00000" pt_clust_6="13000.00000" pt_clust_7="13000.00000" pt_clust_8="13000.00000" pt_clust_9="69.66730"></scales>
<clustering>
<clus scale="   69.667">  2  9  1 -1</clus>
<clus scale="   81.719">  5  6 -1 -1</clus>
<clus scale="   87.082">  2  5  1 -1</clus>
<clus scale="   91.055">  7  8 -1 -1</clus>
<clus scale="   69.667">  2  5  1 -1</clus>
</clustering>
</event>
<event>
 9    1  0.4067873E-005  0.1060292E+03  0.7546771E-02  0.1273557E+00
          1   -1    0    0  502    0 -0.00000000000E+00  0.00000000000E+00  0.24914556551E+03  0.24914556551E+03  0.00000000000E+00 0. -1.
         21   -1    0    0  501  502  0.00000000000E+00 -0.00000000000E+00 -0.14169721840E+03  0.14169721840E+03  0.00000000000E+00 0.  1.
        -24    2    1    2    0    0 -0.52210816885E+02  0.16701910893E+02  0.19742333044E+03  0.21970728248E+03  0.79312012639E+02 0.  0.
         23    2    1    2    0    0  0.44667939171E+02  0.21976756096E+02 -0.76663152921E+02  0.12954056047E+03  0.91789515705E+02 0.  0.
         13    1    3    3    0    0 -0.31215713735E+02 -0.14009357674E+02  0.17020910226E+03  0.17361400110E+03  0.00000000000E+00 0. -1.
        -14    1    3    3    0    0 -0.20995103150E+02  0.30711268567E+02  0.27214228173E+02  0.46093281379E+02  0.00000000000E+00 0.  1.
        -13    1    4    4    0    0  0.91126030334E+01  0.52383828038E+02 -0.59278445551E+02  0.79630641595E+02  0.00000000000E+00 0.  1.
         13    1    4    4    0    0  0.35555336138E+02 -0.30407071942E+02 -0.17384707370E+02  0.49909918877E+02  0.00000000000E+00 0. -1.
          2    1    1    2  501    0  0.75428777133E+01 -0.38678666989E+02 -0.13311830402E+02  0.41594940953E+02  0.00000000000E+00 0. -1.
<scales pt_clust_5="13000.00000" pt_clust_6="13000.00000" pt_clust_7="13000.00000" pt_clust_8="13000.00000" pt_clust_9="39.40729"></scales>
<clustering>
<clus scale="   39.407">  2  9  1 -1</clus>
<clus scale="   79.312">  5  6 -1 -1</clus>
<clus scale="   91.790">  7  8 -1 -1</clus>
<clus scale="   95.432">  1  5  2 -1</clus>
<clus scale="   39.407">  2  5  1 -1</clus>
</clustering>
</event>
<event>
 9    1  0.4067873E-005  0.1201696E+03  0.7546771E-02  0.1257056E+00
         21   -1    0    0  501  502  0.00000000000E+00  0.00000000000E+00  0.52689669280E+02  0.52689669280E+02  0.00000000000E+00 0.  1.
         -2   -1    0    0    0  501 -0.00000000000E+00 -0.00000000000E+00 -0.51104928122E+03  0.51104928122E+03  0.00000000000E+00 0.  1.
        -24    2    1    2    0    0 -0.33105485542E+02  0.13390425913E+02 -0.26731199388E+03  0.28218865148E+03  0.83062965715E+02 0.  0.
         23    2    1    2    0    0 -0.16041490345E+02  0.64965636326E+02 -0.88737701850E+02  0.14362852161E+03  0.90977520164E+02 0.  0.
         13    1    3    3    0    0  0.11119816748E+02  0.38097546979E+02 -0.11201116726E+03  0.11883423329E+03  0.00000000000E+00 0. -1.
        -14    1    3    3    0    0 -0.44225302290E+02 -0.24707121066E+02 -0.15530082662E+03  0.16335441820E+03  0.00000000000E+00 0.  1.
        -13    1    4    4    0    0  0.36871591020E+02  0.13979842796E+02 -0.32405326910E+02  0.51039743741E+02  0.00000000000E+00 0. -1.
         13    1    4    4    0    0 -0.52913081365E+02  0.50985793530E+02 -0.56332374940E+02  0.92588777872E+02  0.00000000000E+00 0.  1.
         -1    1    1    2    0  502  0.49146975887E+02 -0.78356062239E+02 -0.10230991621E+03  0.13792177741E+03  0.00000000000E+00 0.  1.
<scales pt_clust_5="13000.00000" pt_clust_6="13000.00000" pt_clust_7="13000.00000" pt_clust_8="13000.00000" pt_clust_9="78.51004"></scales>
<clustering>
<clus scale="   83.063">  5  6 -1 -1</clus>
<clus scale="   90.414">  2  5  1 -1</clus>
<clus scale="   78.510">  1  9  2 -1</clus>
<clus scale="   90.978">  7  8 -1 -1</clus>
<clus scale="   78.510">  1  5  2 -1</clus>
</clustering>
</event>
<event>
 9    1  0.4067873E-005  0.1099899E+03  0.7546771E-02  0.1264706E+00
         21   -1    0    0  501  502  0.00000000000E+00  0.00000000000E+00  0.13001143040E+03  0.13001143040E+03  0.00000000000E+00 0.  1.
         -4   -1    0    0    0  501 -0.00000000000E+00 -0.00000000000E+00 -0.19169447487E+03  0.19169447487E+03  0.00000000000E+00 0.  1.
        -24    2    1    2    0    0  0.28970539956E+02  0.53969429712E+02 -0.11854522194E+03  0.15599948802E+03  0.80813854565E+02 0.  0.
         23    2    1    2    0    0 -0.53157727812E+02 -0.39915333341E+02  0.12972951540E+02  0.11366026625E+03  0.91276397770E+02 0.  0.
         13    1    3    3    0    0 -0.16841098939E+02 -0.11975415735E+02 -0.18673713780E+02  0.27852123471E+02  0.00000000000E+00 0. -1.
        -14    1    3    3    0    0  0.45811638895E+02  0.65944845447E+02 -0.99871508158E+02  0.12814736455E+03  0.00000000000E+00 0.  1.
        -13    1    4    4    0    0 -0.61638007605E+02 -0.62935653317E+02  0.13510843291E+02  0.89121733188E+02  0.00000000000E+00 0.  1.
         13    1    4    4    0    0  0.84802797928E+01  0.23020319976E+02 -0.53789175069E+00  0.24538533060E+02  0.00000000000E+00 0. -1.
         -3    1    1    2    0  502  0.24187187857E+02 -0.14054096371E+02  0.43889225927E+02  0.52046150998E+02  0.00000000000E+00 0.  1.
<scales pt_clust_5="13000.00000" pt_clust_6="13000.00000" pt_clust_7="13000.00000" pt_clust_8="13000.00000" pt_clust_9="27.97387"></scales>
<clustering>
<clus scale="   27.974">  1  9  2 -1</clus>
<clus scale="   80.814">  5  6 -1 -1</clus>
<clus scale="   91.276">  7  8 -1 -1</clus>
<clus scale="  101.475">  2  5  1 -1</clus>
<clus scale="   27.974">  1  5  2 -1</clus>
</clustering>
</event>
<event>
 9    1  0.4067873E-005  0.1519715E+03  0.7546771E-02  0.1220918E+00
         -2   -1    0    0    0  501 -0.00000000000E+00  0.00000000000E+00  0.11822946417E+03  0.11822946417E+03  0.00000000000E+00 0.  1.
         21   -1    0    0  501  502  0.00000000000E+00 -0.00000000000E+00 -0.40216837577E+03  0.40216837577E+03  0.00000000000E+00 0.  1.
        -24    2    1    2    0    0 -0.28909505330E+02  0.57216820330E+02  0.31469400003E+02  0.98423869407E+02  0.67730428208E+02 0.  0.
         23    2    1    2    0    0  0.75309307614E+02  0.74150875624E+02 -0.14456718914E+03  0.20152646586E+03  0.92430514957E+02 0.  0.
         13    1    3    3    0    0  0.19318865306E+02  0.35091383646E+02  0.10891770126E+02  0.41512099675E+02  0.00000000000E+00 0. -1.
        -14    1    3    3    0    0 -0.48228370636E+02  0.22125436684E+02  0.20577629877E+02  0.56911769732E+02  0.00000000000E+00 0.  1.
        -13    1    4    4    0    0  0.28675586629E+02  0.30676960790E+02 -0.12932934424E+03  0.13597589667E+03  0.00000000000E+00 0.  1.
         13    1    4    4    0    0  0.46633720986E+02  0.43473914834E+02 -0.15237844897E+02  0.65550569190E+02  0.00000000000E+00 0. -1.
         -1    1    1    2    0  502 -0.46399802284E+02 -0.13136769595E+03 -0.17084112246E+03  0.22044750468E+03  0.00000000000E+00 0.  1.
<scales pt_clust_5="13000.00000" pt_clust_6="13000.00000" pt_clust_7="13000.00000" pt_clust_8="13000.00000" pt_clust_9="120.63145"></scales>
<clustering>
<clus scale="   67.730">  5  6 -1 -1</clus>
<clus scale="   92.431">  7  8 -1 -1</clus>
<clus scale="   93.257">  1  5  2 -1</clus>
<clus scale="  120.631">  2  9  1 -1</clus>
<clus scale="  120.631">  2  5  1 -1</clus>
</clustering>
</event>
<event>
 9    1  0.4067873E-005  0.2037342E+03  0.7546771E-02  0.1147976E+00
         21   -1    0    0  501  502  0.00000000000E+00  0.00000000000E+00  0.54601722048E+03  0.54601722048E+03  0.00000000000E+00 0.  1.
         -4   -1    0    0    0  501 -0.00000000000E+00 -0.00000000000E+00 -0.10555517506E+03  0.10555517506E+03  0.00000000000E+00 0.  1.
         23    2    1    2    0    0  0.92673450142E+02 -0.19616207950E+03  0.16216722007E+03  0.28571079632E+03  0.90909416864E+02 0.  0.
        -24    2    1    2    0    0 -0.64354262840E+02  0.12987256391E+03  0.21430582984E+03  0.26947245153E+03  0.75366168981E+02 0.  0.
         13    1    4    4    0    0 -0.65019242434E+02  0.46837700066E+02  0.98661018451E+02  0.12710337759E+03  0.00000000000E+00 0. -1.
        -14    1    4    4    0    0  0.66497959387E+00  0.83034863848E+02  0.11564481139E+03  0.14236907393E+03  0.00000000000E+00 0.  1.
        -11    1    3    3    0    0  0.61067407729E+02 -0.42103581300E+02  0.29020306880E+02  0.79649972106E+02  0.00000000000E+00 0. -1.
         11    1    3    3    0    0  0.31606042414E+02 -0.15405849820E+03  0.13314691319E+03  0.20606082422E+03  0.00000000000E+00 0.  1.
         -3    1    1    2    0  502 -0.28319187303E+02  0.66289515588E+02  0.63988995513E+02  0.96389147694E+02  0.00000000000E+00 0.  1.
<scales pt_clust_5="13000.00000" pt_clust_6="13000.00000" pt_clust_7="13000.00000" pt_clust_8="13000.00000" pt_clust_9="72.08524"></scales>
<clustering>
<clus scale="   72.085">  1  9  2 -1</clus>
<clus scale="   75.366">  5  6 -1 -1</clus>
<clus scale="   90.909">  7  8 -1 -1</clus>
<clus scale="  197.290">  1  5  2 -1</clus>
<clus scale="   72.085">  1  5  2 -1</clus>
</clustering>
</event>
<event>
 9    1  0.4067873E-005  0.1586040E+03  0.7546771E-02  0.1192362E+00
         21   -1    0    0  501  502  0.00000000000E+00  0.00000000000E+00  0.26531418090E+03  0.26531418090E+03  0.00000000000E+00 0.  1.
         -2   -1    0    0    0  501 -0.00000000000E+00 -0.00000000000E+00 -0.40702211596E+03  0.40702211596E+03  0.00000000000E+00 0.  1.
        -24    2    1    2    0    0  0.86692657455E+02  0.91396761033E+02 -0.22843079778E+03  0.27263768856E+03  0.79257145207E+02 0.  0.
         23    2    1    2    0    0 -0.33224658737E+01 -0.20187867637E+03  0.12680958675E+03  0.25560215482E+03  0.92118138841E+02 0.  0.
         13    1    3    3    0    0  0.64074673635E+02  0.15793331630E+02 -0.13554102853E+03  0.15075265683E+03  0.00000000000E+00 0. -1.
        -14    1    3    3    0    0  0.22617983820E+02  0.75603429404E+02 -0.92889769243E+02  0.12188503173E+03  0.00000000000E+00 0.  1.
        -11    1    4    4    0    0 -0.36690008122E+01 -0.13490451461E+03  0.13154623147E+03  0.18845981175E+03  0.00000000000E+00 0.  1.
         11    1    4    4    0    0  0.34653493851E+00 -0.66974161756E+02 -0.47366447226E+01  0.67142343068E+02  0.00000000000E+00 0. -1.
         -1    1    1    2    0  502 -0.83370191582E+02  0.11048191534E+03 -0.40086724033E+02  0.14409645348E+03  0.00000000000E+00 0.  1.
<scales pt_clust_5="13000.00000" pt_clust_6="13000.00000" pt_clust_7="13000.00000" pt_clust_8="13000.00000" pt_clust_9="138.40831"></scales>
<clustering>
<clus scale="   79.257">  5  6 -1 -1</clus>
<clus scale="   92.118">  7  8 -1 -1</clus>
<clus scale="  138.408">  1  9  2 -1</clus>
<clus scale="  151.496">  2  5  1 -1</clus>
<clus scale="  138.408">  1  5  2 -1</clus>
</clustering>
</event>
<event>
 9    1  0.4067873E-005  0.1255029E+03  0.7546771E-02  0.1238083E+00
          1   -1    0    0  502    0 -0.00000000000E+00  0.00000000000E+00  0.35682815096E+03  0.35682815096E+03  0.00000000000E+00 0. -1.
         21   -1    0    0  501  502  0.00000000000E+00 -0.00000000000E+00 -0.30286851127E+03  0.30286851127E+03  0.00000000000E+00 0. -1.
        -24    2    1    2    0    0  0.71740551942E+02  0.52552320483E+02  0.29501054265E+03  0.31836737965E+03  0.80113138557E+02 0.  0.
         23    2    1    2    0    0 -0.63799569234E+02 -0.63972091885E+01 -0.19372418838E+02  0.11475765191E+03  0.93181107202E+02 0.  0.
         13    1    3    3    0    0  0.37216858171E+02  0.69393115110E+02  0.22685474002E+03  0.24013240520E+03  0.00000000000E+00 0. -1.
        -14    1    3    3    0    0  0.34523693771E+02 -0.16840794627E+02  0.68155802625E+02  0.78234974447E+02  0.00000000000E+00 0.  1.
        -13    1    4    4    0    0 -0.20484085605E+02 -0.47808455806E+02 -0.79460743461E+00  0.52018050815E+02  0.00000000000E+00 0.  1.
         13    1    4    4    0    0 -0.43315483629E+02  0.41411246618E+02 -0.18577811404E+02  0.62739601091E+02  0.00000000000E+00 0. -1.
          2    1    1    2  501    0 -0.79409827081E+01 -0.46155111295E+02 -0.22167848412E+03  0.22657163067E+03  0.00000000000E+00 0. -1.
<scales pt_clust_5="13000.00000" pt_clust_6="13000.00000" pt_clust_7="13000.00000" pt_clust_8="13000.00000" pt_clust_9="46.83325"></scales>
<clustering>
<clus scale="   46.833">  2  9  1 -1</clus>
<clus scale="   80.113">  5  6 -1 -1</clus>
<clus scale="   93.181">  7  8 -1 -1</clus>
<clus scale="  116.131">  1  5  2 -1</clus>
<clus scale="   46.833">  2  5  1 -1</clus>
</clustering>
</event>
<event>
 9    1  0.4067873E-005  0.1207981E+03  0.7546771E-02  0.1255216E+00
          1   -1    0    0  502    0 -0.00000000000E+00  0.00000000000E+00  0.51400903514E+03  0.51400903514E+03  0.00000000000E+00 0. -1.
         21   -1    0    0  501  502  0.00000000000E+00 -0.00000000000E+00 -0.58491387425E+02  0.58491387425E+02  0.00000000000E+00 0. -1.
        -24    2    1    2    0    0 -0.35996117604E+02 -0.22612053944E+02  0.30612026831E+03  0.31973562149E+03  0.81940365591E+02 0.  0.
         23    2    1    2    0    0 -0.50681218768E+02 -0.17861934509E+02  0.95664361795E+02  0.14304542465E+03  0.91775207737E+02 0.  0.
         13    1    3    3    0    0 -0.61437553234E+02 -0.75314612488E+01  0.22629866967E+03  0.23461113305E+03  0.00000000000E+00 0. -1.
        -14    1    3    3    0    0  0.25441435630E+02 -0.15080592695E+02  0.79821598639E+02  0.85124488440E+02  0.00000000000E+00 0.  1.
        -13    1    4    4    0    0  0.22879967562E+02 -0.18060369760E+02  0.45396471106E+02  0.53949137717E+02  0.00000000000E+00 0.  1.
         13    1    4    4    0    0 -0.73561186329E+02  0.19843525115E+00  0.50267890689E+02  0.89096286932E+02  0.00000000000E+00 0. -1.
          2    1    1    2  501    0  0.86677336372E+02  0.40473988453E+02  0.53733017608E+02  0.10971937642E+03  0.00000000000E+00 0. -1.
<scales pt_clust_5="13000.00000" pt_clust_6="13000.00000" pt_clust_7="13000.00000" pt_clust_8="13000.00000" pt_clust_9="78.54608"></scales>
<clustering>
<clus scale="   81.940">  5  6 -1 -1</clus>
<clus scale="   91.775">  7  8 -1 -1</clus>
<clus scale="   92.311">  1  5  2 -1</clus>
<clus scale="   78.546">  2  9  1 -1</clus>
<clus scale="   78.546">  2  5  1 -1</clus>
</clustering>
</event>
<event>
 9    1  0.4067873E-005  0.1344137E+03  0.7546771E-02  0.1223244E+00
         -2   -1    0    0    0  501 -0.00000000000E+00  0.00000000000E+00  0.21945844458E+03  0.21945844458E+03  0.00000000000E+00 0.  1.
         21   -1    0    0  501  502  0.00000000000E+00 -0.00000000000E+00 -0.59436597159E+03  0.59436597159E+03  0.00000000000E+00 0.  1.
        -24    2    1    2    0    0 -0.27861721265E+02  0.10336156646E+03  0.18288481068E+03  0.22674978813E+03  0.80676660223E+02 0.  0.
         23    2    1    2    0    0  0.28987856416E+01 -0.16735321025E+02 -0.24492281401E+03  0.26147580525E+03  0.89966315790E+02 0.  0.
         13    1    3    3    0    0  0.18456643958E+02  0.48699889260E+02  0.35965866810E+02  0.63291946529E+02  0.00000000000E+00 0. -1.
        -14    1    3    3    0    0 -0.46318365223E+02  0.54661677201E+02  0.14691894387E+03  0.16345784160E+03  0.00000000000E+00 0.  1.
        -13    1    4    4    0    0 -0.20685169510E+02 -0.46657577721E+02 -0.16886477383E+03  0.17640894999E+03  0.00000000000E+00 0. -1.
         13    1    4    4    0    0  0.23583955152E+02  0.29922256696E+02 -0.76058040183E+02  0.85066855254E+02  0.00000000000E+00 0.  1.
         -1    1    1    2    0  502  0.24962935624E+02 -0.86626245435E+02 -0.31286952368E+03  0.32559882279E+03  0.00000000000E+00 0.  1.
<scales pt_clust_5="13000.00000" pt_clust_6="13000.00000" pt_clust_7="13000.00000" pt_clust_8="13000.00000" pt_clust_9="90.15129"></scales>
<clustering>
<clus scale="   80.677">  5  6 -1 -1</clus>
<clus scale="   89.966">  7  8 -1 -1</clus>
<clus scale="   90.151">  2  9  1 -1</clus>
<clus scale="  128.382">  1  5  2 -1</clus>
<clus scale="   90.151">  2  5  1 -1</clus>
</clustering>
</event>
<event>
 9    1  0.4067873E-005  0.2146568E+03  0.7546771E-02  0.1173899E+00
         21   -1    0    0  501  502  0.00000000000E+00  0.00000000000E+00  0.16426654766E+04  0.16426654766E+04  0.00000000000E+00 0. -1.
          3   -1    0    0  502    0 -0.00000000000E+00 -0.00000000000E+00 -0.44932508803E+02  0.44932508803E+02  0.00000000000E+00 0. -1.
        -24    2    1    2    0    0  0.47211353319E+02  0.35192957366E+01  0.25605588908E+03  0.27219713036E+03  0.79280275735E+02 0.  0.
         23    2    1    2    0    0 -0.23012522870E+03 -0.13064583975E+02  0.54603119939E+03  0.59894450983E+03  0.86349006434E+02 0.  0.
         11    1    3    3    0    0 -0.13129016684E+02 -0.22168184394E+02  0.55439483260E+02  0.61133753218E+02  0.00000000000E+00 0. -1.
        -12    1    3    3    0    0  0.60340370002E+02  0.25687480131E+02  0.20061640582E+03  0.21106337715E+03  0.00000000000E+00 0.  1.
        -13    1    4    4    0    0 -0.19720679473E+03 -0.40399623006E+01  0.36660437155E+03  0.41629989962E+03  0.00000000000E+00 0. -1.
         13    1    4    4    0    0 -0.32918433972E+02 -0.90246216745E+01  0.17942682784E+03  0.18264461021E+03  0.00000000000E+00 0.  1.
          4    1    1    2  501    0  0.18291387539E+03  0.95452882386E+01  0.79564587932E+03  0.81645634520E+03  0.00000000000E+00 0. -1.
<scales pt_clust_5="13000.00000" pt_clust_6="13000.00000" pt_clust_7="13000.00000" pt_clust_8="13000.00000" pt_clust_9="196.52329"></scales>
<clustering>
<clus scale="   79.280">  5  6 -1 -1</clus>
<clus scale="   86.349">  7  8 -1 -1</clus>
<clus scale="   92.340">  2  5  1 -1</clus>
<clus scale="  196.523">  1  9  2 -1</clus>
<clus scale="  196.523">  1  5  2 -1</clus>
</clustering>
</event>
<event>
 9    1  0.4067873E-005  0.1384771E+03  0.7546771E-02  0.1236051E+00
          1   -1    0    0  502    0 -0.00000000000E+00  0.00000000000E+00  0.29218455221E+03  0.29218455221E+03  0.00000000000E+00 0. -1.
         21   -1    0    0  501  502  0.00000000000E+00 -0.00000000000E+00 -0.10385794026E+03  0.10385794026E+03  0.00000000000E+00 0. -1.
        -24    2    1    2    0    0 -0.62520178452E+01 -0.48467606827E+02  0.47065610812E+02  0.10166265826E+03  0.75709495605E+02 0.  0.
         23    2    1    2    0    0 -0.84971466110E+02 -0.37310339887E+02  0.47265565901E+02  0.13780805510E+03  0.90248627781E+02 0.  0.
         11    1    3    3    0    0  0.26151006447E+02 -0.47072013469E+02  0.43130081573E+02  0.68991691723E+02  0.00000000000E+00 0. -1.
        -12    1    3    3    0    0 -0.32403024292E+02 -0.13955933575E+01  0.39355292390E+01  0.32670966538E+02  0.00000000000E+00 0.  1.
        -13    1    4    4    0    0 -0.52130681935E+02 -0.43846698350E+02  0.69734227856E+02  0.97483349808E+02  0.00000000000E+00 0.  1.
         13    1    4    4    0    0 -0.32840784176E+02  0.65363584627E+01 -0.22468661955E+02  0.40324705297E+02  0.00000000000E+00 0. -1.
          2    1    1    2  501    0  0.91223483956E+02  0.85777946714E+02  0.93995435237E+02  0.15657177911E+03  0.00000000000E+00 0. -1.
<scales pt_clust_5="13000.00000" pt_clust_6="13000.00000" pt_clust_7="13000.00000" pt_clust_8="13000.00000" pt_clust_9="105.02906"></scales>
<clustering>
<clus scale="   75.709">  5  6 -1 -1</clus>
<clus scale="   90.112">  1  5  2 -1</clus>
<clus scale="   90.249">  7  8 -1 -1</clus>
<clus scale="  105.029">  2  9  1 -1</clus>
<clus scale="  105.029">  2  5  1 -1</clus>
</clustering>
</event>
<event>
 9    1  0.4067873E-005  0.2065783E+03  0.7546771E-02  0.1162400E+00
         21   -1    0    0  501  502  0.00000000000E+00  0.00000000000E+00  0.15190552123E+03  0.15190552123E+03  0.00000000000E+00 0. -1.
          1   -1    0    0  502    0 -0.00000000000E+00 -0.00000000000E+00 -0.70388739462E+03  0.70388739462E+03  0.00000000000E+00 0. -1.
        -24    2    1    2    0    0  0.11118450220E+02 -0.10941828939E+03  0.54759509217E+01  0.13499843768E+03  0.78093598644E+02 0.  0.
         23    2    1    2    0    0 -0.19322528809E+02 -0.10200746902E+03 -0.47313811102E+03  0.49302711379E+03  0.91854117923E+02 0.  0.
         11    1    3    3    0    0 -0.31783010267E+02 -0.67092305599E+02 -0.20237825559E+01  0.74267307128E+02  0.00000000000E+00 0. -1.
        -12    1    3    3    0    0  0.42901460487E+02 -0.42325983787E+02  0.74997334776E+01  0.60731130549E+02  0.00000000000E+00 0.  1.
        -11    1    4    4    0    0  0.19291484088E+02  0.83874073207E+01 -0.90612074045E+02  0.93021814230E+02  0.00000000000E+00 0.  1.
         11    1    4    4    0    0 -0.38614012897E+02 -0.11039487634E+03 -0.38252603698E+03  0.40000529956E+03  0.00000000000E+00 0. -1.
          2    1    1    2  501    0  0.82040785887E+01  0.21142575841E+03 -0.84319713290E+02  0.22776736437E+03  0.00000000000E+00 0. -1.
<scales pt_clust_5="13000.00000" pt_clust_6="13000.00000" pt_clust_7="13000.00000" pt_clust_8="13000.00000" pt_clust_9="185.03356"></scales>
<clustering>
<clus scale="   78.094">  5  6 -1 -1</clus>
<clus scale="   91.854">  7  8 -1 -1</clus>
<clus scale="  134.887">  2  5  1 -1</clus>
<clus scale="  185.034">  1  9  2 -1</clus>
<clus scale="  185.034">  1  5  2 -1</clus>
</clustering>
</event>
<event>
 9    1  0.4067873E-005  0.1798206E+03  0.7546771E-02  0.1169270E+00
         -2   -1    0    0    0  501 -0.00000000000E+00  0.00000000000E+00  0.11991785045E+04  0.11991785045E+04  0.00000000000E+00 0.  1.
         21   -1    0    0  501  502  0.00000000000E+00 -0.00000000000E+00 -0.73425082833E+02  0.73425082833E+02  0.00000000000E+00 0.  1.
        -24    2    1    2    0    0  0.52442158488E+02 -0.15148902330E+03  0.77667257851E+03  0.79719728764E+03  0.81265718721E+02 0.  0.
         23    2    1    2    0    0 -0.32337156593E+02  0.14121196748E+03  0.39143792793E+03  0.42740680383E+03  0.92013113636E+02 0.  0.
         13    1    3    3    0    0  0.16863037632E+02 -0.11207922768E+03  0.36712491541E+03  0.38422235597E+03  0.00000000000E+00 0. -1.
        -14    1    3    3    0    0  0.35579120857E+02 -0.39409795621E+02  0.40954766310E+03  0.41297493167E+03  0.00000000000E+00 0.  1.
        -13    1    4    4    0    0 -0.28171789577E+02  0.87128525631E+02  0.12188369936E+03  0.15244889595E+03  0.00000000000E+00 0. -1.
         13    1    4    4    0    0 -0.41653670154E+01  0.54083441846E+02  0.26955422857E+03  0.27495790788E+03  0.00000000000E+00 0.  1.
         -1    1    1    2    0  502 -0.20105001896E+02  0.10277055820E+02 -0.42357084749E+02  0.47999495893E+02  0.00000000000E+00 0.  1.
<scales pt_clust_5="13000.00000" pt_clust_6="13000.00000" pt_clust_7="13000.00000" pt_clust_8="13000.00000" pt_clust_9="22.57939"></scales>
<clustering>
<clus scale="   22.579">  2  9  1 -1</clus>
<clus scale="   81.266">  5  6 -1 -1</clus>
<clus scale="   92.013">  7  8 -1 -1</clus>
<clus scale="  174.566">  1  5  2 -1</clus>
<clus scale="   22.579">  2  5  1 -1</clus>
</clustering>
</event>
<event>
 9    1  0.4067873E-005  0.1035377E+03  0.7546771E-02  0.1276948E+00
         21   -1    0    0  501  502  0.00000000000E+00  0.00000000000E+00  0.24575404839E+03  0.24575404839E+03  0.00000000000E+00 0.  1.
         -2   -1    0    0    0  501 -0.00000000000E+00 -0.00000000000E+00 -0.80047528931E+02  0.80047528931E+02  0.00000000000E+00 0.  1.
         23    2    1    2    0    0 -0.62333386455E+02 -0.17512697445E+02 -0.56983331804E+00  0.11120697099E+03  0.90413052423E+02 0.  0.
        -24    2    1    2    0    0  0.27740250006E+02 -0.10939935349E+01  0.71753602174E+02  0.11223521780E+03  0.81715643528E+02 0.  0.
         11    1    4    4    0    0  0.26660130126E+02 -0.33501069387E+02  0.66931105053E+02  0.79453489615E+02  0.00000000000E+00 0. -1.
        -12    1    4    4    0    0  0.10801198796E+01  0.32407075852E+02  0.48224971213E+01  0.32781728184E+02  0.00000000000E+00 0.  1.
        -13    1    3    3    0    0 -0.80981215918E+02 -0.32454726837E+02 -0.20357476768E+01  0.87266321650E+02  0.00000000000E+00 0.  1.
         13    1    3    3    0    0  0.18647829463E+02  0.14942029392E+02  0.14659143588E+01  0.23940649342E+02  0.00000000000E+00 0. -1.
         -1    1    1    2    0  502  0.34593136449E+02  0.18606690980E+02  0.94522750602E+02  0.10235938853E+03  0.00000000000E+00 0.  1.
<scales pt_clust_5="13000.00000" pt_clust_6="13000.00000" pt_clust_7="13000.00000" pt_clust_8="13000.00000" pt_clust_9="39.27969"></scales>
<clustering>
<clus scale="   39.280">  1  9  2 -1</clus>
<clus scale="   81.716">  5  6 -1 -1</clus>
<clus scale="   90.413">  7  8 -1 -1</clus>
<clus scale="   96.036">  1  5  2 -1</clus>
<clus scale="   39.280">  1  5  2 -1</clus>
</clustering>
</event>
<event>
 9    1  0.4067873E-005  0.1007054E+03  0.7546771E-02  0.1281643E+00
         -4   -1    0    0    0  501 -0.00000000000E+00  0.00000000000E+00  0.33956030686E+03  0.33956030686E+03  0.00000000000E+00 0.  1.
         21   -1    0    0  501  502  0.00000000000E+00 -0.00000000000E+00 -0.24657311246E+03  0.24657311246E+03  0.00000000000E+00 0.  1.
        -24    2    1    2    0    0  0.22730601632E+02  0.45579137463E+02  0.31585177984E+03  0.33014850973E+03  0.81495727651E+02 0.  0.
         23    2    1    2    0    0 -0.89917568172E+01 -0.23397427508E+02 -0.12490297788E+03  0.15460808449E+03  0.87604877731E+02 0.  0.
         13    1    3    3    0    0  0.14528043138E+02 -0.22879935201E+02  0.84351288229E+02  0.88598506185E+02  0.00000000000E+00 0. -1.
        -14    1    3    3    0    0  0.82025584943E+01  0.68459072664E+02  0.23150049161E+03  0.24155000354E+03  0.00000000000E+00 0.  1.
        -11    1    4    4    0    0  0.29124444594E+02  0.11166256229E+02 -0.18114747249E+02  0.36070245618E+02  0.00000000000E+00 0.  1.
         11    1    4    4    0    0 -0.38116201411E+02 -0.34563683736E+02 -0.10678823063E+03  0.11853783887E+03  0.00000000000E+00 0. -1.
         -3    1    1    2    0  502 -0.13738844815E+02 -0.22181709955E+02 -0.97961607551E+02  0.10137682510E+03  0.00000000000E+00 0.  1.
<scales pt_clust_5="13000.00000" pt_clust_6="13000.00000" pt_clust_7="13000.00000" pt_clust_8="13000.00000" pt_clust_9="26.09184"></scales>
<clustering>
<clus scale="   26.092">  2  9  1 -1</clus>
<clus scale="   81.496">  5  6 -1 -1</clus>
<clus scale="   87.605">  7  8 -1 -1</clus>
<clus scale="   95.439">  1  5  2 -1</clus>
<clus scale="   26.092">  2  5  1 -1</clus>
</clustering>
</event>
<event>
 9    1  0.4067873E-005  0.9665204E+02  0.7546771E-02  0.1291751E+00
         21   -1    0    0  501  502  0.00000000000E+00  0.00000000000E+00  0.54031003578E+02  0.54031003578E+02  0.00000000000E+00 0.  1.
         -2   -1    0    0    0  501 -0.00000000000E+00 -0.00000000000E+00 -0.52542265573E+03  0.52542265573E+03  0.00000000000E+00 0.  1.
        -24    2    1    2    0    0 -0.22339922674E+02  0.10820490842E+02 -0.23237474111E+03  0.24743617696E+03  0.81304896500E+02 0.  0.
         23    2    1    2    0    0  0.98127345675E+02 -0.15969980820E+02 -0.80007876253E+02  0.15579567928E+03  0.89370113368E+02 0.  0.
         11    1    3    3    0    0  0.11576980422E+02  0.38553070612E+02 -0.12975204070E+03  0.13585270624E+03  0.00000000000E+00 0. -1.
        -12    1    3    3    0    0 -0.33916903095E+02 -0.27732579770E+02 -0.10262270042E+03  0.11158347072E+03  0.00000000000E+00 0.  1.
        -11    1    4    4    0    0  0.10668145438E+02  0.30564963599E+02 -0.80715993435E+01  0.33364307918E+02  0.00000000000E+00 0. -1.
         11    1    4    4    0    0  0.87459200237E+02 -0.46534944419E+02 -0.71936276910E+02  0.12243137136E+03  0.00000000000E+00 0.  1.
         -1    1    1    2    0  502 -0.75787423001E+02  0.51494899786E+01 -0.15900903479E+03  0.17622180307E+03  0.00000000000E+00 0.  1.
<scales pt_clust_5="13000.00000" pt_clust_6="13000.00000" pt_clust_7="13000.00000" pt_clust_8="13000.00000" pt_clust_9="75.96220"></scales>
<clustering>
<clus scale="   75.962">  1  9  2 -1</clus>
<clus scale="   81.305">  5  6 -1 -1</clus>
<clus scale="   89.247">  2  5  1 -1</clus>
<clus scale="   89.370">  7  8 -1 -1</clus>
<clus scale="   75.962">  1  5  2 -1</clus>
</clustering>
</event>
<event>
 9    1  0.4067873E-005  0.1063188E+03  0.7546771E-02  0.1273353E+00
         21   -1    0    0  501  502  0.00000000000E+00  0.00000000000E+00  0.34457803492E+03  0.34457803492E+03  0.00000000000E+00 0. -1.
          1   -1    0    0  502    0 -0.00000000000E+00 -0.00000000000E+00 -0.67495368603E+02  0.67495368603E+02  0.00000000000E+00 0. -1.
        -24    2    1    2    0    0 -0.79140804236E+02 -0.44293290715E+01  0.53648222955E+02  0.12416485314E+03  0.79094203814E+02 0.  0.
         23    2    1    2    0    0  0.35137145420E+01  0.36566303498E+02  0.12352253012E+03  0.15854614383E+03  0.92355961022E+02 0.  0.
         13    1    3    3    0    0 -0.18923849802E+02  0.83780647247E+01 -0.19584290847E+02  0.28492955407E+02  0.00000000000E+00 0. -1.
        -14    1    3    3    0    0 -0.60216954434E+02 -0.12807393796E+02  0.73232513803E+02  0.95671897729E+02  0.00000000000E+00 0.  1.
        -11    1    4    4    0    0  0.30473373983E+02  0.53218130919E+02  0.10566915085E+03  0.12217514240E+03  0.00000000000E+00 0.  1.
         11    1    4    4    0    0 -0.26959659441E+02 -0.16651827421E+02  0.17853379270E+02  0.36371001430E+02  0.00000000000E+00 0. -1.
          2    1    1    2  501    0  0.75627089694E+02 -0.32136974426E+02  0.99911913242E+02  0.12936240655E+03  0.00000000000E+00 0. -1.
<scales pt_clust_5="13000.00000" pt_clust_6="13000.00000" pt_clust_7="13000.00000" pt_clust_8="13000.00000" pt_clust_9="82.17203"></scales>
<clustering>
<clus scale="   79.094">  5  6 -1 -1</clus>
<clus scale="   82.172">  1  9  2 -1</clus>
<clus scale="   92.356">  7  8 -1 -1</clus>
<clus scale="   95.026">  2  5  1 -1</clus>
<clus scale="   82.172">  1  5  2 -1</clus>
</clustering>
</event>
<event>
 9    1  0.4067873E-005  0.1008939E+03  0.7546771E-02  0.1284145E+00
          1   -1    0    0  502    0 -0.00000000000E+00  0.00000000000E+00  0.29780392379E+03  0.29780392379E+03  0.00000000000E+00 0. -1.
         21   -1    0    0  501  502  0.00000000000E+00 -0.00000000000E+00 -0.82266246555E+02  0.82266246555E+02  0.00000000000E+00 0. -1.
         23    2    1    2    0    0  0.36502167445E+02  0.20180288004E+02  0.16399690629E+03  0.19135794206E+03  0.89348891790E+02 0.  0.
        -24    2    1    2    0    0 -0.51089687905E+02 -0.52809552536E+02 -0.20124878640E+02  0.10862833485E+03  0.77434484201E+02 0.  0.
         11    1    4    4    0    0 -0.54574630406E+02 -0.69087198920E+02 -0.87700577824E+01  0.88477936526E+02  0.00000000000E+00 0. -1.
        -12    1    4    4    0    0  0.34849425008E+01  0.16277646384E+02 -0.11354820857E+02  0.20150398327E+02  0.00000000000E+00 0.  1.
        -13    1    3    3    0    0  0.40589921422E+02  0.50368456329E+02  0.85923858708E+02  0.10755199956E+03  0.00000000000E+00 0.  1.
         13    1    3    3    0    0 -0.40877539765E+01 -0.30188168325E+02  0.78073047586E+02  0.83805942502E+02  0.00000000000E+00 0. -1.
          2    1    1    2  501    0  0.14587520460E+02  0.32629264531E+02  0.71665649578E+02  0.80083893427E+02  0.00000000000E+00 0. -1.
<scales pt_clust_5="13000.00000" pt_clust_6="13000.00000" pt_clust_7="13000.00000" pt_clust_8="13000.00000" pt_clust_9="35.74166"></scales>
<clustering>
<clus scale="   35.742">  2  9  1 -1</clus>
<clus scale="   77.434">  5  6 -1 -1</clus>
<clus scale="   89.349">  7  8 -1 -1</clus>
<clus scale="   90.512">  2  5  1 -1</clus>
<clus scale="   35.742">  2  5  1 -1</clus>
</clustering>
</event>
<event>
 9    1  0.4067873E-005  0.9157747E+02  0.7546771E-02  0.1302819E+00
         21   -1    0    0  501  502  0.00000000000E+00  0.00000000000E+00  0.14627981532E+03  0.14627981532E+03  0.00000000000E+00 0. -1.
         -2   -1    0    0    0  501 -0.00000000000E+00 -0.00000000000E+00 -0.17075155048E+03  0.17075155048E+03  0.00000000000E+00 0.  1.
         23    2    1    2    0    0 -0.31684801593E+01  0.30024568412E+02 -0.13332838748E+03  0.16191719621E+03  0.86770994856E+02 0.  0.
        -24    2    1    2    0    0 -0.16393657124E+02 -0.22937500249E+02  0.10276104718E+03  0.13343329893E+03  0.80310220612E+02 0.  0.
         13    1    4    4    0    0 -0.22134861496E+02 -0.47430033047E+02  0.40178412814E+02  0.65983823658E+02  0.00000000000E+00 0. -1.
        -14    1    4    4    0    0  0.57412043719E+01  0.24492532798E+02  0.62582634369E+02  0.67449475277E+02  0.00000000000E+00 0.  1.
        -13    1    3    3    0    0  0.15070808672E+02  0.48115367210E+02 -0.12520180180E+03  0.13497299363E+03  0.00000000000E+00 0.  1.
         13    1    3    3    0    0 -0.18239288831E+02 -0.18090798799E+02 -0.81265856796E+01  0.26944202587E+02  0.00000000000E+00 0. -1.
         -1    1    1    2    0  502  0.19562137283E+02 -0.70870681625E+01  0.60956051350E+01  0.21680870651E+02  0.00000000000E+00 0.  1.
<scales pt_clust_5="13000.00000" pt_clust_6="13000.00000" pt_clust_7="13000.00000" pt_clust_8="13000.00000" pt_clust_9="20.80634"></scales>
<clustering>
<clus scale="   20.806">  1  9  2 -1</clus>
<clus scale="   80.310">  5  6 -1 -1</clus>
<clus scale="   85.481">  1  5  2 -1</clus>
<clus scale="   86.771">  7  8 -1 -1</clus>
<clus scale="   20.806">  1  5  2 -1</clus>
</clustering>
</event>
<event>
 9    1  0.4067873E-005  0.1182191E+03  0.7546771E-02  0.1248897E+00
         21   -1    0    0  501  502  0.00000000000E+00  0.00000000000E+00  0.64712741788E+02  0.64712741788E+02  0.00000000000E+00 0.  1.
          1   -1    0    0  502    0 -0.00000000000E+00 -0.00000000000E+00 -0.38543106564E+03  0.38543106564E+03  0.00000000000E+00 0. -1.
         23    2    1    2    0    0 -0.73487817814E+02 -0.23254326468E+01 -0.28548621474E+03  0.30873058438E+03  0.91686029042E+02 0.  0.
        -24    2    1    2    0    0  0.78801740297E+02 -0.17753546044E+02 -0.33171901695E+02  0.12054104989E+03  0.83095529217E+02 0.  0.
         11    1    4    4    0    0  0.38468281104E+02  0.30186062252E+02 -0.30914171701E+02  0.57850609481E+02  0.00000000000E+00 0. -1.
        -12    1    4    4    0    0  0.40333459194E+02 -0.47939608297E+02 -0.22577299948E+01  0.62690440411E+02  0.00000000000E+00 0.  1.
        -13    1    3    3    0    0 -0.57297681569E+01  0.32909975919E+02 -0.42691468173E+02  0.54207547564E+02  0.00000000000E+00 0.  1.
         13    1    3    3    0    0 -0.67758049658E+02 -0.35235408566E+02 -0.24279474657E+03  0.25452303682E+03  0.00000000000E+00 0. -1.
          2    1    1    2  501    0 -0.53139224827E+01  0.20078978691E+02 -0.20602074109E+01  0.20872173150E+02  0.00000000000E+00 0. -1.
<scales pt_clust_5="13000.00000" pt_clust_6="13000.00000" pt_clust_7="13000.00000" pt_clust_8="13000.00000" pt_clust_9="20.77025"></scales>
<clustering>
<clus scale="   20.770">  1  9  2 -1</clus>
<clus scale="   83.096">  5  6 -1 -1</clus>
<clus scale="   91.686">  7  8 -1 -1</clus>
<clus scale="  111.688">  1  5  2 -1</clus>
<clus scale="   20.770">  1  5  2 -1</clus>
</clustering>
</event>
<event>
 9    1  0.4067873E-005  0.9675987E+02  0.7546771E-02  0.1293388E+00
         21   -1    0    0  501  502  0.00000000000E+00  0.00000000000E+00  0.39505136311E+02  0.39505136311E+02  0.00000000000E+00 0. -1.
          1   -1    0    0  502    0 -0.00000000000E+00 -0.00000000000E+00 -0.55578499542E+03  0.55578499542E+03  0.00000000000E+00 0. -1.
        -24    2    1    2    0    0 -0.39944111895E+02  0.10544276836E+02 -0.40948536139E+03  0.41923845706E+03  0.79849288238E+02 0.  0.
         23    2    1    2    0    0 -0.21967786829E+01  0.11191036729E+02 -0.78899066701E+02  0.12103864362E+03  0.91078127908E+02 0.  0.
         13    1    3    3    0    0 -0.53784897297E+02 -0.17639430970E+02 -0.21977051345E+03  0.22694281942E+03  0.00000000000E+00 0. -1.
        -14    1    3    3    0    0  0.13840785402E+02  0.28183707807E+02 -0.18971484794E+03  0.19229563764E+03  0.00000000000E+00 0.  1.
        -11    1    4    4    0    0  0.16902975821E+02 -0.35255241900E+02 -0.20951846847E+02  0.44357891737E+02  0.00000000000E+00 0.  1.
         11    1    4    4    0    0 -0.19099754504E+02  0.46446278629E+02 -0.57947219854E+02  0.76680751883E+02  0.00000000000E+00 0. -1.
          2    1    1    2  501    0  0.42140890578E+02 -0.21735313565E+02 -0.27895431020E+02  0.55013031059E+02  0.00000000000E+00 0. -1.
<scales pt_clust_5="13000.00000" pt_clust_6="13000.00000" pt_clust_7="13000.00000" pt_clust_8="13000.00000" pt_clust_9="47.41602"></scales>
<clustering>
<clus scale="   47.416">  1  9  2 -1</clus>
<clus scale="   79.849">  5  6 -1 -1</clus>
<clus scale="   86.274">  2  5  1 -1</clus>
<clus scale="   91.078">  7  8 -1 -1</clus>
<clus scale="   47.416">  1  5  2 -1</clus>
</clustering>
</event>
<event>
 9    1  0.4067873E-005  0.9140482E+02  0.7546771E-02  0.1304575E+00
         -4   -1    0    0    0  501 -0.00000000000E+00  0.00000000000E+00  0.38209453970E+03  0.38209453970E+03  0.00000000000E+00 0.  1.
         21   -1    0    0  501  502  0.00000000000E+00 -0.00000000000E+00 -0.44907614844E+02  0.44907614844E+02  0.00000000000E+00 0.  1.
        -24    2    1    2    0    0  0.34646139799E+02 -0.53328720218E+01  0.23937690283E+03  0.25470359117E+03  0.79648121256E+02 0.  0.
         23    2    1    2    0    0  0.10425065080E+02 -0.17976751853E+02  0.55356063482E+02  0.10613897850E+03  0.88143878995E+02 0.  0.
         13    1    3    3    0    0 -0.89131106410E+01  0.25702061389E+02  0.13163877115E+03  0.13442025729E+03  0.00000000000E+00 0. -1.
        -14    1    3    3    0    0  0.43559250440E+02 -0.31034933411E+02  0.10773813168E+03  0.12028333388E+03  0.00000000000E+00 0.  1.
        -13    1    4    4    0    0 -0.60813947403E+01  0.29680425968E+02  0.45634031527E+02  0.54775686951E+02  0.00000000000E+00 0.  1.
         13    1    4    4    0    0  0.16506459821E+02 -0.47657177821E+02  0.97220319555E+01  0.51363291551E+02  0.00000000000E+00 0. -1.
         -3    1    1    2    0  502 -0.45071204879E+02  0.23309623875E+02  0.42453958543E+02  0.66159584872E+02  0.00000000000E+00 0.  1.
<scales pt_clust_5="13000.00000" pt_clust_6="13000.00000" pt_clust_7="13000.00000" pt_clust_8="13000.00000" pt_clust_9="50.74201"></scales>
<clustering>
<clus scale="   50.742">  2  9  1 -1</clus>
<clus scale="   79.648">  5  6 -1 -1</clus>
<clus scale="   83.243">  1  5  2 -1</clus>
<clus scale="   88.144">  7  8 -1 -1</clus>
<clus scale="   50.742">  2  5  1 -1</clus>
</clustering>
</event>
<event>
 9    1  0.4067873E-005  0.1015577E+03  0.7546771E-02  0.1281606E+00
          3   -1    0    0  502    0 -0.00000000000E+00  0.00000000000E+00  0.35846158147E+03  0.35846158147E+03  0.00000000000E+00 0. -1.
         21   -1    0    0  501  502  0.00000000000E+00 -0.00000000000E+00 -0.10836253180E+03  0.10836253180E+03  0.00000000000E+00 0.  1.
        -24    2    1    2    0    0 -0.15690362128E+02  0.47433544509E+02  0.31576907551E+03  0.32954659426E+03  0.79966993995E+02 0.  0.
         23    2    1    2    0    0  0.48094506960E+01 -0.24256353410E+02 -0.40701810407E+02  0.10151457445E+03  0.89649706969E+02 0.  0.
         11    1    3    3    0    0 -0.46876610965E+02  0.31320620649E+02  0.15354027103E+03  0.16356348236E+03  0.00000000000E+00 0. -1.
        -12    1    3    3    0    0  0.31186248837E+02  0.16112923860E+02  0.16222880448E+03  0.16598311190E+03  0.00000000000E+00 0.  1.
        -11    1    4    4    0    0 -0.25990749476E+02 -0.42546683006E+02 -0.42691599945E+02  0.65637733043E+02  0.00000000000E+00 0.  1.
         11    1    4    4    0    0  0.30800200172E+02  0.18290329595E+02  0.19897895383E+01  0.35876841412E+02  0.00000000000E+00 0. -1.
          4    1    1    2  501    0  0.10880911432E+02 -0.23177191099E+02 -0.24968215436E+02  0.35762944550E+02  0.00000000000E+00 0. -1.
<scales pt_clust_5="13000.00000" pt_clust_6="13000.00000" pt_clust_7="13000.00000" pt_clust_8="13000.00000" pt_clust_9="25.60423"></scales>
<clustering>
<clus scale="   25.604">  2  9  1 -1</clus>
<clus scale="   79.967">  5  6 -1 -1</clus>
<clus scale="   89.650">  7  8 -1 -1</clus>
<clus scale="   93.121">  1  5  2 -1</clus>
<clus scale="   25.604">  2  5  1 -1</clus>
</clustering>
</event>
<event>
 9    1  0.4067873E-005  0.9283389E+02  0.7546771E-02  0.1302458E+00
         21   -1    0    0  501  502  0.00000000000E+00  0.00000000000E+00  0.19770886857E+03  0.19770886857E+03  0.00000000000E+00 0.  1.
         -2   -1    0    0    0  501 -0.00000000000E+00 -0.00000000000E+00 -0.13433929341E+03  0.13433929341E+03  0.00000000000E+00 0.  1.
         23    2    1    2    0    0  0.63992353353E+01  0.14701932155E+02  0.15282750408E+02  0.93487557308E+02  0.90825458377E+02 0.  0.
        -24    2    1    2    0    0 -0.39858244852E+02 -0.12596524405E+01  0.12486379047E+03  0.15373783257E+03  0.80337342420E+02 0.  0.
         13    1    4    4    0    0 -0.26456951390E+02  0.35044706027E+02  0.35886854604E+02  0.56709505647E+02  0.00000000000E+00 0. -1.
        -14    1    4    4    0    0 -0.13401293462E+02 -0.36304358468E+02  0.88976935866E+02  0.97028326928E+02  0.00000000000E+00 0.  1.
        -11    1    3    3    0    0  0.89610498077E+01  0.52994213464E+02  0.67088473171E+01  0.54163601308E+02  0.00000000000E+00 0.  1.
         11    1    3    3    0    0 -0.25618144724E+01 -0.38292281309E+02  0.85739030912E+01  0.39323956000E+02  0.00000000000E+00 0. -1.
         -1    1    1    2    0  502  0.33459009517E+02 -0.13442279714E+02 -0.76776965716E+02  0.84822772098E+02  0.00000000000E+00 0.  1.
<scales pt_clust_5="13000.00000" pt_clust_6="13000.00000" pt_clust_7="13000.00000" pt_clust_8="13000.00000" pt_clust_9="36.05831"></scales>
<clustering>
<clus scale="   36.058">  1  9  2 -1</clus>
<clus scale="   80.337">  5  6 -1 -1</clus>
<clus scale="   82.601">  1  5  2 -1</clus>
<clus scale="   90.825">  7  8 -1 -1</clus>
<clus scale="   36.058">  1  5  2 -1</clus>
</clustering>
</event>
<event>
 9    1  0.4067873E-005  0.1112937E+03  0.7546771E-02  0.1261100E+00
         -2   -1    0    0    0  501 -0.00000000000E+00  0.00000000000E+00  0.80034344773E+02  0.80034344773E+02  0.00000000000E+00 0.  1.
         21   -1    0    0  501  502  0.00000000000E+00 -0.00000000000E+00 -0.27763001019E+03  0.27763001019E+03  0.00000000000E+00 0. -1.
         23    2    1    2    0    0 -0.57930846893E+02  0.36294203971E+02  0.59292857583E+01  0.11241285350E+03  0.89040670139E+02 0.  0.
        -24    2    1    2    0    0  0.36012616590E+02 -0.55059157532E+02 -0.17953114353E+03  0.20772504270E+03  0.81177844798E+02 0.  0.
         13    1    4    4    0    0  0.56940551496E+02 -0.17526586121E+02 -0.12343595427E+03  0.13706145495E+03  0.00000000000E+00 0. -1.
        -14    1    4    4    0    0 -0.20927934905E+02 -0.37532571411E+02 -0.56095189262E+02  0.70663587755E+02  0.00000000000E+00 0.  1.
        -13    1    3    3    0    0 -0.80492939818E+02  0.16428383052E+02  0.29705629538E+01  0.82206017873E+02  0.00000000000E+00 0.  1.
         13    1    3    3    0    0  0.22562092925E+02  0.19865820919E+02  0.29587228045E+01  0.30206835627E+02  0.00000000000E+00 0. -1.
         -1    1    1    2    0  502  0.21918230302E+02  0.18764953560E+02 -0.23993807640E+02  0.37526458756E+02  0.00000000000E+00 0.  1.
<scales pt_clust_5="13000.00000" pt_clust_6="13000.00000" pt_clust_7="13000.00000" pt_clust_8="13000.00000" pt_clust_9="28.85364"></scales>
<clustering>
<clus scale="   28.854">  2  9  1 -1</clus>
<clus scale="   81.178">  5  6 -1 -1</clus>
<clus scale="   89.041">  7  8 -1 -1</clus>
<clus scale="  105.109">  2  5  1 -1</clus>
<clus scale="   28.854">  2  5  1 -1</clus>
</clustering>
</event>
<event>
 9    1  0.4067873E-005  0.1585835E+03  0.7546771E-02  0.1196171E+00
         21   -1    0    0  501  502  0.00000000000E+00  0.00000000000E+00  0.27576292470E+03  0.27576292470E+03  0.00000000000E+00 0.  1.
         -2   -1    0    0    0  501 -0.00000000000E+00 -0.00000000000E+00 -0.22659989273E+03  0.22659989273E+03  0.00000000000E+00 0.  1.
         23    2    1    2    0    0 -0.21493143006E+02 -0.10429309743E+03 -0.53993446265E+02  0.14949841591E+03  0.89974878452E+02 0.  0.
        -24    2    1    2    0    0  0.14114632908E+03  0.21545496726E+02 -0.16246303647E+02  0.16465952731E+03  0.80388574491E+02 0.  0.
         13    1    4    4    0    0  0.12610984252E+02  0.32372670164E+02 -0.60659329007E+01  0.35267864116E+02  0.00000000000E+00 0. -1.
        -14    1    4    4    0    0  0.12853534483E+03 -0.10827173438E+02 -0.10180370747E+02  0.12939166319E+03  0.00000000000E+00 0.  1.
        -11    1    3    3    0    0 -0.41860398680E+02 -0.22779663434E+02  0.33512756638E+01  0.47774858372E+02  0.00000000000E+00 0. -1.
         11    1    3    3    0    0  0.20367255675E+02 -0.81513433993E+02 -0.57344721928E+02  0.10172355754E+03  0.00000000000E+00 0.  1.
         -1    1    1    2    0  502 -0.11965318607E+03  0.82747600701E+02  0.11940278188E+03  0.18820487422E+03  0.00000000000E+00 0.  1.
<scales pt_clust_5="13000.00000" pt_clust_6="13000.00000" pt_clust_7="13000.00000" pt_clust_8="13000.00000" pt_clust_9="136.69818"></scales>
<clustering>
<clus scale="   80.389">  5  6 -1 -1</clus>
<clus scale="   89.975">  7  8 -1 -1</clus>
<clus scale="  139.408">  2  7  1 -1</clus>
<clus scale="  136.698">  1  9  2 -1</clus>
<clus scale="  136.698">  1  5  2 -1</clus>
</clustering>
</event>
<event>
 9    1  0.4067873E-005  0.1018616E+03  0.7546771E-02  0.1279482E+00
         -2   -1    0    0    0  501 -0.00000000000E+00  0.00000000000E+00  0.39260115089E+03  0.39260115089E+03  0.00000000000E+00 0.  1.
         21   -1    0    0  501  502  0.00000000000E+00 -0.00000000000E+00 -0.46872618784E+02  0.46872618784E+02  0.00000000000E+00 0.  1.
        -24    2    1    2    0    0 -0.52839201686E+02  0.15548368837E+02  0.28258998572E+03  0.29940082820E+03  0.82158522921E+02 0.  0.
         23    2    1    2    0    0  0.27926786055E+02 -0.70304269993E+01  0.30718693382E+02  0.98308953944E+02  0.88835128296E+02 0.  0.
         13    1    3    3    0    0 -0.23461056995E+02  0.15387081534E+02  0.18332148093E+02  0.33514938866E+02  0.00000000000E+00 0. -1.
        -14    1    3    3    0    0 -0.29378144691E+02  0.16128730267E+00  0.26425783763E+03  0.26588588933E+03  0.00000000000E+00 0.  1.
        -13    1    4    4    0    0  0.55467705533E+02  0.51349978027E+00 -0.11975802419E+01  0.55483008549E+02  0.00000000000E+00 0.  1.
         13    1    4    4    0    0 -0.27540919478E+02 -0.75439267796E+01  0.31916273624E+02  0.42825945396E+02  0.00000000000E+00 0. -1.
         -1    1    1    2    0  502  0.24912415631E+02 -0.85179418376E+01  0.32419853003E+02  0.41763987530E+02  0.00000000000E+00 0.  1.
<scales pt_clust_5="13000.00000" pt_clust_6="13000.00000" pt_clust_7="13000.00000" pt_clust_8="13000.00000" pt_clust_9="26.32838"></scales>
<clustering>
<clus scale="   26.328">  2  9  1 -1</clus>
<clus scale="   82.159">  5  6 -1 -1</clus>
<clus scale="   88.835">  7  8 -1 -1</clus>
<clus scale="   96.094">  1  5  2 -1</clus>
<clus scale="   26.328">  2  5  1 -1</clus>
</clustering>
</event>
<event>
 9    1  0.4067873E-005  0.1157231E+03  0.7546771E-02  0.1253749E+00
         21   -1    0    0  501  502  0.00000000000E+00  0.00000000000E+00  0.70104209957E+02  0.70104209957E+02  0.00000000000E+00 0.  1.
          1   -1    0    0  502    0 -0.00000000000E+00 -0.00000000000E+00 -0.32351552824E+03  0.32351552824E+03  0.00000000000E+00 0. -1.
        -24    2    1    2    0    0  0.21111741635E+02  0.72607648871E+02 -0.21748330681E+03  0.24297882717E+03  0.77602483218E+02 0.  0.
         23    2    1    2    0    0  0.65205046297E+01 -0.77729991700E+02 -0.34544571141E+02  0.12250386540E+03  0.87917012297E+02 0.  0.
         11    1    3    3    0    0  0.18353211030E+02  0.47911411694E+02 -0.21120604387E+03  0.21734842234E+03  0.00000000000E+00 0. -1.
        -12    1    3    3    0    0  0.27585306054E+01  0.24696237178E+02 -0.62772629423E+01  0.25630404832E+02  0.00000000000E+00 0.  1.
        -11    1    4    4    0    0  0.42575281858E+02 -0.25694368289E+02 -0.32024946661E+02  0.59147716741E+02  0.00000000000E+00 0. -1.
         11    1    4    4    0    0 -0.36054777228E+02 -0.52035623411E+02 -0.25196244794E+01  0.63356148654E+02  0.00000000000E+00 0.  1.
          2    1    1    2  501    0 -0.27632246265E+02  0.51223428293E+01 -0.13834403299E+01  0.28137045631E+02  0.00000000000E+00 0. -1.
<scales pt_clust_5="13000.00000" pt_clust_6="13000.00000" pt_clust_7="13000.00000" pt_clust_8="13000.00000" pt_clust_9="28.10301"></scales>
<clustering>
<clus scale="   28.103">  1  9  2 -1</clus>
<clus scale="   77.602">  5  6 -1 -1</clus>
<clus scale="   87.917">  7  8 -1 -1</clus>
<clus scale="  108.095">  2  5  1 -1</clus>
<clus scale="   28.103">  1  5  2 -1</clus>
</clustering>
</event>
<event>
 9    1  0.4067873E-005  0.9681067E+02  0.7546771E-02  0.1291362E+00
         -2   -1    0    0    0  501 -0.00000000000E+00  0.00000000000E+00  0.47185218941E+03  0.47185218941E+03  0.00000000000E+00 0.  1.
         21   -1    0    0  501  502  0.00000000000E+00 -0.00000000000E+00 -0.53353655403E+02  0.53353655403E+02  0.00000000000E+00 0.  1.
        -24    2    1    2    0    0  0.27455449561E+02  0.37216958680E+02  0.30855656844E+03  0.32240728763E+03  0.81242842542E+02 0.  0.
         23    2    1    2    0    0 -0.28211862937E+02  0.10657160338E+01  0.12949904001E+03  0.15980303992E+03  0.89274661823E+02 0.  0.
         13    1    3    3    0    0 -0.23682826878E+02  0.22913795371E+02  0.62169835439E+02  0.70363390664E+02  0.00000000000E+00 0. -1.
        -14    1    3    3    0    0  0.51138276439E+02  0.14303163308E+02  0.24638673300E+03  0.25204389696E+03  0.00000000000E+00 0.  1.
        -13    1    4    4    0    0 -0.24313599979E+02 -0.28907587987E+02  0.13790257133E+02  0.40211577673E+02  0.00000000000E+00 0. -1.
         13    1    4    4    0    0 -0.38982629580E+01  0.29973304020E+02  0.11570878288E+03  0.11959146225E+03  0.00000000000E+00 0.  1.
         -1    1    1    2    0  502  0.75641337600E+00 -0.38282674713E+02 -0.19557074439E+02  0.42995517267E+02  0.00000000000E+00 0.  1.
<scales pt_clust_5="13000.00000" pt_clust_6="13000.00000" pt_clust_7="13000.00000" pt_clust_8="13000.00000" pt_clust_9="38.29015"></scales>
<clustering>
<clus scale="   38.290">  2  9  1 -1</clus>
<clus scale="   81.243">  5  6 -1 -1</clus>
<clus scale="   89.275">  7  8 -1 -1</clus>
<clus scale="   89.458">  1  5  2 -1</clus>
<clus scale="   38.290">  2  5  1 -1</clus>
</clustering>
</event>
<event>
 9    1  0.4067873E-005  0.1566341E+03  0.7546771E-02  0.1194071E+00
         21   -1    0    0  501  502  0.00000000000E+00  0.00000000000E+00  0.34688839851E+02  0.34688839851E+02  0.00000000000E+00 0.  1.
          1   -1    0    0  502    0 -0.00000000000E+00 -0.00000000000E+00 -0.12809372078E+04  0.12809372078E+04  0.00000000000E+00 0. -1.
         23    2    1    2    0    0 -0.96358904901E+01 -0.12278842988E+03 -0.76933136539E+03  0.78444431472E+03  0.91171729266E+02 0.  0.
        -24    2    1    2    0    0  0.67389879623E+02  0.12724157016E+03 -0.41256795617E+03  0.44460140324E+03  0.82013878441E+02 0.  0.
         11    1    4    4    0    0  0.68785337303E+02  0.55308040108E+02 -0.28241687637E+03  0.29588797540E+03  0.00000000000E+00 0. -1.
        -12    1    4    4    0    0 -0.13954576805E+01  0.71933530052E+02 -0.13015107980E+03  0.14871342784E+03  0.00000000000E+00 0.  1.
        -13    1    3    3    0    0 -0.38379416293E+02 -0.14226702327E+02 -0.20831059559E+03  0.21229385976E+03  0.00000000000E+00 0.  1.
         13    1    3    3    0    0  0.28743525802E+02 -0.10856172756E+03 -0.56102076980E+03  0.57215045496E+03  0.00000000000E+00 0. -1.
          2    1    1    2  501    0 -0.57753989133E+02 -0.44531402764E+01 -0.64349046408E+02  0.86580329710E+02  0.00000000000E+00 0. -1.
<scales pt_clust_5="13000.00000" pt_clust_6="13000.00000" pt_clust_7="13000.00000" pt_clust_8="13000.00000" pt_clust_9="57.92542"></scales>
<clustering>
<clus scale="   57.925">  1  9  2 -1</clus>
<clus scale="   82.014">  5  6 -1 -1</clus>
<clus scale="   91.172">  7  8 -1 -1</clus>
<clus scale="  151.487">  1  5  2 -1</clus>
<clus scale="   57.925">  1  5  2 -1</clus>
</clustering>
</event>
<event>
 9    1  0.4067873E-005  0.1195378E+03  0.7546771E-02  0.1246597E+00
         21   -1    0    0  501  502  0.00000000000E+00  0.00000000000E+00  0.80313997791E+02  0.80313997791E+02  0.00000000000E+00 0. -1.
          1   -1    0    0  502    0 -0.00000000000E+00 -0.00000000000E+00 -0.32045873268E+03  0.32045873268E+03  0.00000000000E+00 0. -1.
         23    2    1    2    0    0 -0.33316121093E+02  0.62541679692E+02 -0.12300785613E+03  0.16778561413E+03  0.89440784972E+02 0.  0.
        -24    2    1    2    0    0  0.38577959216E+02 -0.92864780207E+02 -0.19221039243E+02  0.13034848329E+03  0.80679318337E+02 0.  0.
         13    1    4    4    0    0  0.57920397728E+02 -0.70240326478E+02  0.61342664991E+01  0.91247494005E+02  0.00000000000E+00 0. -1.
        -14    1    4    4    0    0 -0.19342438512E+02 -0.22624453729E+02 -0.25355305742E+02  0.39100989289E+02  0.00000000000E+00 0.  1.
        -13    1    3    3    0    0 -0.30416204549E+02 -0.16119270374E+02 -0.47905321733E+02  0.58990645249E+02  0.00000000000E+00 0.  1.
         13    1    3    3    0    0 -0.28999165441E+01  0.78660950066E+02 -0.75102534398E+02  0.10879496888E+03  0.00000000000E+00 0. -1.
          2    1    1    2  501    0 -0.52618381234E+01  0.30323100515E+02 -0.97915839516E+02  0.10263863305E+03  0.00000000000E+00 0. -1.
<scales pt_clust_5="13000.00000" pt_clust_6="13000.00000" pt_clust_7="13000.00000" pt_clust_8="13000.00000" pt_clust_9="30.77626"></scales>
<clustering>
<clus scale="   30.776">  1  9  2 -1</clus>
<clus scale="   80.679">  5  6 -1 -1</clus>
<clus scale="   89.441">  7  8 -1 -1</clus>
<clus scale="  113.132">  1  5  2 -1</clus>
<clus scale="   30.776">  1  5  2 -1</clus>
</clustering>
</event>
<event>
 9    1  0.4067873E-005  0.9381563E+02  0.7546771E-02  0.1300771E+00
          3   -1    0    0  502    0 -0.00000000000E+00  0.00000000000E+00  0.11651367171E+03  0.11651367171E+03  0.00000000000E+00 0. -1.
         21   -1    0    0  501  502  0.00000000000E+00 -0.00000000000E+00 -0.30461975448E+03  0.30461975448E+03  0.00000000000E+00 0.  1.
        -24    2    1    2    0    0 -0.38021773837E+01 -0.12125995800E+02  0.59996729124E+02  0.10055612928E+03  0.79689593444E+02 0.  0.
         23    2    1    2    0    0  0.43878831510E+02  0.70622015531E+02 -0.11018138663E+03  0.16549589223E+03  0.91302417568E+02 0.  0.
         11    1    3    3    0    0 -0.37578507877E+02 -0.23752137569E+02  0.38887233598E+02  0.59063738709E+02  0.00000000000E+00 0. -1.
        -12    1    3    3    0    0  0.33776330493E+02  0.11626141770E+02  0.21109495526E+02  0.41492390572E+02  0.00000000000E+00 0.  1.
        -13    1    4    4    0    0  0.50153063871E+02 -0.96935600916E+00 -0.33039960830E+02  0.60065867832E+02  0.00000000000E+00 0. -1.
         13    1    4    4    0    0 -0.62742323609E+01  0.71591371540E+02 -0.77141425796E+02  0.10543002440E+03  0.00000000000E+00 0.  1.
          4    1    1    2  501    0 -0.40076654126E+02 -0.58496019731E+02 -0.13792142526E+03  0.15508140468E+03  0.00000000000E+00 0. -1.
<scales pt_clust_5="13000.00000" pt_clust_6="13000.00000" pt_clust_7="13000.00000" pt_clust_8="13000.00000" pt_clust_9="70.90785"></scales>
<clustering>
<clus scale="   70.908">  2  9  1 -1</clus>
<clus scale="   79.690">  5  6 -1 -1</clus>
<clus scale="   82.557">  1  5  2 -1</clus>
<clus scale="   91.302">  7  8 -1 -1</clus>
<clus scale="   70.908">  2  5  1 -1</clus>
</clustering>
</event>
<event>
 9    1  0.4067873E-005  0.1375483E+03  0.7546771E-02  0.1226843E+00
         21   -1    0    0  501  502  0.00000000000E+00  0.00000000000E+00  0.28903890825E+03  0.28903890825E+03  0.00000000000E+00 0. -1.
          1   -1    0    0  502    0 -0.00000000000E+00 -0.00000000000E+00 -0.15812788499E+03  0.15812788499E+03  0.00000000000E+00 0. -1.
        -24    2    1    2    0    0  0.73569608244E+02  0.31745144376E+02 -0.28053253829E+02  0.12775032982E+03  0.95461616737E+02 0.  0.
         23    2    1    2    0    0  0.75485724221E+01  0.53918555369E+02  0.14733190428E+03  0.20086798900E+03  0.12520809650E+03 0.  0.
         13    1    3    3    0    0  0.53382604204E+02  0.18400573395E+02 -0.63409277031E+02  0.84905947651E+02  0.00000000000E+00 0. -1.
        -14    1    3    3    0    0  0.20187004039E+02  0.13344570981E+02  0.35356023202E+02  0.42844382169E+02  0.00000000000E+00 0.  1.
        -11    1    4    4    0    0 -0.51842991797E+02  0.50586965708E+02  0.10618814416E+03  0.12854049501E+03  0.00000000000E+00 0.  1.
         11    1    4    4    0    0  0.59391564219E+02  0.33315896618E+01  0.41143760119E+02  0.72327493989E+02  0.00000000000E+00 0. -1.
          2    1    1    2  501    0 -0.81118180666E+02 -0.85663699746E+02  0.11632372812E+02  0.11854847441E+03  0.00000000000E+00 0. -1.
<scales pt_clust_5="13000.00000" pt_clust_6="13000.00000" pt_clust_7="13000.00000" pt_clust_8="13000.00000" pt_clust_9="117.97645"></scales>
<clustering>
<clus scale="   95.462">  5  6 -1 -1</clus>
<clus scale="  117.976">  1  9  2 -1</clus>
<clus scale="  111.155">  2  5  1 -1</clus>
<clus scale="  125.208">  7  8 -1 -1</clus>
<clus scale="  117.976">  1  5  2 -1</clus>
</clustering>
</event>
<event>
 9    1  0.4067873E-005  0.1375309E+03  0.7546771E-02  0.1221790E+00
         21   -1    0    0  501  502  0.00000000000E+00  0.00000000000E+00  0.68305194298E+03  0.68305194298E+03  0.00000000000E+00 0.  1.
         -2   -1    0    0    0  501 -0.00000000000E+00 -0.00000000000E+00 -0.80997269193E+02  0.80997269193E+02  0.00000000000E+00 0.  1.
         23    2    1    2    0    0  0.41718334383E+02  0.91728589853E+02  0.83923646601E+02  0.16649834751E+03  0.10258639112E+03 0.  0.
        -24    2    1    2    0    0 -0.76439560675E+02 -0.20361766978E+02  0.50409407031E+03  0.51695419525E+03  0.82904766287E+02 0.  0.
         13    1    4    4    0    0 -0.26801775947E+02  0.23545183890E+02  0.78432131182E+02  0.86164436284E+02  0.00000000000E+00 0. -1.
        -14    1    4    4    0    0 -0.49637784728E+02 -0.43906950868E+02  0.42566193913E+03  0.43078975897E+03  0.00000000000E+00 0.  1.
        -11    1    3    3    0    0  0.36185494384E+02  0.56946559020E+02 -0.81096182964E+01  0.67956357296E+02  0.00000000000E+00 0.  1.
         11    1    3    3    0    0  0.55328399990E+01  0.34782030834E+02  0.92033264897E+02  0.98541990212E+02  0.00000000000E+00 0. -1.
         -1    1    1    2    0  502  0.34721226292E+02 -0.71366822875E+02  0.14036956876E+02  0.80596669415E+02  0.00000000000E+00 0.  1.
<scales pt_clust_5="13000.00000" pt_clust_6="13000.00000" pt_clust_7="13000.00000" pt_clust_8="13000.00000" pt_clust_9="79.36494"></scales>
<clustering>
<clus scale="   79.365">  1  9  2 -1</clus>
<clus scale="   82.905">  5  6 -1 -1</clus>
<clus scale="  102.586">  7  8 -1 -1</clus>
<clus scale="  123.548">  1  5  2 -1</clus>
<clus scale="   79.365">  1  5  2 -1</clus>
</clustering>
</event>
<event>
 9    1  0.4067873E-005  0.9430253E+02  0.7546771E-02  0.1295583E+00
         21   -1    0    0  501  502  0.00000000000E+00  0.00000000000E+00  0.48336053466E+02  0.48336053466E+02  0.00000000000E+00 0. -1.
         -2   -1    0    0    0  501 -0.00000000000E+00 -0.00000000000E+00 -0.63549664557E+03  0.63549664557E+03  0.00000000000E+00 0.  1.
        -24    2    1    2    0    0  0.53689016669E+02 -0.74774592444E+01 -0.40222366250E+03  0.41348702374E+03  0.79052015928E+02 0.  0.
         23    2    1    2    0    0  0.28582922588E+02 -0.34420719011E+01 -0.29261506432E+02  0.93929277161E+02  0.84484566796E+02 0.  0.
         13    1    3    3    0    0 -0.45223842327E+01  0.26460208833E+02 -0.15186431569E+03  0.15421856241E+03  0.00000000000E+00 0. -1.
        -14    1    3    3    0    0  0.58211400902E+02 -0.33937668077E+02 -0.25035934680E+03  0.25926846133E+03  0.00000000000E+00 0.  1.
        -13    1    4    4    0    0  0.45344234372E+02 -0.15768619715E+02  0.10418591667E+02  0.49125309269E+02  0.00000000000E+00 0. -1.
         13    1    4    4    0    0 -0.16761311784E+02  0.12326547814E+02 -0.39680098099E+02  0.44803967892E+02  0.00000000000E+00 0.  1.
         -1    1    1    2    0  502 -0.82271939257E+02  0.10919531146E+02 -0.15567542318E+03  0.17641639814E+03  0.00000000000E+00 0.  1.
<scales pt_clust_5="13000.00000" pt_clust_6="13000.00000" pt_clust_7="13000.00000" pt_clust_8="13000.00000" pt_clust_9="82.99346"></scales>
<clustering>
<clus scale="   79.052">  5  6 -1 -1</clus>
<clus scale="   82.993">  1  9  2 -1</clus>
<clus scale="   84.485">  7  8 -1 -1</clus>
<clus scale="   89.468">  2  5  1 -1</clus>
<clus scale="   82.993">  1  5  2 -1</clus>
</clustering>
</event>
<event>
 9    1  0.4067873E-005  0.1027013E+03  0.7546771E-02  0.1277607E+00
         21   -1    0    0  501  502  0.00000000000E+00  0.00000000000E+00  0.16102735050E+02  0.16102735050E+02  0.00000000000E+00 0.  1.
          1   -1    0    0  502    0 -0.00000000000E+00 -0.00000000000E+00 -0.10864356081E+04  0.10864356081E+04  0.00000000000E+00 0. -1.
        -24    2    1    2    0    0 -0.47838628183E+02  0.17797388382E+02 -0.73647787967E+03  0.74254400191E+03  0.79791266146E+02 0.  0.
         23    2    1    2    0    0  0.70048249813E+02 -0.15429422359E+02 -0.28025386910E+03  0.30192580346E+03  0.86441513590E+02 0.  0.
         11    1    3    3    0    0 -0.35308648374E+02 -0.13930397185E+02 -0.13889011545E+03  0.14398340455E+03  0.00000000000E+00 0. -1.
        -12    1    3    3    0    0 -0.12529979809E+02  0.31727785568E+02 -0.59758776422E+03  0.59856059736E+03  0.00000000000E+00 0.  1.
        -13    1    4    4    0    0  0.22672757511E+02  0.31926607695E+02 -0.59471881088E+02  0.71205806309E+02  0.00000000000E+00 0.  1.
         13    1    4    4    0    0  0.47375492302E+02 -0.47356030054E+02 -0.22078198801E+03  0.23071999715E+03  0.00000000000E+00 0. -1.
          2    1    1    2  501    0 -0.22209621630E+02 -0.23679660233E+01 -0.53601124299E+02  0.58068537799E+02  0.00000000000E+00 0. -1.
<scales pt_clust_5="13000.00000" pt_clust_6="13000.00000" pt_clust_7="13000.00000" pt_clust_8="13000.00000" pt_clust_9="22.33550"></scales>
<clustering>
<clus scale="   22.335">  1  9  2 -1</clus>
<clus scale="   79.791">  5  6 -1 -1</clus>
<clus scale="   86.442">  7  8 -1 -1</clus>
<clus scale="   97.170">  2  5  1 -1</clus>
<clus scale="   22.335">  1  5  2 -1</clus>
</clustering>
</event>
<event>
 9    1  0.4067873E-005  0.1071707E+03  0.7546771E-02  0.1269863E+00
          1   -1    0    0  502    0 -0.00000000000E+00  0.00000000000E+00  0.33488905971E+03  0.33488905971E+03  0.00000000000E+00 0. -1.
         21   -1    0    0  501  502  0.00000000000E+00 -0.00000000000E+00 -0.20018831801E+03  0.20018831801E+03  0.00000000000E+00 0. -1.
        -24    2    1    2    0    0 -0.29332520371E+02  0.54932707709E+02  0.21881581400E+03  0.24148352353E+03  0.80968713398E+02 0.  0.
         23    2    1    2    0    0 -0.42629965589E+02 -0.59912259067E+02  0.60948383363E+02  0.13158520786E+03  0.90516124205E+02 0.  0.
         11    1    3    3    0    0 -0.53804836469E+02  0.30772068874E+02  0.17582502849E+03  0.18643047309E+03  0.00000000000E+00 0. -1.
        -12    1    3    3    0    0  0.24472316098E+02  0.24160638835E+02  0.42990785510E+02  0.55053050441E+02  0.00000000000E+00 0.  1.
        -13    1    4    4    0    0  0.74989563172E+01 -0.47959384217E+02 -0.39636313922E+01  0.48703667769E+02  0.00000000000E+00 0. -1.
         13    1    4    4    0    0 -0.50128921906E+02 -0.11952874849E+02  0.64912014756E+02  0.82881540094E+02  0.00000000000E+00 0.  1.
          2    1    1    2  501    0  0.71962485960E+02  0.49795513579E+01 -0.14506345566E+03  0.16200864633E+03  0.00000000000E+00 0. -1.
<scales pt_clust_5="13000.00000" pt_clust_6="13000.00000" pt_clust_7="13000.00000" pt_clust_8="13000.00000" pt_clust_9="72.13456"></scales>
<clustering>
<clus scale="   72.135">  2  9  1 -1</clus>
<clus scale="   80.969">  5  6 -1 -1</clus>
<clus scale="   90.516">  7  8 -1 -1</clus>
<clus scale="   99.239">  1  5  2 -1</clus>
<clus scale="   72.135">  2  5  1 -1</clus>
</clustering>
</event>
<event>
 9    1  0.4067873E-005  0.1243213E+03  0.7546771E-02  0.1240324E+00
          1   -1    0    0  502    0 -0.00000000000E+00  0.00000000000E+00  0.20877537313E+03  0.20877537313E+03  0.00000000000E+00 0. -1.
         21   -1    0    0  501  502  0.00000000000E+00 -0.00000000000E+00 -0.11376310300E+03  0.11376310300E+03  0.00000000000E+00 0.  1.
        -24    2    1    2    0    0 -0.24407142074E+02  0.86378207822E+02  0.13480497059E+03  0.17947555184E+03  0.77344619991E+02 0.  0.
         23    2    1    2    0    0  0.19672943575E+02 -0.61737023525E+02 -0.31059411534E+02  0.11649469261E+03  0.91694283245E+02 0.  0.
         13    1    3    3    0    0  0.20866487904E+02  0.58824996881E+01  0.48269794575E+02  0.52914905162E+02  0.00000000000E+00 0. -1.
        -14    1    3    3    0    0 -0.45273629978E+02  0.80495708134E+02  0.86535176017E+02  0.12656064668E+03  0.00000000000E+00 0.  1.
        -13    1    4    4    0    0  0.25182931984E+02  0.89250086619E+01  0.16257380486E+02  0.31275202049E+02  0.00000000000E+00 0. -1.
         13    1    4    4    0    0 -0.55099884090E+01 -0.70662032186E+02 -0.47316792020E+02  0.85219490564E+02  0.00000000000E+00 0.  1.
          2    1    1    2  501    0  0.47341984984E+01 -0.24641184297E+02 -0.87332889333E+01  0.26568231680E+02  0.00000000000E+00 0. -1.
<scales pt_clust_5="13000.00000" pt_clust_6="13000.00000" pt_clust_7="13000.00000" pt_clust_8="13000.00000" pt_clust_9="25.09184"></scales>
<clustering>
<clus scale="   25.092">  2  9  1 -1</clus>
<clus scale="   77.345">  5  6 -1 -1</clus>
<clus scale="   91.694">  7  8 -1 -1</clus>
<clus scale="  114.150">  1  5  2 -1</clus>
<clus scale="   25.092">  2  5  1 -1</clus>
</clustering>
</event>
<event>
 9    1  0.4067873E-005  0.1075984E+03  0.7546771E-02  0.1267108E+00
         21   -1    0    0  501  502  0.00000000000E+00  0.00000000000E+00  0.87239791168E+02  0.87239791168E+02  0.00000000000E+00 0. -1.
          1   -1    0    0  502    0 -0.00000000000E+00 -0.00000000000E+00 -0.25706044797E+03  0.25706044797E+03  0.00000000000E+00 0. -1.
        -24    2    1    2    0    0 -0.33588972222E+02 -0.39133839905E+02 -0.76285817214E+02  0.12363433283E+03  0.82499974943E+02 0.  0.
         23    2    1    2    0    0  0.89015289085E+02  0.30874038928E+02 -0.23242171793E+02  0.13076952118E+03  0.87655810701E+02 0.  0.
         11    1    3    3    0    0 -0.22755943732E+02 -0.61135695196E+02 -0.74531876711E+02  0.99047497941E+02  0.00000000000E+00 0. -1.
        -12    1    3    3    0    0 -0.10833028491E+02  0.22001855292E+02 -0.17539405021E+01  0.24586834888E+02  0.00000000000E+00 0.  1.
        -13    1    4    4    0    0  0.28751752957E+02  0.32724919431E+02  0.27881886205E+02  0.51720240025E+02  0.00000000000E+00 0.  1.
         13    1    4    4    0    0  0.60263536127E+02 -0.18508805034E+01 -0.51124057997E+02  0.79049281156E+02  0.00000000000E+00 0. -1.
          2    1    1    2  501    0 -0.55426316862E+02  0.82598009770E+01 -0.70292667794E+02  0.89896385126E+02  0.00000000000E+00 0. -1.
<scales pt_clust_5="13000.00000" pt_clust_6="13000.00000" pt_clust_7="13000.00000" pt_clust_8="13000.00000" pt_clust_9="56.03842"></scales>
<clustering>
<clus scale="   56.038">  1  9  2 -1</clus>
<clus scale="   82.500">  5  6 -1 -1</clus>
<clus scale="   87.656">  7  8 -1 -1</clus>
<clus scale="  103.441">  2  5  1 -1</clus>
<clus scale="   56.038">  1  5  2 -1</clus>
</clustering>
</event>
<event>
 9    1  0.4067873E-005  0.1715631E+03  0.7546771E-02  0.1177616E+00
         21   -1    0    0  501  502  0.00000000000E+00  0.00000000000E+00  0.97458851440E+02  0.97458851440E+02  0.00000000000E+00 0. -1.
          1   -1    0    0  502    0 -0.00000000000E+00 -0.00000000000E+00 -0.10457610881E+04  0.10457610881E+04  0.00000000000E+00 0. -1.
         23    2    1    2    0    0  0.17045839576E+03  0.23211931892E+01 -0.65581834378E+03  0.68368099126E+03  0.90887541259E+02 0.  0.
        -24    2    1    2    0    0 -0.90131508142E+02 -0.10742521750E+03 -0.28424220249E+03  0.32699767071E+03  0.80436191221E+02 0.  0.
         13    1    4    4    0    0 -0.27081161176E+02 -0.20582473836E+02 -0.15652491872E+03  0.16017826850E+03  0.00000000000E+00 0. -1.
        -14    1    4    4    0    0 -0.63050346966E+02 -0.86842743662E+02 -0.12771728377E+03  0.16681940221E+03  0.00000000000E+00 0.  1.
        -11    1    3    3    0    0  0.43100721270E+02 -0.35042830122E+02 -0.13000950781E+03  0.14137943358E+03  0.00000000000E+00 0. -1.
         11    1    3    3    0    0  0.12735767449E+03  0.37364023311E+02 -0.52580883596E+03  0.54230155768E+03  0.00000000000E+00 0.  1.
          2    1    1    2  501    0 -0.80326887619E+02  0.10510402431E+03 -0.82416903999E+01  0.13254127757E+03  0.00000000000E+00 0. -1.
<scales pt_clust_5="13000.00000" pt_clust_6="13000.00000" pt_clust_7="13000.00000" pt_clust_8="13000.00000" pt_clust_9="132.28479"></scales>
<clustering>
<clus scale="   80.436">  5  6 -1 -1</clus>
<clus scale="   90.888">  7  8 -1 -1</clus>
<clus scale="  132.285">  1  9  2 -1</clus>
<clus scale="  166.263">  1  5  2 -1</clus>
<clus scale="  132.285">  1  5  2 -1</clus>
</clustering>
</event>
<event>
 9    1  0.4067873E-005  0.9737406E+02  0.7546771E-02  0.1294294E+00
         21   -1    0    0  501  502  0.00000000000E+00  0.00000000000E+00  0.13362127009E+03  0.13362127009E+03  0.00000000000E+00 0. -1.
         -4   -1    0    0    0  501 -0.00000000000E+00 -0.00000000000E+00 -0.16674013644E+03  0.16674013644E+03  0.00000000000E+00 0.  1.
        -24    2    1    2    0    0 -0.49693082174E+01  0.16522350158E+02 -0.10020221174E+03  0.13026586904E+03  0.81431144649E+02 0.  0.
         23    2    1    2    0    0 -0.20533200958E+02 -0.21666239357E+02  0.90456722145E+02  0.13512194301E+03  0.95835706453E+02 0.  0.
         11    1    3    3    0    0 -0.39727185601E+02 -0.81286355315E+01 -0.51654891170E+02  0.65670021875E+02  0.00000000000E+00 0. -1.
        -12    1    3    3    0    0  0.34757877383E+02  0.24650985690E+02 -0.48547320575E+02  0.64595847163E+02  0.00000000000E+00 0.  1.
        -13    1    4    4    0    0 -0.33231593764E+02  0.13558818508E+02 -0.14083926521E+01  0.35918852339E+02  0.00000000000E+00 0.  1.
         13    1    4    4    0    0  0.12698392806E+02 -0.35225057865E+02  0.91865114797E+02  0.99203090668E+02  0.00000000000E+00 0. -1.
         -3    1    1    2    0  502  0.25502509175E+02  0.51438891990E+01 -0.23373376747E+02  0.34973594481E+02  0.00000000000E+00 0.  1.
<scales pt_clust_5="13000.00000" pt_clust_6="13000.00000" pt_clust_7="13000.00000" pt_clust_8="13000.00000" pt_clust_9="26.01612"></scales>
<clustering>
<clus scale="   26.016">  1  9  2 -1</clus>
<clus scale="   81.431">  5  6 -1 -1</clus>
<clus scale="   83.236">  2  5  1 -1</clus>
<clus scale="   95.836">  7  8 -1 -1</clus>
<clus scale="   26.016">  1  5  2 -1</clus>
</clustering>
</event>
<event>
 9    1  0.4067873E-005  0.1151906E+03  0.7546771E-02  0.1257285E+00
          3   -1    0    0  502    0 -0.00000000000E+00  0.00000000000E+00  0.60655358853E+03  0.60655358853E+03  0.00000000000E+00 0. -1.
         21   -1    0    0  501  502  0.00000000000E+00 -0.00000000000E+00 -0.36462763653E+02  0.36462763653E+02  0.00000000000E+00 0.  1.
         23    2    1    2    0    0  0.34519724498E+02  0.70832427390E+02  0.41423274612E+03  0.43141239065E+03  0.91208764396E+02 0.  0.
        -24    2    1    2    0    0 -0.56482939850E+01 -0.59349292880E+02  0.15332234978E+03  0.18042942385E+03  0.74113374363E+02 0.  0.
         11    1    4    4    0    0 -0.19049029278E+02 -0.37066026331E+02  0.14817304988E+03  0.15392208593E+03  0.00000000000E+00 0. -1.
        -12    1    4    4    0    0  0.13400735293E+02 -0.22283266549E+02  0.51492998970E+01  0.26507337926E+02  0.00000000000E+00 0.  1.
        -11    1    3    3    0    0  0.18698290567E+02 -0.13981947421E+02  0.32293260373E+02  0.39849411405E+02  0.00000000000E+00 0.  1.
         11    1    3    3    0    0  0.15821433931E+02  0.84814374811E+02  0.38193948574E+03  0.39156297925E+03  0.00000000000E+00 0. -1.
          4    1    1    2  501    0 -0.28871430513E+02 -0.11483134510E+02  0.25357289806E+01  0.31174537679E+02  0.00000000000E+00 0. -1.
<scales pt_clust_5="13000.00000" pt_clust_6="13000.00000" pt_clust_7="13000.00000" pt_clust_8="13000.00000" pt_clust_9="31.07124"></scales>
<clustering>
<clus scale="   31.071">  2  9  1 -1</clus>
<clus scale="   74.113">  5  6 -1 -1</clus>
<clus scale="   91.209">  7  8 -1 -1</clus>
<clus scale="  102.189">  2  5  1 -1</clus>
<clus scale="   31.071">  2  5  1 -1</clus>
</clustering>
</event>
<event>
 9    1  0.4067873E-005  0.1429243E+03  0.7546771E-02  0.1235185E+00
         21   -1    0    0  501  502  0.00000000000E+00  0.00000000000E+00  0.92900061996E+02  0.92900061996E+02  0.00000000000E+00 0.  1.
         -2   -1    0    0    0  501 -0.00000000000E+00 -0.00000000000E+00 -0.54999964161E+03  0.54999964161E+03  0.00000000000E+00 0.  1.
        -24    2    1    2    0    0  0.27401632136E+02 -0.53110257193E+02 -0.11730307490E+03  0.14394340761E+03  0.58207768831E+02 0.  0.
         23    2    1    2    0    0 -0.11429856785E+03 -0.26324213421E+01 -0.25147409180E+01  0.14622791347E+03  0.91132795961E+02 0.  0.
         13    1    3    3    0    0 -0.18097631105E+02 -0.20502628183E+02 -0.35235396051E+02  0.44602860322E+02  0.00000000000E+00 0. -1.
        -14    1    3    3    0    0  0.45499263241E+02 -0.32607629011E+02 -0.82067678844E+02  0.99340547291E+02  0.00000000000E+00 0.  1.
        -11    1    4    4    0    0 -0.80599575396E+02 -0.10747701901E+01 -0.44732738289E+02  0.92187117103E+02  0.00000000000E+00 0.  1.
         11    1    4    4    0    0 -0.33698992458E+02 -0.15576511520E+01  0.42217997370E+02  0.54040796365E+02  0.00000000000E+00 0. -1.
         -1    1    1    2    0  502  0.86896935717E+02  0.55742678535E+02 -0.33728176380E+03  0.35272838253E+03  0.00000000000E+00 0.  1.
<scales pt_clust_5="13000.00000" pt_clust_6="13000.00000" pt_clust_7="13000.00000" pt_clust_8="13000.00000" pt_clust_9="110.10077"></scales>
<clustering>
<clus scale="   58.208">  5  6 -1 -1</clus>
<clus scale="   83.425">  2  5  1 -1</clus>
<clus scale="   91.133">  7  8 -1 -1</clus>
<clus scale="  110.101">  1  9  2 -1</clus>
<clus scale="  110.101">  1  5  2 -1</clus>
</clustering>
</event>
<event>
 9    1  0.4067873E-005  0.1374787E+03  0.7546771E-02  0.1219538E+00
         -2   -1    0    0    0  501 -0.00000000000E+00  0.00000000000E+00  0.25345447234E+03  0.25345447234E+03  0.00000000000E+00 0.  1.
         21   -1    0    0  501  502  0.00000000000E+00 -0.00000000000E+00 -0.14051390326E+03  0.14051390326E+03  0.00000000000E+00 0.  1.
        -24    2    1    2    0    0  0.10895462663E+03 -0.31079692786E+02  0.13075396397E+03  0.19033049756E+03  0.79322388000E+02 0.  0.
         23    2    1    2    0    0 -0.59859869104E+02  0.31076006854E+02 -0.68771817107E+02  0.13287732388E+03  0.91530859507E+02 0.  0.
         11    1    3    3    0    0  0.11054898721E+02  0.16836280782E+02  0.52272969200E+02  0.56019054305E+02  0.00000000000E+00 0. -1.
        -12    1    3    3    0    0  0.97899727912E+02 -0.47915973568E+02  0.78480994769E+02  0.13431144325E+03  0.00000000000E+00 0.  1.
        -13    1    4    4    0    0 -0.59562445722E+02 -0.13549986790E+02 -0.63214910973E+02  0.87905699768E+02  0.00000000000E+00 0.  1.
         13    1    4    4    0    0 -0.29742338164E+00  0.44625993644E+02 -0.55569061334E+01  0.44971624111E+02  0.00000000000E+00 0. -1.
         -1    1    1    2    0  502 -0.49094757529E+02  0.36859317346E-02  0.50958422215E+02  0.70760554160E+02  0.00000000000E+00 0.  1.
<scales pt_clust_5="13000.00000" pt_clust_6="13000.00000" pt_clust_7="13000.00000" pt_clust_8="13000.00000" pt_clust_9="49.09478"></scales>
<clustering>
<clus scale="   49.095">  2  9  1 -1</clus>
<clus scale="   79.322">  5  6 -1 -1</clus>
<clus scale="   91.531">  7  8 -1 -1</clus>
<clus scale="  129.671">  1  5  2 -1</clus>
<clus scale="   49.095">  2  5  1 -1</clus>
</clustering>
</event>
<event>
 9    1  0.4067873E-005  0.1041518E+03  0.7546771E-02  0.1276074E+00
          3   -1    0    0  502    0 -0.00000000000E+00  0.00000000000E+00  0.59662457516E+02  0.59662457516E+02  0.00000000000E+00 0. -1.
         21   -1    0    0  501  502  0.00000000000E+00 -0.00000000000E+00 -0.97369904294E+03  0.97369904294E+03  0.00000000000E+00 0.  1.
         23    2    1    2    0    0  0.34481563294E+02  0.46626678644E+02 -0.49885961147E+01  0.10741465683E+03  0.90277334045E+02 0.  0.
        -24    2    1    2    0    0 -0.30996178335E+02  0.34614188679E+02 -0.54847610237E+03  0.55631958261E+03  0.80663114238E+02 0.  0.
         11    1    4    4    0    0 -0.44214696072E+01 -0.24369262824E+02 -0.91735215426E+02  0.95019788010E+02  0.00000000000E+00 0. -1.
        -12    1    4    4    0    0 -0.26574708728E+02  0.58983451503E+02 -0.45674088694E+03  0.46129979460E+03  0.00000000000E+00 0.  1.
        -13    1    3    3    0    0  0.55394676091E+02  0.43541055539E+01  0.12779038957E+02  0.57016069762E+02  0.00000000000E+00 0.  1.
         13    1    3    3    0    0 -0.20913112798E+02  0.42272573090E+02 -0.17767635071E+02  0.50398587069E+02  0.00000000000E+00 0. -1.
          4    1    1    2  501    0 -0.34853849584E+01 -0.81240867323E+02 -0.36057188694E+03  0.36962726101E+03  0.00000000000E+00 0. -1.
<scales pt_clust_5="13000.00000" pt_clust_6="13000.00000" pt_clust_7="13000.00000" pt_clust_8="13000.00000" pt_clust_9="81.31560"></scales>
<clustering>
<clus scale="   80.663">  5  6 -1 -1</clus>
<clus scale="   81.316">  2  9  1 -1</clus>
<clus scale="   90.277">  7  8 -1 -1</clus>
<clus scale="   95.938">  2  5  1 -1</clus>
<clus scale="   81.316">  2  5  1 -1</clus>
</clustering>
</event>
<event>
 9    1  0.4067873E-005  0.1023475E+03  0.7546771E-02  0.1283753E+00
         21   -1    0    0  501  502  0.00000000000E+00  0.00000000000E+00  0.15828157444E+02  0.15828157444E+02  0.00000000000E+00 0. -1.
          1   -1    0    0  502    0 -0.00000000000E+00 -0.00000000000E+00 -0.10559225549E+04  0.10559225549E+04  0.00000000000E+00 0. -1.
        -24    2    1    2    0    0 -0.12733660403E+02  0.21866527229E+02 -0.43785287299E+03  0.44596801584E+03  0.80821047049E+02 0.  0.
         23    2    1    2    0    0  0.47076220300E+02 -0.13196289217E+02 -0.56112457063E+03  0.57151310705E+03  0.96830445582E+02 0.  0.
         13    1    3    3    0    0 -0.18067024468E+02 -0.13219908816E+02 -0.34950799954E+02  0.41505924633E+02  0.00000000000E+00 0. -1.
        -14    1    3    3    0    0  0.53333640645E+01  0.35086436044E+02 -0.40290207304E+03  0.40446209121E+03  0.00000000000E+00 0.  1.
        -13    1    4    4    0    0 -0.24565448339E+02  0.14508111296E+02 -0.98244914031E+02  0.10230351743E+03  0.00000000000E+00 0.  1.
         13    1    4    4    0    0  0.71641668639E+02 -0.27704400513E+02 -0.46287965660E+03  0.46920958962E+03  0.00000000000E+00 0. -1.
          2    1    1    2  501    0 -0.34342559897E+02 -0.86702380115E+01 -0.41116953838E+02  0.54269589461E+02  0.00000000000E+00 0. -1.
<scales pt_clust_5="13000.00000" pt_clust_6="13000.00000" pt_clust_7="13000.00000" pt_clust_8="13000.00000" pt_clust_9="35.42011"></scales>
<clustering>
<clus scale="   35.420">  1  9  2 -1</clus>
<clus scale="   80.821">  5  6 -1 -1</clus>
<clus scale="   87.355">  2  5  1 -1</clus>
<clus scale="   96.830">  7  8 -1 -1</clus>
<clus scale="   35.420">  1  5  2 -1</clus>
</clustering>
</event>
<event>
 9    1  0.4067873E-005  0.1064708E+03  0.7546771E-02  0.1273391E+00
         21   -1    0    0  501  502  0.00000000000E+00  0.00000000000E+00  0.37350769110E+02  0.37350769110E+02  0.00000000000E+00 0.  1.
          1   -1    0    0  502    0 -0.00000000000E+00 -0.00000000000E+00 -0.67979523300E+03  0.67979523300E+03  0.00000000000E+00 0. -1.
        -24    2    1    2    0    0  0.20889200209E+02 -0.45461080349E+02 -0.48479344702E+03  0.49342335528E+03  0.77063952365E+02 0.  0.
         23    2    1    2    0    0 -0.38273340593E+02  0.67469166260E+02 -0.15449327983E+03  0.19549968657E+03  0.91296313945E+02 0.  0.
         11    1    3    3    0    0 -0.26267488895E+02 -0.33905147906E+02 -0.20351203990E+03  0.20798242813E+03  0.00000000000E+00 0. -1.
        -12    1    3    3    0    0  0.47156689105E+02 -0.11555932443E+02 -0.28128140712E+03  0.28544092715E+03  0.00000000000E+00 0.  1.
        -11    1    4    4    0    0 -0.36980294677E+02  0.26404494039E+02 -0.11711491949E+02  0.46924391775E+02  0.00000000000E+00 0.  1.
         11    1    4    4    0    0 -0.12930459164E+01  0.41064672221E+02 -0.14278178788E+03  0.14857529479E+03  0.00000000000E+00 0. -1.
          2    1    1    2  501    0  0.17384140383E+02 -0.22008085911E+02 -0.31577370373E+01  0.28222960255E+02  0.00000000000E+00 0. -1.
<scales pt_clust_5="13000.00000" pt_clust_6="13000.00000" pt_clust_7="13000.00000" pt_clust_8="13000.00000" pt_clust_9="28.04575"></scales>
<clustering>
<clus scale="   28.046">  1  9  2 -1</clus>
<clus scale="   77.064">  5  6 -1 -1</clus>
<clus scale="   91.296">  7  8 -1 -1</clus>
<clus scale="   94.551">  2  5  1 -1</clus>
<clus scale="   28.046">  1  5  2 -1</clus>
</clustering>
</event>
<event>
 9    1  0.4067873E-005  0.9949957E+02  0.7546771E-02  0.1288693E+00
          3   -1    0    0  502    0 -0.00000000000E+00  0.00000000000E+00  0.23396042653E+03  0.23396042653E+03  0.00000000000E+00 0. -1.
         21   -1    0    0  501  502  0.00000000000E+00 -0.00000000000E+00 -0.22138917786E+03  0.22138917786E+03  0.00000000000E+00 0. -1.
         23    2    1    2    0    0  0.17739592227E+02 -0.22651231965E+02  0.18294599623E+03  0.20798613945E+03  0.94663748207E+02 0.  0.
        -24    2    1    2    0    0 -0.47504764130E+02  0.38991033475E+02 -0.18443458149E+03  0.21061249894E+03  0.81021642496E+02 0.  0.
         11    1    4    4    0    0 -0.20561827021E+02  0.48130825910E+02 -0.17159305515E+03  0.17939771936E+03  0.00000000000E+00 0. -1.
        -12    1    4    4    0    0 -0.26942937109E+02 -0.91397924341E+01 -0.12841526341E+02  0.31214779586E+02  0.00000000000E+00 0.  1.
        -11    1    3    3    0    0  0.54450690330E+02  0.13782225557E+01  0.11252951944E+03  0.12501867829E+03  0.00000000000E+00 0. -1.
         11    1    3    3    0    0 -0.36711098103E+02 -0.24029454521E+02  0.70416476787E+02  0.82967461162E+02  0.00000000000E+00 0.  1.
          4    1    1    2  501    0  0.29765171903E+02 -0.16339801510E+02  0.14059833925E+02  0.36750965998E+02  0.00000000000E+00 0. -1.
<scales pt_clust_5="13000.00000" pt_clust_6="13000.00000" pt_clust_7="13000.00000" pt_clust_8="13000.00000" pt_clust_9="33.95520"></scales>
<clustering>
<clus scale="   33.955">  2  9  1 -1</clus>
<clus scale="   81.022">  5  6 -1 -1</clus>
<clus scale="   86.622">  2  5  1 -1</clus>
<clus scale="   94.664">  7  8 -1 -1</clus>
<clus scale="   33.955">  2  5  1 -1</clus>
</clustering>
</event>
<event>
 9    1  0.4067873E-005  0.1204794E+03  0.7546771E-02  0.1242883E+00
         21   -1    0    0  501  502  0.00000000000E+00  0.00000000000E+00  0.96903498780E+02  0.96903498780E+02  0.00000000000E+00 0.  1.
          1   -1    0    0  502    0 -0.00000000000E+00 -0.00000000000E+00 -0.28120639530E+03  0.28120639530E+03  0.00000000000E+00 0. -1.
        -24    2    1    2    0    0  0.80211431054E+02 -0.37564174757E+02 -0.15733094756E+03  0.19729669493E+03  0.79548839545E+02 0.  0.
         23    2    1    2    0    0 -0.97428846045E+02 -0.79233410536E+01 -0.33658712529E+02  0.13171873632E+03  0.81619588291E+02 0.  0.
         11    1    3    3    0    0  0.43026656051E+02 -0.14307569935E+02 -0.14472579860E+03  0.15166264032E+03  0.00000000000E+00 0. -1.
        -12    1    3    3    0    0  0.37184775003E+02 -0.23256604823E+02 -0.12605148963E+02  0.45634054612E+02  0.00000000000E+00 0.  1.
        -13    1    4    4    0    0 -0.49740725044E+02  0.36487044310E+02 -0.22157129859E+02  0.65546796519E+02  0.00000000000E+00 0. -1.
         13    1    4    4    0    0 -0.47688121001E+02 -0.44410385363E+02 -0.11501582671E+02  0.66171939798E+02  0.00000000000E+00 0.  1.
          2    1    1    2  501    0  0.17217414990E+02  0.45487515811E+02  0.66867635725E+01  0.49094462831E+02  0.00000000000E+00 0. -1.
<scales pt_clust_5="13000.00000" pt_clust_6="13000.00000" pt_clust_7="13000.00000" pt_clust_8="13000.00000" pt_clust_9="48.63696"></scales>
<clustering>
<clus scale="   48.637">  1  9  2 -1</clus>
<clus scale="   79.549">  5  6 -1 -1</clus>
<clus scale="   81.620">  7  8 -1 -1</clus>
<clus scale="  119.086">  2  5  1 -1</clus>
<clus scale="   48.637">  1  5  2 -1</clus>
</clustering>
</event>
<event>
 9    1  0.4067873E-005  0.1705690E+03  0.7546771E-02  0.1178564E+00
         -2   -1    0    0    0  501 -0.00000000000E+00  0.00000000000E+00  0.40221413856E+03  0.40221413856E+03  0.00000000000E+00 0.  1.
         21   -1    0    0  501  502  0.00000000000E+00 -0.00000000000E+00 -0.45252192775E+03  0.45252192775E+03  0.00000000000E+00 0.  1.
        -24    2    1    2    0    0 -0.11335459672E+03 -0.94068311743E+02  0.34615312497E+03  0.38459809774E+03  0.79972488967E+02 0.  0.
         23    2    1    2    0    0  0.32627182105E+02  0.13235787809E+03 -0.26239519651E+03  0.30902737608E+03  0.89797211045E+02 0.  0.
         13    1    3    3    0    0 -0.32383258378E+02  0.65643662247E+01  0.37334801010E+02  0.49856330527E+02  0.00000000000E+00 0. -1.
        -14    1    3    3    0    0 -0.80971338346E+02 -0.10063267797E+03  0.30881832396E+03  0.33474176722E+03  0.00000000000E+00 0.  1.
        -13    1    4    4    0    0  0.27453517851E+02  0.10063253500E+03 -0.25574893310E+03  0.27620304040E+03  0.00000000000E+00 0.  1.
         13    1    4    4    0    0  0.51736642537E+01  0.31725343082E+02 -0.66462634081E+01  0.32824335679E+02  0.00000000000E+00 0. -1.
         -1    1    1    2    0  502  0.80727414619E+02 -0.38289566343E+02 -0.13406571765E+03  0.16111059249E+03  0.00000000000E+00 0.  1.
<scales pt_clust_5="13000.00000" pt_clust_6="13000.00000" pt_clust_7="13000.00000" pt_clust_8="13000.00000" pt_clust_9="89.34767"></scales>
<clustering>
<clus scale="   79.972">  5  6 -1 -1</clus>
<clus scale="   89.348">  2  9  1 -1</clus>
<clus scale="   89.797">  7  8 -1 -1</clus>
<clus scale="  165.607">  1  5  2 -1</clus>
<clus scale="   89.348">  2  5  1 -1</clus>
</clustering>
</event>
<event>
 9    1  0.4067873E-005  0.2537487E+03  0.7546771E-02  0.1111812E+00
         21   -1    0    0  501  502  0.00000000000E+00  0.00000000000E+00  0.22364309012E+03  0.22364309012E+03  0.00000000000E+00 0.  1.
          1   -1    0    0  502    0 -0.00000000000E+00 -0.00000000000E+00 -0.54480425055E+03  0.54480425055E+03  0.00000000000E+00 0. -1.
         23    2    1    2    0    0  0.34238703251E+02 -0.23916392715E+03 -0.41061056138E+03  0.48507903159E+03  0.91263141052E+02 0.  0.
        -24    2    1    2    0    0 -0.10153113721E+02  0.21486526622E+03  0.98266022303E+02  0.24803739688E+03  0.74807558192E+02 0.  0.
         13    1    4    4    0    0  0.70719467493E+01  0.39954734404E+02 -0.97646342277E+01  0.41734174410E+02  0.00000000000E+00 0. -1.
        -14    1    4    4    0    0 -0.17225060471E+02  0.17491053182E+03  0.10803065653E+03  0.20630322247E+03  0.00000000000E+00 0.  1.
        -11    1    3    3    0    0  0.36407696209E+02 -0.83775392764E+02 -0.22603353538E+03  0.24379293651E+03  0.00000000000E+00 0. -1.
         11    1    3    3    0    0 -0.21689929574E+01 -0.15538853438E+03 -0.18457702601E+03  0.24128609508E+03  0.00000000000E+00 0.  1.
          2    1    1    2  501    0 -0.24085589530E+02  0.24298660927E+02 -0.88166213472E+01  0.35330912213E+02  0.00000000000E+00 0. -1.
<scales pt_clust_5="13000.00000" pt_clust_6="13000.00000" pt_clust_7="13000.00000" pt_clust_8="13000.00000" pt_clust_9="34.21316"></scales>
<clustering>
<clus scale="   34.213">  1  9  2 -1</clus>
<clus scale="   74.808">  5  6 -1 -1</clus>
<clus scale="   91.263">  7  8 -1 -1</clus>
<clus scale="  248.305">  1  5  2 -1</clus>
<clus scale="   34.213">  1  5  2 -1</clus>
</clustering>
</event>
<event>
 9    1  0.4067873E-005  0.1114015E+03  0.7546771E-02  0.1262301E+00
          1   -1    0    0  502    0 -0.00000000000E+00  0.00000000000E+00  0.17505926295E+03  0.17505926295E+03  0.00000000000E+00 0. -1.
         21   -1    0    0  501  502  0.00000000000E+00 -0.00000000000E+00 -0.52784671125E+03  0.52784671125E+03  0.00000000000E+00 0.  1.
         23    2    1    2    0    0  0.13492789457E+02 -0.68369545486E+02  0.14099511217E+03  0.18239056497E+03  0.92359333125E+02 0.  0.
        -24    2    1    2    0    0 -0.50711870934E+01 -0.82611019111E+01 -0.18548235653E+03  0.20272271698E+03  0.81233199202E+02 0.  0.
         11    1    4    4    0    0 -0.17642146222E+02  0.99657002383E+01 -0.49771823153E+01  0.20864631517E+02  0.00000000000E+00 0. -1.
        -12    1    4    4    0    0  0.12570959129E+02 -0.18226802149E+02 -0.18050517421E+03  0.18185808546E+03  0.00000000000E+00 0.  1.
        -13    1    3    3    0    0 -0.17888103435E+02 -0.45370534749E+02  0.13434059701E+03  0.14291908785E+03  0.00000000000E+00 0. -1.
         13    1    3    3    0    0  0.31380892891E+02 -0.22999010737E+02  0.66545151623E+01  0.39471477114E+02  0.00000000000E+00 0.  1.
          2    1    1    2  501    0 -0.84216023635E+01  0.76630647397E+02 -0.30830020394E+03  0.31779269226E+03  0.00000000000E+00 0. -1.
<scales pt_clust_5="13000.00000" pt_clust_6="13000.00000" pt_clust_7="13000.00000" pt_clust_8="13000.00000" pt_clust_9="77.09202"></scales>
<clustering>
<clus scale="   77.092">  2  9  1 -1</clus>
<clus scale="   81.233">  5  6 -1 -1</clus>
<clus scale="   92.359">  7  8 -1 -1</clus>
<clus scale="  102.366">  2  5  1 -1</clus>
<clus scale="   77.092">  2  5  1 -1</clus>
</clustering>
</event>
<event>
 9    1  0.4067873E-005  0.9772585E+02  0.7546771E-02  0.1290726E+00
         21   -1    0    0  501  502  0.00000000000E+00  0.00000000000E+00  0.17889798105E+03  0.17889798105E+03  0.00000000000E+00 0. -1.
          1   -1    0    0  502    0 -0.00000000000E+00 -0.00000000000E+00 -0.18103481482E+03  0.18103481482E+03  0.00000000000E+00 0. -1.
         23    2    1    2    0    0 -0.82634716713E+01 -0.50620566571E+02 -0.11471319870E+03  0.15549418038E+03  0.91589275850E+02 0.  0.
        -24    2    1    2    0    0 -0.81439874338E+01 -0.31032611712E+02  0.53873938789E+02  0.10254444946E+03  0.81139480607E+02 0.  0.
         11    1    4    4    0    0 -0.28130736672E+02  0.14114414485E+02  0.29434829070E+01  0.31610427608E+02  0.00000000000E+00 0. -1.
        -12    1    4    4    0    0  0.19986749238E+02 -0.45147026197E+02  0.50930455882E+02  0.70934021851E+02  0.00000000000E+00 0.  1.
        -13    1    3    3    0    0  0.28679711814E+01 -0.76592130044E+02 -0.81247923195E+02  0.11169514164E+03  0.00000000000E+00 0. -1.
         13    1    3    3    0    0 -0.11131442853E+02  0.25971563473E+02 -0.33465275504E+02  0.43799038732E+02  0.00000000000E+00 0.  1.
          2    1    1    2  501    0  0.16407459105E+02  0.81653178282E+02  0.58702426135E+02  0.10189416604E+03  0.00000000000E+00 0. -1.
<scales pt_clust_5="13000.00000" pt_clust_6="13000.00000" pt_clust_7="13000.00000" pt_clust_8="13000.00000" pt_clust_9="83.28533"></scales>
<clustering>
<clus scale="   81.139">  5  6 -1 -1</clus>
<clus scale="   83.285">  1  9  2 -1</clus>
<clus scale="   88.008">  1  5  2 -1</clus>
<clus scale="   91.589">  7  8 -1 -1</clus>
<clus scale="   83.285">  1  5  2 -1</clus>
</clustering>
</event>
<event>
 9    1  0.4067873E-005  0.9851377E+02  0.7546771E-02  0.1287230E+00
         21   -1    0    0  501  502  0.00000000000E+00  0.00000000000E+00  0.33648668472E+02  0.33648668472E+02  0.00000000000E+00 0.  1.
          1   -1    0    0  502    0 -0.00000000000E+00 -0.00000000000E+00 -0.43790588635E+03  0.43790588635E+03  0.00000000000E+00 0. -1.
        -24    2    1    2    0    0  0.26591380412E+02  0.23818321045E+02 -0.20111534613E+03  0.21973691913E+03  0.81009365211E+02 0.  0.
         23    2    1    2    0    0 -0.58606197739E+02 -0.89475513686E+01 -0.18124859883E+03  0.21027965646E+03  0.88610012160E+02 0.  0.
         11    1    3    3    0    0 -0.15775615398E+02  0.34792925364E+02 -0.13612651967E+03  0.14138545559E+03  0.00000000000E+00 0. -1.
        -12    1    3    3    0    0  0.42366995811E+02 -0.10974604319E+02 -0.64988826464E+02  0.78351463542E+02  0.00000000000E+00 0.  1.
        -11    1    4    4    0    0  0.64703299835E+00 -0.36764018963E+02 -0.95989157975E+02  0.10279071062E+03  0.00000000000E+00 0. -1.
         11    1    4    4    0    0 -0.59253230737E+02  0.27816467594E+02 -0.85259440853E+02  0.10748894584E+03  0.00000000000E+00 0.  1.
          2    1    1    2  501    0  0.32014817327E+02 -0.14870769677E+02 -0.21893272921E+02  0.41537979229E+02  0.00000000000E+00 0. -1.
<scales pt_clust_5="13000.00000" pt_clust_6="13000.00000" pt_clust_7="13000.00000" pt_clust_8="13000.00000" pt_clust_9="35.29998"></scales>
<clustering>
<clus scale="   35.300">  1  9  2 -1</clus>
<clus scale="   81.009">  5  6 -1 -1</clus>
<clus scale="   88.610">  7  8 -1 -1</clus>
<clus scale="   91.737">  2  5  1 -1</clus>
<clus scale="   35.300">  1  5  2 -1</clus>
</clustering>
</event>
<event>
 9    1  0.4067873E-005  0.9895654E+02  0.7546771E-02  0.1289112E+00
         21   -1    0    0  501  502  0.00000000000E+00  0.00000000000E+00  0.24075703294E+03  0.24075703294E+03  0.00000000000E+00 0.  1.
         -2   -1    0    0    0  501 -0.00000000000E+00 -0.00000000000E+00 -0.10430114101E+03  0.10430114101E+03  0.00000000000E+00 0.  1.
        -24    2    1    2    0    0 -0.44962018750E+02 -0.22893753382E+02  0.55793111637E+01  0.98187517328E+02  0.84047324597E+02 0.  0.
         23    2    1    2    0    0 -0.42598165449E+02  0.22488388904E+02  0.26560140952E+02  0.11067642108E+03  0.96039042900E+02 0.  0.
         13    1    3    3    0    0 -0.19465580770E+02  0.10574086618E+02 -0.33897291984E+02  0.40493784046E+02  0.00000000000E+00 0. -1.
        -14    1    3    3    0    0 -0.25496437980E+02 -0.33467840000E+02  0.39476603147E+02  0.57693733282E+02  0.00000000000E+00 0.  1.
        -13    1    4    4    0    0 -0.67259901418E+02  0.37733226065E+02  0.26909340418E+02  0.81681107300E+02  0.00000000000E+00 0. -1.
         13    1    4    4    0    0  0.24661735970E+02 -0.15244837161E+02 -0.34919946549E+00  0.28995313783E+02  0.00000000000E+00 0.  1.
         -1    1    1    2    0  502  0.87560184198E+02  0.40536447801E+00  0.10431643982E+03  0.13619423554E+03  0.00000000000E+00 0.  1.
<scales pt_clust_5="13000.00000" pt_clust_6="13000.00000" pt_clust_7="13000.00000" pt_clust_8="13000.00000" pt_clust_9="87.56112"></scales>
<clustering>
<clus scale="   84.047">  5  6 -1 -1</clus>
<clus scale="   87.561">  1  9  2 -1</clus>
<clus scale="   87.366">  2  5  1 -1</clus>
<clus scale="   96.039">  7  8 -1 -1</clus>
<clus scale="   87.561">  1  5  2 -1</clus>
</clustering>
</event>
<event>
 9    1  0.4067873E-005  0.9395347E+02  0.7546771E-02  0.1302117E+00
         21   -1    0    0  501  502  0.00000000000E+00  0.00000000000E+00  0.40604734582E+02  0.40604734582E+02  0.00000000000E+00 0.  1.
          1   -1    0    0  502    0 -0.00000000000E+00 -0.00000000000E+00 -0.37979111029E+03  0.37979111029E+03  0.00000000000E+00 0. -1.
         23    2    1    2    0    0  0.24606379498E+01  0.97445652412E+01 -0.11657922915E+03  0.14829796063E+03  0.91107393593E+02 0.  0.
        -24    2    1    2    0    0  0.13353530487E+01  0.53164578777E+02 -0.13421929287E+03  0.16354198791E+03  0.76830382184E+02 0.  0.
         11    1    4    4    0    0  0.70469370313E+01  0.53663830179E+02 -0.14308740310E+03  0.15298193003E+03  0.00000000000E+00 0. -1.
        -12    1    4    4    0    0 -0.57115839826E+01 -0.49925140179E+00  0.88681102226E+01  0.10560057882E+02  0.00000000000E+00 0.  1.
        -11    1    3    3    0    0 -0.39284488116E+02  0.24457241395E+02 -0.47988023252E+02  0.66665418613E+02  0.00000000000E+00 0.  1.
         11    1    3    3    0    0  0.41745126066E+02 -0.14712676154E+02 -0.68591205896E+02  0.81632542017E+02  0.00000000000E+00 0. -1.
          2    1    1    2  501    0 -0.37959909985E+01 -0.62909144018E+02 -0.88387853687E+02  0.10855589633E+03  0.00000000000E+00 0. -1.
<scales pt_clust_5="13000.00000" pt_clust_6="13000.00000" pt_clust_7="13000.00000" pt_clust_8="13000.00000" pt_clust_9="63.02360"></scales>
<clustering>
<clus scale="   63.024">  1  9  2 -1</clus>
<clus scale="   76.830">  5  6 -1 -1</clus>
<clus scale="   80.185">  1  5  2 -1</clus>
<clus scale="   91.107">  7  8 -1 -1</clus>
<clus scale="   63.024">  1  5  2 -1</clus>
</clustering>
</event>
<event>
 9    1  0.4067873E-005  0.9164828E+02  0.7546771E-02  0.1308696E+00
          3   -1    0    0  502    0 -0.00000000000E+00  0.00000000000E+00  0.26762860952E+03  0.26762860952E+03  0.00000000000E+00 0. -1.
         21   -1    0    0  501  502  0.00000000000E+00 -0.00000000000E+00 -0.43032779260E+02  0.43032779260E+02  0.00000000000E+00 0.  1.
         23    2    1    2    0    0  0.45417964359E+00  0.63799357785E+00  0.17906306332E+03  0.20106347170E+03  0.91445752729E+02 0.  0.
        -24    2    1    2    0    0 -0.18631105885E+02  0.82320775701E+01  0.31990428539E+02  0.85257133626E+02  0.76357750808E+02 0.  0.
         11    1    4    4    0    0  0.19122305202E+02  0.29793016273E+02  0.11755665255E+02  0.37302574180E+02  0.00000000000E+00 0. -1.
        -12    1    4    4    0    0 -0.37753411087E+02 -0.21560938703E+02  0.20234763284E+02  0.47954559446E+02  0.00000000000E+00 0.  1.
        -13    1    3    3    0    0  0.31414272036E+02 -0.32693662331E+02  0.10104101026E+03  0.11074754082E+03  0.00000000000E+00 0. -1.
         13    1    3    3    0    0 -0.30960092393E+02  0.33331655909E+02  0.78022053057E+02  0.90315930875E+02  0.00000000000E+00 0.  1.
          4    1    1    2  501    0  0.18176926241E+02 -0.88700711479E+01  0.13542338404E+02  0.24340783455E+02  0.00000000000E+00 0. -1.
<scales pt_clust_5="13000.00000" pt_clust_6="13000.00000" pt_clust_7="13000.00000" pt_clust_8="13000.00000" pt_clust_9="20.22570"></scales>
<clustering>
<clus scale="   20.226">  2  9  1 -1</clus>
<clus scale="   76.358">  5  6 -1 -1</clus>
<clus scale="   76.600">  2  5  1 -1</clus>
<clus scale="   91.446">  7  8 -1 -1</clus>
<clus scale="   20.226">  2  5  1 -1</clus>
</clustering>
</event>
<event>
 9    1  0.4067873E-005  0.9847832E+02  0.7546771E-02  0.1290307E+00
         21   -1    0    0  501  502  0.00000000000E+00  0.00000000000E+00  0.48927239929E+02  0.48927239929E+02  0.00000000000E+00 0. -1.
         -4   -1    0    0    0  501 -0.00000000000E+00 -0.00000000000E+00 -0.29665133554E+03  0.29665133554E+03  0.00000000000E+00 0.  1.
        -24    2    1    2    0    0  0.20424334802E+02  0.13724153876E+02 -0.13594895992E+03  0.15958579434E+03  0.79874903437E+02 0.  0.
         23    2    1    2    0    0 -0.38629127495E+02 -0.44071463472E+02 -0.65116750542E+02  0.12743188478E+03  0.92542912607E+02 0.  0.
         11    1    3    3    0    0 -0.15925632626E+02 -0.21893831862E+02 -0.22345158920E+02  0.35103728794E+02  0.00000000000E+00 0. -1.
        -12    1    3    3    0    0  0.36349967427E+02  0.35617985737E+02 -0.11360380100E+03  0.12448206555E+03  0.00000000000E+00 0.  1.
        -13    1    4    4    0    0  0.12750371196E+02 -0.55424518833E+02 -0.31947890461E+02  0.65231257526E+02  0.00000000000E+00 0. -1.
         13    1    4    4    0    0 -0.51379498691E+02  0.11353055361E+02 -0.33168860081E+02  0.62200627254E+02  0.00000000000E+00 0.  1.
         -3    1    1    2    0  502  0.18204792693E+02  0.30347309597E+02 -0.46658385145E+02  0.58560896348E+02  0.00000000000E+00 0.  1.
<scales pt_clust_5="13000.00000" pt_clust_6="13000.00000" pt_clust_7="13000.00000" pt_clust_8="13000.00000" pt_clust_9="35.38891"></scales>
<clustering>
<clus scale="   35.389">  1  9  2 -1</clus>
<clus scale="   79.875">  5  6 -1 -1</clus>
<clus scale="   86.682">  2  5  1 -1</clus>
<clus scale="   92.543">  7  8 -1 -1</clus>
<clus scale="   35.389">  1  5  2 -1</clus>
</clustering>
</event>
<event>
 9    1  0.4067873E-005  0.1821748E+03  0.7546771E-02  0.1166642E+00
         21   -1    0    0  501  502  0.00000000000E+00  0.00000000000E+00  0.47633188513E+02  0.47633188513E+02  0.00000000000E+00 0. -1.
          1   -1    0    0  502    0 -0.00000000000E+00 -0.00000000000E+00 -0.11399188107E+04  0.11399188107E+04  0.00000000000E+00 0. -1.
        -24    2    1    2    0    0 -0.65091508052E+02  0.15909558797E+03 -0.57347847087E+03  0.60402513230E+03  0.80127981169E+02 0.  0.
         23    2    1    2    0    0 -0.19360915987E+02 -0.15058309933E+03 -0.28498933554E+03  0.33477911243E+03  0.88362989269E+02 0.  0.
         13    1    3    3    0    0 -0.80259398459E+02  0.15192068888E+03 -0.50149712073E+03  0.53011397723E+03  0.00000000000E+00 0. -1.
        -14    1    3    3    0    0  0.15167890407E+02  0.71748990935E+01 -0.71981350135E+02  0.73911155069E+02  0.00000000000E+00 0.  1.
        -13    1    4    4    0    0 -0.22771715168E+02 -0.85658193188E+02 -0.78850699170E+02  0.11863098175E+03  0.00000000000E+00 0. -1.
         13    1    4    4    0    0  0.34107991816E+01 -0.64924906144E+02 -0.20613863637E+03  0.21614813068E+03  0.00000000000E+00 0.  1.
          2    1    1    2  501    0  0.84452424039E+02 -0.85124886370E+01 -0.23381781577E+03  0.24874775449E+03  0.00000000000E+00 0. -1.
<scales pt_clust_5="13000.00000" pt_clust_6="13000.00000" pt_clust_7="13000.00000" pt_clust_8="13000.00000" pt_clust_9="84.88040"></scales>
<clustering>
<clus scale="   80.128">  5  6 -1 -1</clus>
<clus scale="   84.880">  1  9  2 -1</clus>
<clus scale="   88.363">  7  8 -1 -1</clus>
<clus scale="  178.326">  2  5  1 -1</clus>
<clus scale="   84.880">  1  5  2 -1</clus>
</clustering>
</event>
<event>
 9    1  0.4067873E-005  0.9140092E+02  0.7546771E-02  0.1303965E+00
          1   -1    0    0  502    0 -0.00000000000E+00  0.00000000000E+00  0.68285561973E+03  0.68285561973E+03  0.00000000000E+00 0. -1.
         21   -1    0    0  501  502  0.00000000000E+00 -0.00000000000E+00 -0.40119718109E+02  0.40119718109E+02  0.00000000000E+00 0. -1.
         23    2    1    2    0    0 -0.46740460592E+02  0.21487721437E+02  0.17178161098E+03  0.19982934952E+03  0.88184206232E+02 0.  0.
        -24    2    1    2    0    0 -0.18581647615E+02  0.96307068125E+01  0.52562829726E+02  0.98544117195E+02  0.80684966525E+02 0.  0.
         11    1    4    4    0    0 -0.10801151827E+01  0.35005910680E+02 -0.28459230836E+01  0.35138009471E+02  0.00000000000E+00 0. -1.
        -12    1    4    4    0    0 -0.17501532433E+02 -0.25375203868E+02  0.55408752810E+02  0.63406107724E+02  0.00000000000E+00 0.  1.
        -11    1    3    3    0    0 -0.37042100382E+02  0.47681397580E+02  0.15703783838E+03  0.16824540279E+03  0.00000000000E+00 0.  1.
         11    1    3    3    0    0 -0.96983602092E+01 -0.26193676143E+02  0.14743772602E+02  0.31583946732E+02  0.00000000000E+00 0. -1.
          2    1    1    2  501    0  0.65322108207E+02 -0.31118428249E+02  0.41839146091E+03  0.42460187112E+03  0.00000000000E+00 0. -1.
<scales pt_clust_5="13000.00000" pt_clust_6="13000.00000" pt_clust_7="13000.00000" pt_clust_8="13000.00000" pt_clust_9="72.35565"></scales>
<clustering>
<clus scale="   72.356">  2  9  1 -1</clus>
<clus scale="   80.685">  5  6 -1 -1</clus>
<clus scale="   84.189">  2  5  1 -1</clus>
<clus scale="   88.184">  7  8 -1 -1</clus>
<clus scale="   72.356">  2  5  1 -1</clus>
</clustering>
</event>
<event>
 9    1  0.4067873E-005  0.9813123E+02  0.7546771E-02  0.1290266E+00
         21   -1    0    0  501  502  0.00000000000E+00  0.00000000000E+00  0.21260123015E+03  0.21260123015E+03  0.00000000000E+00 0.  1.
         -4   -1    0    0    0  501 -0.00000000000E+00 -0.00000000000E+00 -0.15242965386E+03  0.15242965386E+03  0.00000000000E+00 0.  1.
         23    2    1    2    0    0 -0.32748394477E+02 -0.13633513380E+01 -0.82705099216E+02  0.12905734367E+03  0.93495178765E+02 0.  0.
        -24    2    1    2    0    0  0.65442893847E+01 -0.15089522406E+02  0.17327705237E+03  0.19259687505E+03  0.82450579082E+02 0.  0.
         13    1    4    4    0    0  0.30519422594E+02  0.21488950017E+02  0.54791840933E+02  0.66297480806E+02  0.00000000000E+00 0. -1.
        -14    1    4    4    0    0 -0.23975133210E+02 -0.36578472423E+02  0.11848521144E+03  0.12629939425E+03  0.00000000000E+00 0.  1.
        -13    1    3    3    0    0  0.24364624843E+01 -0.31755464901E+02  0.25479033630E+01  0.31950551045E+02  0.00000000000E+00 0. -1.
         13    1    3    3    0    0 -0.35184856961E+02  0.30392113563E+02 -0.85253002579E+02  0.97106792630E+02  0.00000000000E+00 0.  1.
         -3    1    1    2    0  502  0.26204105092E+02  0.16452873744E+02 -0.30400376869E+02  0.43376665292E+02  0.00000000000E+00 0.  1.
<scales pt_clust_5="13000.00000" pt_clust_6="13000.00000" pt_clust_7="13000.00000" pt_clust_8="13000.00000" pt_clust_9="30.94112"></scales>
<clustering>
<clus scale="   30.941">  1  9  2 -1</clus>
<clus scale="   82.451">  5  6 -1 -1</clus>
<clus scale="   87.673">  1  5  2 -1</clus>
<clus scale="   93.495">  7  8 -1 -1</clus>
<clus scale="   30.941">  1  5  2 -1</clus>
</clustering>
</event>
<event>
 9    1  0.4067873E-005  0.1131955E+03  0.7546771E-02  0.1258676E+00
         21   -1    0    0  501  502  0.00000000000E+00  0.00000000000E+00  0.16374879346E+03  0.16374879346E+03  0.00000000000E+00 0.  1.
         -4   -1    0    0    0  501 -0.00000000000E+00 -0.00000000000E+00 -0.44104235711E+03  0.44104235711E+03  0.00000000000E+00 0.  1.
        -24    2    1    2    0    0 -0.71910734725E+02 -0.93755738082E+01 -0.38944409399E+03  0.40403855143E+03  0.79507191767E+02 0.  0.
         23    2    1    2    0    0  0.32593711993E+02 -0.22608315093E+02  0.28038033559E+02  0.10255020844E+03  0.90315712660E+02 0.  0.
         13    1    3    3    0    0  0.14133812961E+01 -0.22867960888E+02 -0.34958385030E+02  0.41797487553E+02  0.00000000000E+00 0. -1.
        -14    1    3    3    0    0 -0.73324116022E+02  0.13492387080E+02 -0.35448570896E+03  0.36224106387E+03  0.00000000000E+00 0.  1.
        -13    1    4    4    0    0  0.47989134226E+02 -0.22645135828E+01  0.49668898109E+02  0.69101985969E+02  0.00000000000E+00 0. -1.
         13    1    4    4    0    0 -0.15395422233E+02 -0.20343801510E+02 -0.21630864549E+02  0.33448222476E+02  0.00000000000E+00 0.  1.
         -3    1    1    2    0  502  0.39317022732E+02  0.31983888901E+02  0.84112496779E+02  0.98202390705E+02  0.00000000000E+00 0.  1.
<scales pt_clust_5="13000.00000" pt_clust_6="13000.00000" pt_clust_7="13000.00000" pt_clust_8="13000.00000" pt_clust_9="50.68331"></scales>
<clustering>
<clus scale="   50.683">  1  9  2 -1</clus>
<clus scale="   79.507">  5  6 -1 -1</clus>
<clus scale="   90.316">  7  8 -1 -1</clus>
<clus scale="  104.774">  2  5  1 -1</clus>
<clus scale="   50.683">  1  5  2 -1</clus>
</clustering>
</event>
<event>
 9    1  0.4067873E-005  0.1267802E+03  0.7546771E-02  0.1235722E+00
         -2   -1    0    0    0  501 -0.00000000000E+00  0.00000000000E+00  0.71157761095E+03  0.71157761095E+03  0.00000000000E+00 0.  1.
         21   -1    0    0  501  502  0.00000000000E+00 -0.00000000000E+00 -0.60336119357E+02  0.60336119357E+02  0.00000000000E+00 0.  1.
        -24    2    1    2    0    0  0.39859042416E+02  0.75514449540E+02  0.38145021472E+03  0.39918032084E+03  0.80928900146E+02 0.  0.
         23    2    1    2    0    0 -0.21837548743E+02 -0.86059680373E+02  0.30545307665E+03  0.33140859742E+03  0.92988866446E+02 0.  0.
         11    1    3    3    0    0  0.59599180862E+02  0.28935874959E+02  0.19283867149E+03  0.20390218351E+03  0.00000000000E+00 0. -1.
        -12    1    3    3    0    0 -0.19740138446E+02  0.46578574581E+02  0.18861154323E+03  0.19527813733E+03  0.00000000000E+00 0.  1.
        -13    1    4    4    0    0  0.23720697382E+02 -0.66519997383E+02  0.11807080717E+03  0.13758014770E+03  0.00000000000E+00 0. -1.
         13    1    4    4    0    0 -0.45558246124E+02 -0.19539682990E+02  0.18738226949E+03  0.19382844971E+03  0.00000000000E+00 0.  1.
         -1    1    1    2    0  502 -0.18021493673E+02  0.10545230833E+02 -0.35661799784E+02  0.41324812055E+02  0.00000000000E+00 0.  1.
<scales pt_clust_5="13000.00000" pt_clust_6="13000.00000" pt_clust_7="13000.00000" pt_clust_8="13000.00000" pt_clust_9="20.88004"></scales>
<clustering>
<clus scale="   20.880">  2  9  1 -1</clus>
<clus scale="   80.929">  5  6 -1 -1</clus>
<clus scale="   92.989">  7  8 -1 -1</clus>
<clus scale="  118.219">  1  5  2 -1</clus>
<clus scale="   20.880">  2  5  1 -1</clus>
</clustering>
</event>
<event>
 9    1  0.4067873E-005  0.9787322E+02  0.7546771E-02  0.1292274E+00
          3   -1    0    0  502    0 -0.00000000000E+00  0.00000000000E+00  0.22838141894E+03  0.22838141894E+03  0.00000000000E+00 0. -1.
         21   -1    0    0  501  502  0.00000000000E+00 -0.00000000000E+00 -0.66474663019E+02  0.66474663019E+02  0.00000000000E+00 0. -1.
         23    2    1    2    0    0  0.34810877803E+02 -0.63061446240E+01  0.46836016864E+02  0.10931664696E+03  0.92222297482E+02 0.  0.
        -24    2    1    2    0    0 -0.28846628300E+02 -0.22040640980E+02  0.23748010183E+02  0.89732580681E+02  0.78549667274E+02 0.  0.
         11    1    4    4    0    0 -0.17183057785E+02  0.15620478926E+02 -0.20138212240E+02  0.30737671170E+02  0.00000000000E+00 0. -1.
        -12    1    4    4    0    0 -0.11663570515E+02 -0.37661119906E+02  0.43886222423E+02  0.58994909511E+02  0.00000000000E+00 0.  1.
        -11    1    3    3    0    0  0.27893235182E+02 -0.36489496688E+02 -0.77309546710E+01  0.46575568677E+02  0.00000000000E+00 0. -1.
         11    1    3    3    0    0  0.69176426207E+01  0.30183352064E+02  0.54566971535E+02  0.62741078280E+02  0.00000000000E+00 0.  1.
          4    1    1    2  501    0 -0.59642495026E+01  0.28346785604E+02  0.91322728875E+02  0.95806854324E+02  0.00000000000E+00 0. -1.
<scales pt_clust_5="13000.00000" pt_clust_6="13000.00000" pt_clust_7="13000.00000" pt_clust_8="13000.00000" pt_clust_9="28.96745"></scales>
<clustering>
<clus scale="   28.967">  2  9  1 -1</clus>
<clus scale="   78.550">  5  6 -1 -1</clus>
<clus scale="   85.113">  2  5  1 -1</clus>
<clus scale="   92.222">  7  8 -1 -1</clus>
<clus scale="   28.967">  2  5  1 -1</clus>
</clustering>
</event>
<event>
 9    1  0.4067873E-005  0.1142263E+03  0.7546771E-02  0.1253796E+00
         -2   -1    0    0    0  501 -0.00000000000E+00  0.00000000000E+00  0.22735224835E+03  0.22735224835E+03  0.00000000000E+00 0.  1.
         21   -1    0    0  501  502  0.00000000000E+00 -0.00000000000E+00 -0.16054227470E+03  0.16054227470E+03  0.00000000000E+00 0. -1.
        -24    2    1    2    0    0  0.59481628678E+02 -0.45104819760E+02  0.15933350071E+03  0.19711833879E+03  0.88859248950E+02 0.  0.
         23    2    1    2    0    0 -0.33703466213E+02  0.38346424363E+02 -0.11193139355E+02  0.10519101303E+03  0.91287956259E+02 0.  0.
         11    1    3    3    0    0  0.26356296989E+02  0.26127992188E+02  0.43835103913E+02  0.57435552594E+02  0.00000000000E+00 0. -1.
        -12    1    3    3    0    0  0.33125331690E+02 -0.71232811948E+02  0.11549839680E+03  0.13968278620E+03  0.00000000000E+00 0.  1.
        -11    1    4    4    0    0  0.22910603050E+02 -0.11742738590E+02 -0.14462509761E+02  0.29528830493E+02  0.00000000000E+00 0. -1.
         11    1    4    4    0    0 -0.56614069262E+02  0.50089162953E+02  0.32693704053E+01  0.75662182539E+02  0.00000000000E+00 0.  1.
         -1    1    1    2    0  502 -0.25778162466E+02  0.67583953971E+01 -0.81330387702E+02  0.85585171217E+02  0.00000000000E+00 0.  1.
<scales pt_clust_5="13000.00000" pt_clust_6="13000.00000" pt_clust_7="13000.00000" pt_clust_8="13000.00000" pt_clust_9="26.64938"></scales>
<clustering>
<clus scale="   26.649">  2  9  1 -1</clus>
<clus scale="   88.859">  5  6 -1 -1</clus>
<clus scale="   91.288">  7  8 -1 -1</clus>
<clus scale="  112.295">  1  5  2 -1</clus>
<clus scale="   26.649">  2  5  1 -1</clus>
</clustering>
</event>
<event>
 9    1  0.4067873E-005  0.9348601E+02  0.7546771E-02  0.1299091E+00
         -2   -1    0    0    0  501 -0.00000000000E+00  0.00000000000E+00  0.42683007786E+03  0.42683007786E+03  0.00000000000E+00 0.  1.
         21   -1    0    0  501  502  0.00000000000E+00 -0.00000000000E+00 -0.30506785126E+02  0.30506785126E+02  0.00000000000E+00 0. -1.
        -24    2    1    2    0    0  0.21176374945E+02  0.11092360233E+02  0.21586261761E+03  0.23142591760E+03  0.79936264262E+02 0.  0.
         23    2    1    2    0    0 -0.44908552349E+02 -0.99232181237E+01  0.17557014853E+03  0.20165191845E+03  0.87882710628E+02 0.  0.
         11    1    3    3    0    0 -0.25113786058E+02  0.15991885042E+02  0.42285721659E+02  0.51715808933E+02  0.00000000000E+00 0. -1.
        -12    1    3    3    0    0  0.46290161003E+02 -0.48995248089E+01  0.17357689595E+03  0.17971010866E+03  0.00000000000E+00 0.  1.
        -11    1    4    4    0    0 -0.31840593655E+02 -0.46271431881E+02  0.73407801826E+02  0.92431456667E+02  0.00000000000E+00 0.  1.
         11    1    4    4    0    0 -0.13067958694E+02  0.36348213757E+02  0.10216234671E+03  0.10922046179E+03  0.00000000000E+00 0. -1.
         -1    1    1    2    0  502  0.23732177404E+02 -0.11691421091E+01  0.48905265937E+01  0.24259026938E+02  0.00000000000E+00 0.  1.
<scales pt_clust_5="13000.00000" pt_clust_6="13000.00000" pt_clust_7="13000.00000" pt_clust_8="13000.00000" pt_clust_9="23.76096"></scales>
<clustering>
<clus scale="   23.761">  2  9  1 -1</clus>
<clus scale="   79.936">  5  6 -1 -1</clus>
<clus scale="   86.059">  1  5  2 -1</clus>
<clus scale="   87.883">  7  8 -1 -1</clus>
<clus scale="   23.761">  2  5  1 -1</clus>
</clustering>
</event>
<event>
 9    1  0.4067873E-005  0.1219691E+03  0.7546771E-02  0.1243242E+00
         -2   -1    0    0    0  501 -0.00000000000E+00  0.00000000000E+00  0.98516553911E+03  0.98516553911E+03  0.00000000000E+00 0.  1.
         21   -1    0    0  501  502  0.00000000000E+00 -0.00000000000E+00 -0.46358009102E+02  0.46358009102E+02  0.00000000000E+00 0. -1.
        -24    2    1    2    0    0  0.25206555577E+02 -0.85619416870E+02  0.45529362020E+03  0.47108891731E+03  0.81648223660E+02 0.  0.
         23    2    1    2    0    0 -0.59979264810E+02  0.16660288336E+02  0.53749385193E+02  0.12378597428E+03  0.92514288651E+02 0.  0.
         13    1    3    3    0    0  0.15046617337E+02 -0.96060222344E+02  0.43708721719E+03  0.44777137296E+03  0.00000000000E+00 0. -1.
        -14    1    3    3    0    0  0.10159938240E+02  0.10440805474E+02  0.18206403014E+02  0.23317544354E+02  0.00000000000E+00 0.  1.
        -13    1    4    4    0    0 -0.13211956173E+02  0.25020097285E+02  0.68439874719E+02  0.74057933442E+02  0.00000000000E+00 0.  1.
         13    1    4    4    0    0 -0.46767308637E+02 -0.83598089490E+01 -0.14690489526E+02  0.49728040836E+02  0.00000000000E+00 0. -1.
         -1    1    1    2    0  502  0.34772709233E+02  0.68959128534E+02  0.42976452461E+03  0.43664865662E+03  0.00000000000E+00 0.  1.
<scales pt_clust_5="13000.00000" pt_clust_6="13000.00000" pt_clust_7="13000.00000" pt_clust_8="13000.00000" pt_clust_9="77.23023"></scales>
<clustering>
<clus scale="   77.230">  2  9  1 -1</clus>
<clus scale="   81.648">  5  6 -1 -1</clus>
<clus scale="   92.514">  7  8 -1 -1</clus>
<clus scale="  113.947">  1  5  2 -1</clus>
<clus scale="   77.230">  2  5  1 -1</clus>
</clustering>
</event>
<event>
 9    1  0.4067873E-005  0.1136241E+03  0.7546771E-02  0.1255234E+00
          1   -1    0    0  502    0 -0.00000000000E+00  0.00000000000E+00  0.74289274725E+02  0.74289274725E+02  0.00000000000E+00 0. -1.
         21   -1    0    0  501  502  0.00000000000E+00 -0.00000000000E+00 -0.77131177703E+03  0.77131177703E+03  0.00000000000E+00 0. -1.
         23    2    1    2    0    0  0.11917639739E+02  0.70979404683E+02 -0.73840351982E+02  0.13842646640E+03  0.92354658748E+02 0.  0.
        -24    2    1    2    0    0  0.93118469052E+02 -0.35452041412E+02 -0.79585749333E+02  0.15238469282E+03  0.83422458549E+02 0.  0.
         11    1    4    4    0    0  0.10360998251E+03 -0.46653791596E+02 -0.63571504374E+02  0.13020345969E+03  0.00000000000E+00 0. -1.
        -12    1    4    4    0    0 -0.10491513457E+02  0.11201750183E+02 -0.16014244959E+02  0.22181233135E+02  0.00000000000E+00 0.  1.
        -13    1    3    3    0    0 -0.29649699347E+02  0.68807708199E+02 -0.53734486237E+02  0.92200869791E+02  0.00000000000E+00 0. -1.
         13    1    3    3    0    0  0.41567339086E+02  0.21716964838E+01 -0.20105865744E+02  0.46225596607E+02  0.00000000000E+00 0.  1.
          2    1    1    2  501    0 -0.10503610879E+03 -0.35527363271E+02 -0.54359640099E+03  0.55478989254E+03  0.00000000000E+00 0. -1.
<scales pt_clust_5="13000.00000" pt_clust_6="13000.00000" pt_clust_7="13000.00000" pt_clust_8="13000.00000" pt_clust_9="110.88182"></scales>
<clustering>
<clus scale="   83.422">  5  6 -1 -1</clus>
<clus scale="   92.355">  7  8 -1 -1</clus>
<clus scale="  110.882">  2  9  1 -1</clus>
<clus scale="  110.882">  2  5  1 -1</clus>
<clus scale="  110.882">  2  5  1 -1</clus>
</clustering>
</event>
<event>
 9    1  0.4067873E-005  0.9436704E+02  0.7546771E-02  0.1295400E+00
         21   -1    0    0  501  502  0.00000000000E+00  0.00000000000E+00  0.16905280777E+03  0.16905280777E+03  0.00000000000E+00 0. -1.
         -4   -1    0    0    0  501 -0.00000000000E+00 -0.00000000000E+00 -0.29326903149E+03  0.29326903149E+03  0.00000000000E+00 0.  1.
        -24    2    1    2    0    0 -0.18732956687E+02  0.36335696393E+02 -0.23616369930E+03  0.25214290520E+03  0.78304184271E+02 0.  0.
         23    2    1    2    0    0  0.27967613188E+02 -0.55697539430E+02  0.87156777906E+01  0.10474192006E+03  0.83728749502E+02 0.  0.
         11    1    3    3    0    0  0.25662317266E+02 -0.65531605616E+01 -0.77031839334E+02  0.81457981266E+02  0.00000000000E+00 0. -1.
        -12    1    3    3    0    0 -0.44395273953E+02  0.42888856954E+02 -0.15913185997E+03  0.17068492393E+03  0.00000000000E+00 0.  1.
        -13    1    4    4    0    0  0.80199334632E+01 -0.68354075538E+02  0.27946017139E+02  0.74280406901E+02  0.00000000000E+00 0. -1.
         13    1    4    4    0    0  0.19947679724E+02  0.12656536108E+02 -0.19230339349E+02  0.30461513162E+02  0.00000000000E+00 0.  1.
         -3    1    1    2    0  502 -0.92346565005E+01  0.19361843037E+02  0.10323179779E+03  0.10543701400E+03  0.00000000000E+00 0.  1.
<scales pt_clust_5="13000.00000" pt_clust_6="13000.00000" pt_clust_7="13000.00000" pt_clust_8="13000.00000" pt_clust_9="21.45134"></scales>
<clustering>
<clus scale="   21.451">  1  9  2 -1</clus>
<clus scale="   78.304">  5  6 -1 -1</clus>
<clus scale="   83.729">  7  8 -1 -1</clus>
<clus scale="   89.589">  2  5  1 -1</clus>
<clus scale="   21.451">  1  5  2 -1</clus>
</clustering>
</event>
<event>
 9    1  0.4067873E-005  0.9566022E+02  0.7546771E-02  0.1292401E+00
          1   -1    0    0  502    0 -0.00000000000E+00  0.00000000000E+00  0.67071737911E+02  0.67071737911E+02  0.00000000000E+00 0. -1.
         21   -1    0    0  501  502  0.00000000000E+00 -0.00000000000E+00 -0.36811656049E+03  0.36811656049E+03  0.00000000000E+00 0. -1.
         23    2    1    2    0    0  0.52378945354E+02  0.15145370419E+02 -0.36896875581E+02  0.11256336315E+03  0.91302766306E+02 0.  0.
        -24    2    1    2    0    0  0.37349966190E+02 -0.29951784214E+02 -0.11490823532E+03  0.14785938087E+03  0.79789501902E+02 0.  0.
         11    1    4    4    0    0 -0.66675606382E+01 -0.41243093520E+02 -0.81070090698E+02  0.91202021544E+02  0.00000000000E+00 0. -1.
        -12    1    4    4    0    0  0.44017526828E+02  0.11291309305E+02 -0.33838144622E+02  0.56657359322E+02  0.00000000000E+00 0.  1.
        -11    1    3    3    0    0 -0.16109561982E+02  0.14201010936E+02  0.15366185034E+02  0.26406558681E+02  0.00000000000E+00 0.  1.
         11    1    3    3    0    0  0.68488507337E+02  0.94435948308E+00 -0.52263060615E+02  0.86156804473E+02  0.00000000000E+00 0. -1.
          2    1    1    2  501    0 -0.89728911545E+02  0.14806413795E+02 -0.14923971168E+03  0.17476555438E+03  0.00000000000E+00 0. -1.
<scales pt_clust_5="13000.00000" pt_clust_6="13000.00000" pt_clust_7="13000.00000" pt_clust_8="13000.00000" pt_clust_9="90.94233"></scales>
<clustering>
<clus scale="   79.790">  5  6 -1 -1</clus>
<clus scale="   90.942">  2  9  1 -1</clus>
<clus scale="   90.942">  2  5  1 -1</clus>
<clus scale="   91.303">  7  8 -1 -1</clus>
<clus scale="   90.942">  2  5  1 -1</clus>
</clustering>
</event>
<event>
 9    1  0.4067873E-005  0.1047217E+03  0.7546771E-02  0.1276507E+00
          1   -1    0    0  502    0 -0.00000000000E+00  0.00000000000E+00  0.31471829345E+02  0.31471829345E+02  0.00000000000E+00 0. -1.
         21   -1    0    0  501  502  0.00000000000E+00 -0.00000000000E+00 -0.52129728559E+03  0.52129728559E+03  0.00000000000E+00 0. -1.
        -24    2    1    2    0    0 -0.15509120020E+02 -0.54550227153E+02 -0.13132247675E+03  0.16193297617E+03  0.75897534776E+02 0.  0.
         23    2    1    2    0    0  0.55106062735E+02  0.30814799281E+02 -0.26012009518E+03  0.28216010491E+03  0.89250383087E+02 0.  0.
         13    1    3    3    0    0  0.30304153447E+02 -0.28158908954E+02 -0.66033218449E+02  0.77920804721E+02  0.00000000000E+00 0. -1.
        -14    1    3    3    0    0 -0.45813273466E+02 -0.26391318199E+02 -0.65289258300E+02  0.84012171448E+02  0.00000000000E+00 0.  1.
        -11    1    4    4    0    0 -0.26530741986E+01  0.34816842990E+02 -0.17973263063E+03  0.18309306342E+03  0.00000000000E+00 0. -1.
         11    1    4    4    0    0  0.57759136933E+02 -0.40020437090E+01 -0.80387464549E+02  0.99067041491E+02  0.00000000000E+00 0.  1.
          2    1    1    2  501    0 -0.39596942715E+02  0.23735427873E+02 -0.98382884323E+02  0.10867603386E+03  0.00000000000E+00 0. -1.
<scales pt_clust_5="13000.00000" pt_clust_6="13000.00000" pt_clust_7="13000.00000" pt_clust_8="13000.00000" pt_clust_9="46.16588"></scales>
<clustering>
<clus scale="   46.166">  2  9  1 -1</clus>
<clus scale="   75.898">  5  6 -1 -1</clus>
<clus scale="   89.250">  7  8 -1 -1</clus>
<clus scale="   93.603">  1  5  2 -1</clus>
<clus scale="   46.166">  2  5  1 -1</clus>
</clustering>
</event>
<event>
 9    1  0.4067873E-005  0.3483002E+03  0.7546771E-02  0.1110408E+00
          1   -1    0    0  502    0 -0.00000000000E+00  0.00000000000E+00  0.13472209306E+04  0.13472209306E+04  0.00000000000E+00 0. -1.
         21   -1    0    0  501  502  0.00000000000E+00 -0.00000000000E+00 -0.20376452487E+03  0.20376452487E+03  0.00000000000E+00 0. -1.
        -24    2    1    2    0    0  0.59213004557E+02 -0.76719486339E+01  0.12313926986E+03  0.15831565046E+03  0.79596021844E+02 0.  0.
         23    2    1    2    0    0 -0.37290276909E+03 -0.87794661578E+02  0.98748874693E+03  0.10631355197E+04  0.91426091664E+02 0.  0.
         13    1    3    3    0    0  0.40484293331E+02 -0.29330897848E+02  0.24632718816E+02  0.55731951440E+02  0.00000000000E+00 0. -1.
        -14    1    3    3    0    0  0.18728711226E+02  0.21658949214E+02  0.98506551048E+02  0.10258369902E+03  0.00000000000E+00 0.  1.
        -13    1    4    4    0    0 -0.26926612108E+03 -0.23863394452E+02  0.63256918014E+03  0.68790804125E+03  0.00000000000E+00 0. -1.
         13    1    4    4    0    0 -0.10363664801E+03 -0.63931267126E+02  0.35491956679E+03  0.37522747849E+03  0.00000000000E+00 0.  1.
          2    1    1    2  501    0  0.31368976454E+03  0.95466610212E+02  0.32828388935E+02  0.32953428526E+03  0.00000000000E+00 0. -1.
<scales pt_clust_5="13000.00000" pt_clust_6="13000.00000" pt_clust_7="13000.00000" pt_clust_8="13000.00000" pt_clust_9="336.08675"></scales>
<clustering>
<clus scale="   79.596">  5  6 -1 -1</clus>
<clus scale="   91.426">  7  8 -1 -1</clus>
<clus scale="   99.502">  1  5  2 -1</clus>
<clus scale="  336.087">  2  9  1 -1</clus>
<clus scale="  336.087">  2  5  1 -1</clus>
</clustering>
</event>
<event>
 9    1  0.4067873E-005  0.8724706E+02  0.7546771E-02  0.1310965E+00
          1   -1    0    0  502    0 -0.00000000000E+00  0.00000000000E+00  0.18434430326E+03  0.18434430326E+03  0.00000000000E+00 0. -1.
         21   -1    0    0  501  502  0.00000000000E+00 -0.00000000000E+00 -0.84006498103E+02  0.84006498103E+02  0.00000000000E+00 0. -1.
        -24    2    1    2    0    0  0.29205591112E+02 -0.20801909134E+02  0.11947732963E+03  0.14737129299E+03  0.78471521762E+02 0.  0.
         23    2    1    2    0    0 -0.51231880981E+02  0.82967766700E+01 -0.23831099897E+02  0.95220108855E+02  0.76193212796E+02 0.  0.
         11    1    3    3    0    0 -0.16746882363E+02 -0.14536672642E+02  0.89365048080E+02  0.92075429614E+02  0.00000000000E+00 0. -1.
        -12    1    3    3    0    0  0.45952473475E+02 -0.62652364918E+01  0.30112281549E+02  0.55295863379E+02  0.00000000000E+00 0.  1.
        -13    1    4    4    0    0  0.81803990947E+01 -0.20940167136E+02  0.49490108840E+01  0.23019605509E+02  0.00000000000E+00 0.  1.
         13    1    4    4    0    0 -0.59412280076E+02  0.29236943806E+02 -0.28780110781E+02  0.72200503347E+02  0.00000000000E+00 0. -1.
          2    1    1    2  501    0  0.22026289870E+02  0.12505132464E+02  0.46915754262E+01  0.25759399515E+02  0.00000000000E+00 0. -1.
<scales pt_clust_5="13000.00000" pt_clust_6="13000.00000" pt_clust_7="13000.00000" pt_clust_8="13000.00000" pt_clust_9="25.32856"></scales>
<clustering>
<clus scale="   25.329">  2  9  1 -1</clus>
<clus scale="   76.193">  7  8 -1 -1</clus>
<clus scale="   78.472">  5  6 -1 -1</clus>
<clus scale="   85.204">  2  7  1 -1</clus>
<clus scale="   25.329">  2  5  1 -1</clus>
</clustering>
</event>
<event>
 9    1  0.4067873E-005  0.1190811E+03  0.7546771E-02  0.1255444E+00
          1   -1    0    0  502    0 -0.00000000000E+00  0.00000000000E+00  0.19100792674E+03  0.19100792674E+03  0.00000000000E+00 0. -1.
         21   -1    0    0  501  502  0.00000000000E+00 -0.00000000000E+00 -0.12424665942E+03  0.12424665942E+03  0.00000000000E+00 0.  1.
        -24    2    1    2    0    0 -0.16331093005E+02 -0.48042088278E+02  0.11029719171E+03  0.14503380517E+03  0.79338435193E+02 0.  0.
         23    2    1    2    0    0  0.50330416173E+02  0.53505533056E+02 -0.26490680111E+02  0.13179756461E+03  0.10617367397E+03 0.  0.
         11    1    3    3    0    0 -0.17078924951E+02 -0.32090452570E+02  0.12064654891E+03  0.12600427210E+03  0.00000000000E+00 0. -1.
        -12    1    3    3    0    0  0.74783194546E+00 -0.15951635708E+02 -0.10349357203E+02  0.19029533071E+02  0.00000000000E+00 0.  1.
        -11    1    4    4    0    0  0.68501651548E+02  0.65416382640E+02 -0.43474657438E+02  0.10422008070E+03  0.00000000000E+00 0.  1.
         11    1    4    4    0    0 -0.18171235375E+02 -0.11910849584E+02  0.16983977327E+02  0.27577483908E+02  0.00000000000E+00 0. -1.
          2    1    1    2  501    0 -0.33999323168E+02 -0.54634447776E+01 -0.17045244268E+02  0.38423216378E+02  0.00000000000E+00 0. -1.
<scales pt_clust_5="13000.00000" pt_clust_6="13000.00000" pt_clust_7="13000.00000" pt_clust_8="13000.00000" pt_clust_9="34.43549"></scales>
<clustering>
<clus scale="   34.435">  2  9  1 -1</clus>
<clus scale="   79.338">  5  6 -1 -1</clus>
<clus scale="   95.927">  1  5  2 -1</clus>
<clus scale="  106.174">  7  8 -1 -1</clus>
<clus scale="   34.435">  2  5  1 -1</clus>
</clustering>
</event>
<event>
 9    1  0.4067873E-005  0.9239740E+02  0.7546771E-02  0.1302360E+00
         21   -1    0    0  501  502  0.00000000000E+00  0.00000000000E+00  0.13289012093E+03  0.13289012093E+03  0.00000000000E+00 0. -1.
         -4   -1    0    0    0  501 -0.00000000000E+00 -0.00000000000E+00 -0.11339827273E+03  0.11339827273E+03  0.00000000000E+00 0.  1.
        -24    2    1    2    0    0  0.72358490233E+01  0.10269116821E+02 -0.88505419500E+01  0.82387740850E+02  0.80941926578E+02 0.  0.
         23    2    1    2    0    0 -0.26870182552E+02 -0.36794251744E+02  0.60853998146E+02  0.11757469367E+03  0.89692674333E+02 0.  0.
         11    1    3    3    0    0 -0.21674418826E+02  0.29776258251E+02  0.15389305281E+02  0.39915369270E+02  0.00000000000E+00 0. -1.
        -12    1    3    3    0    0  0.28910267850E+02 -0.19507141430E+02 -0.24239847231E+02  0.42472371580E+02  0.00000000000E+00 0.  1.
        -13    1    4    4    0    0  0.26396822173E+02 -0.18008222206E+02  0.51081518590E+02  0.60252882332E+02  0.00000000000E+00 0.  1.
         13    1    4    4    0    0 -0.53267004725E+02 -0.18786029538E+02  0.97724795561E+01  0.57321811336E+02  0.00000000000E+00 0. -1.
         -3    1    1    2    0  502  0.19634333529E+02  0.26525134923E+02 -0.32511607996E+02  0.46325959140E+02  0.00000000000E+00 0.  1.
<scales pt_clust_5="13000.00000" pt_clust_6="13000.00000" pt_clust_7="13000.00000" pt_clust_8="13000.00000" pt_clust_9="33.00138"></scales>
<clustering>
<clus scale="   33.001">  1  9  2 -1</clus>
<clus scale="   80.942">  5  6 -1 -1</clus>
<clus scale="   83.929">  2  5  1 -1</clus>
<clus scale="   89.693">  7  8 -1 -1</clus>
<clus scale="   33.001">  1  5  2 -1</clus>
</clustering>
</event>
<event>
 9    1  0.4067873E-005  0.1559983E+03  0.7546771E-02  0.1209431E+00
         -2   -1    0    0    0  501 -0.00000000000E+00  0.00000000000E+00  0.23879284912E+03  0.23879284912E+03  0.00000000000E+00 0.  1.
         21   -1    0    0  501  502  0.00000000000E+00 -0.00000000000E+00 -0.64276475781E+03  0.64276475781E+03  0.00000000000E+00 0.  1.
        -24    2    1    2    0    0  0.70756342511E+02  0.35217198265E+02 -0.19108456635E+03  0.22046186157E+03  0.76442199413E+02 0.  0.
         23    2    1    2    0    0  0.51039456967E+02 -0.78892320946E+02  0.19416419833E+03  0.23397434590E+03  0.90637928903E+02 0.  0.
         11    1    3    3    0    0  0.73238019897E+02 -0.68585617381E+00 -0.11580705643E+03  0.13702391133E+03  0.00000000000E+00 0. -1.
        -12    1    3    3    0    0 -0.24816773858E+01  0.35903054439E+02 -0.75277509928E+02  0.83437950249E+02  0.00000000000E+00 0.  1.
        -11    1    4    4    0    0  0.26651226095E+02  0.16891886877E+02  0.52067671780E+02  0.60882395972E+02  0.00000000000E+00 0. -1.
         11    1    4    4    0    0  0.24388230872E+02 -0.95784207824E+02  0.14209652655E+03  0.17309194993E+03  0.00000000000E+00 0.  1.
         -1    1    1    2    0  502 -0.12179579948E+03  0.43675122681E+02 -0.40705154067E+03  0.42712139946E+03  0.00000000000E+00 0.  1.
<scales pt_clust_5="13000.00000" pt_clust_6="13000.00000" pt_clust_7="13000.00000" pt_clust_8="13000.00000" pt_clust_9="126.96546"></scales>
<clustering>
<clus scale="   76.442">  5  6 -1 -1</clus>
<clus scale="   90.638">  7  8 -1 -1</clus>
<clus scale="  109.955">  1  5  2 -1</clus>
<clus scale="  126.965">  2  9  1 -1</clus>
<clus scale="  126.965">  2  5  1 -1</clus>
</clustering>
</event>
<event>
 9    1  0.4067873E-005  0.1013786E+03  0.7546771E-02  0.1284496E+00
          1   -1    0    0  502    0 -0.00000000000E+00  0.00000000000E+00  0.50438602519E+03  0.50438602519E+03  0.00000000000E+00 0. -1.
         21   -1    0    0  501  502  0.00000000000E+00 -0.00000000000E+00 -0.36687471002E+02  0.36687471002E+02  0.00000000000E+00 0. -1.
        -24    2    1    2    0    0  0.25239181230E+02 -0.16610317283E+02  0.21213489080E+03  0.22818108199E+03  0.78437716528E+02 0.  0.
         23    2    1    2    0    0 -0.13525325794E+02  0.73134618993E+02  0.20095633405E+03  0.23343065289E+03  0.92600294716E+02 0.  0.
         11    1    3    3    0    0  0.10764195037E+02 -0.28701327935E+02  0.23549851925E+02  0.38655266726E+02  0.00000000000E+00 0. -1.
        -12    1    3    3    0    0  0.14474986193E+02  0.12091010652E+02  0.18858503888E+03  0.18952581526E+03  0.00000000000E+00 0.  1.
        -11    1    4    4    0    0  0.30805651350E+02 -0.26700827767E+01  0.49920934773E+02  0.58721522679E+02  0.00000000000E+00 0.  1.
         11    1    4    4    0    0 -0.44330977143E+02  0.75804701770E+02  0.15103539927E+03  0.17470913021E+03  0.00000000000E+00 0. -1.
          2    1    1    2  501    0 -0.11713855436E+02 -0.56524301711E+02  0.54607329338E+02  0.79461761310E+02  0.00000000000E+00 0. -1.
<scales pt_clust_5="13000.00000" pt_clust_6="13000.00000" pt_clust_7="13000.00000" pt_clust_8="13000.00000" pt_clust_9="57.72531"></scales>
<clustering>
<clus scale="   57.725">  2  9  1 -1</clus>
<clus scale="   78.438">  5  6 -1 -1</clus>
<clus scale="   88.630">  1  5  2 -1</clus>
<clus scale="   92.600">  7  8 -1 -1</clus>
<clus scale="   57.725">  2  5  1 -1</clus>
</clustering>
</event>
<event>
 9    1  0.4067873E-005  0.1022030E+03  0.7546771E-02  0.1280628E+00
          1   -1    0    0  502    0 -0.00000000000E+00  0.00000000000E+00  0.49330927843E+03  0.49330927843E+03  0.00000000000E+00 0. -1.
         21   -1    0    0  501  502  0.00000000000E+00 -0.00000000000E+00 -0.44921332801E+02  0.44921332801E+02  0.00000000000E+00 0.  1.
        -24    2    1    2    0    0 -0.32809632069E+02 -0.54867038732E+02  0.29539600780E+03  0.31271316398E+03  0.80273642027E+02 0.  0.
         23    2    1    2    0    0 -0.17936068035E+02  0.85358081853E+01  0.62610152075E+02  0.11198077389E+03  0.90692337162E+02 0.  0.
         13    1    3    3    0    0 -0.38884909153E+02 -0.66316231461E+02  0.28735437471E+03  0.29745993912E+03  0.00000000000E+00 0. -1.
        -14    1    3    3    0    0  0.60752770844E+01  0.11449192730E+02  0.80416330887E+01  0.15253224857E+02  0.00000000000E+00 0.  1.
        -11    1    4    4    0    0  0.37014162472E+02  0.93206065501E+00  0.29816193985E+02  0.47538640960E+02  0.00000000000E+00 0.  1.
         11    1    4    4    0    0 -0.54950230507E+02  0.76037475303E+01  0.32793958090E+02  0.64442132929E+02  0.00000000000E+00 0. -1.
          2    1    1    2  501    0  0.50745700104E+02  0.46331230546E+02  0.90381785756E+02  0.11353667337E+03  0.00000000000E+00 0. -1.
<scales pt_clust_5="13000.00000" pt_clust_6="13000.00000" pt_clust_7="13000.00000" pt_clust_8="13000.00000" pt_clust_9="68.71469"></scales>
<clustering>
<clus scale="   68.715">  2  9  1 -1</clus>
<clus scale="   80.274">  5  6 -1 -1</clus>
<clus scale="   90.692">  7  8 -1 -1</clus>
<clus scale="   93.082">  1  5  2 -1</clus>
<clus scale="   68.715">  2  5  1 -1</clus>
</clustering>
</event>
<event>
 9    1  0.4067873E-005  0.1040327E+03  0.7546771E-02  0.1277744E+00
         21   -1    0    0  501  502  0.00000000000E+00  0.00000000000E+00  0.87157888068E+03  0.87157888068E+03  0.00000000000E+00 0.  1.
         -2   -1    0    0    0  501 -0.00000000000E+00 -0.00000000000E+00 -0.58317892432E+02  0.58317892432E+02  0.00000000000E+00 0.  1.
        -24    2    1    2    0    0  0.56523857290E+02  0.49880450778E+01 -0.13779886595E+01  0.97287450030E+02  0.79013429516E+02 0.  0.
         23    2    1    2    0    0 -0.17005177721E+01  0.26791748743E+02  0.31932115803E+03  0.33325444371E+03  0.91497719799E+02 0.  0.
         13    1    3    3    0    0  0.11209699458E+02 -0.33732070411E+02 -0.10326752383E+02  0.37015560930E+02  0.00000000000E+00 0. -1.
        -14    1    3    3    0    0  0.45314157832E+02  0.38720115489E+02  0.89487637233E+01  0.60271889100E+02  0.00000000000E+00 0.  1.
        -11    1    4    4    0    0  0.17715882604E+02 -0.29990213969E+02  0.13437580009E+03  0.13881686165E+03  0.00000000000E+00 0.  1.
         11    1    4    4    0    0 -0.19416400376E+02  0.56781962712E+02  0.18494535794E+03  0.19443758206E+03  0.00000000000E+00 0. -1.
         -1    1    1    2    0  502 -0.54823339518E+02 -0.31779793820E+02  0.49531781888E+03  0.49935487937E+03  0.00000000000E+00 0.  1.
<scales pt_clust_5="13000.00000" pt_clust_6="13000.00000" pt_clust_7="13000.00000" pt_clust_8="13000.00000" pt_clust_9="63.36840"></scales>
<clustering>
<clus scale="   63.368">  1  9  2 -1</clus>
<clus scale="   79.013">  5  6 -1 -1</clus>
<clus scale="   91.498">  7  8 -1 -1</clus>
<clus scale="   93.242">  2  5  1 -1</clus>
<clus scale="   63.368">  1  5  2 -1</clus>
</clustering>
</event>
<event>
 9    1  0.4067873E-005  0.1435882E+03  0.7546771E-02  0.1226445E+00
         21   -1    0    0  501  502  0.00000000000E+00  0.00000000000E+00  0.32129466322E+03  0.32129466322E+03  0.00000000000E+00 0.  1.
         -2   -1    0    0    0  501 -0.00000000000E+00 -0.00000000000E+00 -0.13606937629E+03  0.13606937629E+03  0.00000000000E+00 0.  1.
        -24    2    1    2    0    0  0.37236165631E+02 -0.31682020274E+02  0.50067285614E+02  0.11051338167E+03  0.85534741485E+02 0.  0.
         23    2    1    2    0    0  0.16143121338E+02  0.12638064124E+03 -0.19108379187E+02  0.15813051254E+03  0.91692213381E+02 0.  0.
         11    1    3    3    0    0  0.31397471068E+02  0.80418492440E+01  0.60847037214E+02  0.68940804075E+02  0.00000000000E+00 0. -1.
        -12    1    3    3    0    0  0.58386945626E+01 -0.39723869518E+02 -0.10779751601E+02  0.41572577599E+02  0.00000000000E+00 0.  1.
        -13    1    4    4    0    0 -0.35303633364E+02  0.68741655772E+02  0.43174184022E+01  0.77397686455E+02  0.00000000000E+00 0.  1.
         13    1    4    4    0    0  0.51446754701E+02  0.57638985466E+02 -0.23425797590E+02  0.80732826084E+02  0.00000000000E+00 0. -1.
         -1    1    1    2    0  502 -0.53379286968E+02 -0.94698620964E+02  0.15426638050E+03  0.18872014530E+03  0.00000000000E+00 0.  1.
<scales pt_clust_5="13000.00000" pt_clust_6="13000.00000" pt_clust_7="13000.00000" pt_clust_8="13000.00000" pt_clust_9="110.49933"></scales>
<clustering>
<clus scale="   85.535">  5  6 -1 -1</clus>
<clus scale="   91.692">  7  8 -1 -1</clus>
<clus scale="   98.521">  2  5  1 -1</clus>
<clus scale="  110.499">  1  9  2 -1</clus>
<clus scale="  110.499">  1  5  2 -1</clus>
</clustering>
</event>
<event>
 9    1  0.4067873E-005  0.9081861E+02  0.7546771E-02  0.1308109E+00
         -4   -1    0    0    0  501 -0.00000000000E+00  0.00000000000E+00  0.21163676887E+03  0.21163676887E+03  0.00000000000E+00 0.  1.
         21   -1    0    0  501  502  0.00000000000E+00 -0.00000000000E+00 -0.88771970466E+02  0.88771970466E+02  0.00000000000E+00 0. -1.
         23    2    1    2    0    0  0.19079435446E+01  0.90736345758E+01  0.49445636523E+02  0.10349007364E+03  0.90439777077E+02 0.  0.
        -24    2    1    2    0    0 -0.22137303279E+02  0.17565742529E+02 -0.29223971399E+02  0.88962673657E+02  0.79130912372E+02 0.  0.
         13    1    4    4    0    0 -0.14498791463E+02  0.44964074919E+02 -0.36386071529E+02  0.59631612326E+02  0.00000000000E+00 0. -1.
        -14    1    4    4    0    0 -0.76385118155E+01 -0.27398332391E+02  0.71621001303E+01  0.29331061331E+02  0.00000000000E+00 0.  1.
        -11    1    3    3    0    0 -0.40129812039E+02 -0.53555276622E+01  0.42160816651E+02  0.58451843013E+02  0.00000000000E+00 0.  1.
         11    1    3    3    0    0  0.42037755584E+02  0.14429162238E+02  0.72848198720E+01  0.45038230627E+02  0.00000000000E+00 0. -1.
         -3    1    1    2    0  502  0.20229359734E+02 -0.26639377105E+02  0.10264313328E+03  0.10795599204E+03  0.00000000000E+00 0.  1.
<scales pt_clust_5="13000.00000" pt_clust_6="13000.00000" pt_clust_7="13000.00000" pt_clust_8="13000.00000" pt_clust_9="33.44973"></scales>
<clustering>
<clus scale="   33.450">  2  9  1 -1</clus>
<clus scale="   79.131">  5  6 -1 -1</clus>
<clus scale="   79.564">  2  5  1 -1</clus>
<clus scale="   90.440">  7  8 -1 -1</clus>
<clus scale="   33.450">  2  5  1 -1</clus>
</clustering>
</event>
<event>
 9    1  0.4067873E-005  0.1725133E+03  0.7546771E-02  0.1176905E+00
         -4   -1    0    0    0  501 -0.00000000000E+00  0.00000000000E+00  0.39186526156E+03  0.39186526156E+03  0.00000000000E+00 0.  1.
         21   -1    0    0  501  502  0.00000000000E+00 -0.00000000000E+00 -0.17980053726E+03  0.17980053726E+03  0.00000000000E+00 0.  1.
         23    2    1    2    0    0 -0.14346579204E+03 -0.59187333783E+01  0.20339756665E+03  0.26635181833E+03  0.94632215014E+02 0.  0.
        -24    2    1    2    0    0  0.14501262059E+03  0.40158500839E+02 -0.94981509929E+02  0.19614530070E+03  0.82523490219E+02 0.  0.
         11    1    4    4    0    0  0.15725794514E+02 -0.15273901593E+02  0.62981546548E+01  0.22809196282E+02  0.00000000000E+00 0. -1.
        -12    1    4    4    0    0  0.12928682607E+03  0.55432402432E+02 -0.10127966458E+03  0.17333610441E+03  0.00000000000E+00 0.  1.
        -13    1    3    3    0    0 -0.10321142438E+03 -0.46214646994E+02  0.15329739327E+03  0.19049536085E+03  0.00000000000E+00 0.  1.
         13    1    3    3    0    0 -0.40254367661E+02  0.40295913616E+02  0.50100173380E+02  0.75856457488E+02  0.00000000000E+00 0. -1.
         -3    1    1    2    0  502 -0.15468285422E+01 -0.34239767460E+02  0.10364866758E+03  0.10916867978E+03  0.00000000000E+00 0.  1.
<scales pt_clust_5="13000.00000" pt_clust_6="13000.00000" pt_clust_7="13000.00000" pt_clust_8="13000.00000" pt_clust_9="34.27471"></scales>
<clustering>
<clus scale="   34.275">  2  9  1 -1</clus>
<clus scale="   82.523">  5  6 -1 -1</clus>
<clus scale="   94.632">  7  8 -1 -1</clus>
<clus scale="  166.180">  2  5  1 -1</clus>
<clus scale="   34.275">  2  5  1 -1</clus>
</clustering>
</event>
<event>
 9    1  0.4067873E-005  0.1284091E+03  0.7546771E-02  0.1236546E+00
         21   -1    0    0  501  502  0.00000000000E+00  0.00000000000E+00  0.26927477507E+02  0.26927477507E+02  0.00000000000E+00 0. -1.
          1   -1    0    0  502    0 -0.00000000000E+00 -0.00000000000E+00 -0.90395990436E+03  0.90395990436E+03  0.00000000000E+00 0. -1.
        -24    2    1    2    0    0  0.98927122011E+02 -0.22874280427E+02 -0.40711526465E+03  0.42551643104E+03  0.70792557494E+02 0.  0.
         23    2    1    2    0    0 -0.56319656392E+02  0.23700681705E+02 -0.18049919997E+03  0.21283234496E+03  0.94784069649E+02 0.  0.
         13    1    3    3    0    0  0.79170779100E+02 -0.47373285378E+02 -0.30850809836E+03  0.32200852036E+03  0.00000000000E+00 0. -1.
        -14    1    3    3    0    0  0.19756342911E+02  0.24499004952E+02 -0.98607166299E+02  0.10350791068E+03  0.00000000000E+00 0.  1.
        -11    1    4    4    0    0 -0.33276386083E+02  0.14905200251E+02 -0.18430368932E+03  0.18787584400E+03  0.00000000000E+00 0.  1.
         11    1    4    4    0    0 -0.23043270308E+02  0.87954814546E+01  0.38044893432E+01  0.24956500950E+02  0.00000000000E+00 0. -1.
          2    1    1    2  501    0 -0.42607465619E+02 -0.82640127893E+00 -0.28941796223E+03  0.29253860587E+03  0.00000000000E+00 0. -1.
<scales pt_clust_5="13000.00000" pt_clust_6="13000.00000" pt_clust_7="13000.00000" pt_clust_8="13000.00000" pt_clust_9="42.61550"></scales>
<clustering>
<clus scale="   42.616">  1  9  2 -1</clus>
<clus scale="   70.793">  5  6 -1 -1</clus>
<clus scale="   94.784">  7  8 -1 -1</clus>
<clus scale="  111.877">  2  5  1 -1</clus>
<clus scale="   42.616">  1  5  2 -1</clus>
</clustering>
</event>
<event>
 9    1  0.4067873E-005  0.1042806E+03  0.7546771E-02  0.1275832E+00
         -2   -1    0    0    0  501 -0.00000000000E+00  0.00000000000E+00  0.61120144461E+03  0.61120144461E+03  0.00000000000E+00 0.  1.
         21   -1    0    0  501  502  0.00000000000E+00 -0.00000000000E+00 -0.36704555266E+02  0.36704555266E+02  0.00000000000E+00 0. -1.
        -24    2    1    2    0    0  0.33187538899E+02  0.37990840197E+02  0.30027466581E+03  0.31495869366E+03  0.80556732231E+02 0.  0.
         23    2    1    2    0    0 -0.68508311522E+02 -0.13353029400E+02  0.94497485167E+02  0.14813507642E+03  0.90235990728E+02 0.  0.
         13    1    3    3    0    0 -0.14983380410E+01 -0.23670455582E+02  0.91431551757E+02  0.94457737328E+02  0.00000000000E+00 0. -1.
        -14    1    3    3    0    0  0.34685876940E+02  0.61661295779E+02  0.20884311406E+03  0.22050095634E+03  0.00000000000E+00 0.  1.
        -11    1    4    4    0    0 -0.60209055548E+02  0.19534757369E+02  0.20171045942E+02  0.66434992360E+02  0.00000000000E+00 0. -1.
         11    1    4    4    0    0 -0.82992559741E+01 -0.32887786769E+02  0.74326439225E+02  0.81700084064E+02  0.00000000000E+00 0.  1.
         -1    1    1    2    0  502  0.35320772623E+02 -0.24637810797E+02  0.17972473836E+03  0.18481222979E+03  0.00000000000E+00 0.  1.
<scales pt_clust_5="13000.00000" pt_clust_6="13000.00000" pt_clust_7="13000.00000" pt_clust_8="13000.00000" pt_clust_9="43.06484"></scales>
<clustering>
<clus scale="   43.065">  2  9  1 -1</clus>
<clus scale="   80.557">  5  6 -1 -1</clus>
<clus scale="   90.236">  7  8 -1 -1</clus>
<clus scale="   96.028">  1  5  2 -1</clus>
<clus scale="   43.065">  2  5  1 -1</clus>
</clustering>
</event>
<event>
 9    1  0.4067873E-005  0.9127346E+02  0.7546771E-02  0.1303893E+00
         -4   -1    0    0    0  501 -0.00000000000E+00  0.00000000000E+00  0.43316897330E+03  0.43316897330E+03  0.00000000000E+00 0.  1.
         21   -1    0    0  501  502  0.00000000000E+00 -0.00000000000E+00 -0.15450619461E+03  0.15450619461E+03  0.00000000000E+00 0.  1.
        -24    2    1    2    0    0 -0.76425792098E+01 -0.13242433676E+02  0.35280017491E+03  0.36261595438E+03  0.82392935930E+02 0.  0.
         23    2    1    2    0    0 -0.56424029074E+01  0.64682216739E+02  0.24521754009E+02  0.11300489653E+03  0.89180515515E+02 0.  0.
         13    1    3    3    0    0 -0.18454179266E+01  0.34750045044E+02  0.12571876088E+03  0.13044607328E+03  0.00000000000E+00 0. -1.
        -14    1    3    3    0    0 -0.57971612832E+01 -0.47992478720E+02  0.22708141403E+03  0.23216988110E+03  0.00000000000E+00 0.  1.
        -11    1    4    4    0    0 -0.28744860957E+02 -0.11183400807E+02  0.41215958941E+01  0.31117889352E+02  0.00000000000E+00 0. -1.
         11    1    4    4    0    0  0.23102458049E+02  0.75865617546E+02  0.20400158115E+02  0.81887007179E+02  0.00000000000E+00 0.  1.
         -3    1    1    2    0  502  0.13284982117E+02 -0.51439783063E+02 -0.98659150230E+02  0.11205431699E+03  0.00000000000E+00 0.  1.
<scales pt_clust_5="13000.00000" pt_clust_6="13000.00000" pt_clust_7="13000.00000" pt_clust_8="13000.00000" pt_clust_9="53.12760"></scales>
<clustering>
<clus scale="   53.128">  2  9  1 -1</clus>
<clus scale="   82.393">  5  6 -1 -1</clus>
<clus scale="   84.654">  1  5  2 -1</clus>
<clus scale="   89.181">  7  8 -1 -1</clus>
<clus scale="   53.128">  2  5  1 -1</clus>
</clustering>
</event>
<event>
 9    1  0.4067873E-005  0.8615939E+02  0.7546771E-02  0.1315937E+00
          1   -1    0    0  502    0 -0.00000000000E+00  0.00000000000E+00  0.16932334175E+03  0.16932334175E+03  0.00000000000E+00 0. -1.
         21   -1    0    0  501  502  0.00000000000E+00 -0.00000000000E+00 -0.10370764914E+03  0.10370764914E+03  0.00000000000E+00 0. -1.
         23    2    1    2    0    0  0.11340607434E+02  0.77483565472E+01  0.12209563366E+03  0.14979332604E+03  0.85685765221E+02 0.  0.
        -24    2    1    2    0    0  0.67324727622E+01  0.12326575440E+02 -0.35242431692E+02  0.88876772460E+02  0.80372763047E+02 0.  0.
         13    1    4    4    0    0  0.39707504004E+02  0.21342912309E+02 -0.94678415994E+01  0.46063497529E+02  0.00000000000E+00 0. -1.
        -14    1    4    4    0    0 -0.32975031241E+02 -0.90163368692E+01 -0.25774590092E+02  0.42813274931E+02  0.00000000000E+00 0.  1.
        -11    1    3    3    0    0  0.48648148170E+02  0.28113575294E+01  0.76094052413E+02  0.90359564321E+02  0.00000000000E+00 0. -1.
         11    1    3    3    0    0 -0.37307540736E+02  0.49369990177E+01  0.46001581250E+02  0.59433761723E+02  0.00000000000E+00 0.  1.
          2    1    1    2  501    0 -0.18073080196E+02 -0.20074931987E+02 -0.21237509352E+02  0.34360892386E+02  0.00000000000E+00 0. -1.
<scales pt_clust_5="13000.00000" pt_clust_6="13000.00000" pt_clust_7="13000.00000" pt_clust_8="13000.00000" pt_clust_9="27.01183"></scales>
<clustering>
<clus scale="   27.012">  2  9  1 -1</clus>
<clus scale="   80.373">  5  6 -1 -1</clus>
<clus scale="   80.878">  2  5  1 -1</clus>
<clus scale="   85.686">  7  8 -1 -1</clus>
<clus scale="   27.012">  2  5  1 -1</clus>
</clustering>
</event>
<event>
 9    1  0.4067873E-005  0.1101495E+03  0.7546771E-02  0.1265007E+00
         21   -1    0    0  501  502  0.00000000000E+00  0.00000000000E+00  0.30704556751E+02  0.30704556751E+02  0.00000000000E+00 0. -1.
          1   -1    0    0  502    0 -0.00000000000E+00 -0.00000000000E+00 -0.69042303811E+03  0.69042303811E+03  0.00000000000E+00 0. -1.
        -24    2    1    2    0    0  0.69960037674E+02 -0.26190863309E+02 -0.40187762998E+03  0.41655241710E+03  0.80186772731E+02 0.  0.
         23    2    1    2    0    0 -0.41679830518E+02 -0.22547311920E+02 -0.19005598548E+03  0.21642775644E+03  0.92054910746E+02 0.  0.
         13    1    3    3    0    0  0.75201614413E+02  0.31295078047E+01 -0.33484974685E+03  0.34320464681E+03  0.00000000000E+00 0. -1.
        -14    1    3    3    0    0 -0.52415767386E+01 -0.29320371114E+02 -0.67027883129E+02  0.73347770284E+02  0.00000000000E+00 0.  1.
        -13    1    4    4    0    0 -0.56007136533E+02  0.70376197826E+01 -0.60405223255E+02  0.82674775060E+02  0.00000000000E+00 0.  1.
         13    1    4    4    0    0  0.14327306014E+02 -0.29584931702E+02 -0.12965076223E+03  0.13375298138E+03  0.00000000000E+00 0. -1.
          2    1    1    2  501    0 -0.28280207156E+02  0.48738175229E+02 -0.67784865904E+02  0.88147421330E+02  0.00000000000E+00 0. -1.
<scales pt_clust_5="13000.00000" pt_clust_6="13000.00000" pt_clust_7="13000.00000" pt_clust_8="13000.00000" pt_clust_9="56.34873"></scales>
<clustering>
<clus scale="   56.349">  1  9  2 -1</clus>
<clus scale="   80.187">  5  6 -1 -1</clus>
<clus scale="   92.055">  7  8 -1 -1</clus>
<clus scale="  100.443">  2  5  1 -1</clus>
<clus scale="   56.349">  1  5  2 -1</clus>
</clustering>
</event>
<event>
 9    1  0.4067873E-005  0.2673181E+03  0.7546771E-02  0.1127397E+00
          1   -1    0    0  502    0 -0.00000000000E+00  0.00000000000E+00  0.86692172225E+03  0.86692172225E+03  0.00000000000E+00 0. -1.
         21   -1    0    0  501  502  0.00000000000E+00 -0.00000000000E+00 -0.29259381072E+03  0.29259381072E+03  0.00000000000E+00 0. -1.
        -24    2    1    2    0    0 -0.81646842853E+02  0.84683331468E+02  0.31494883120E+03  0.34621647864E+03  0.82677749302E+02 0.  0.
         23    2    1    2    0    0  0.23632474275E+03 -0.11982826618E+03 -0.18786087341E+03  0.33876349679E+03  0.96233058698E+02 0.  0.
         13    1    3    3    0    0 -0.34541555336E+02  0.55204283092E+02  0.26013560987E+03  0.26816257651E+03  0.00000000000E+00 0. -1.
        -14    1    3    3    0    0 -0.47105287517E+02  0.29479048376E+02  0.54813221331E+02  0.78053902131E+02  0.00000000000E+00 0.  1.
        -13    1    4    4    0    0  0.43733756030E+02 -0.51553525607E+02 -0.10950644417E+02  0.68485940398E+02  0.00000000000E+00 0.  1.
         13    1    4    4    0    0  0.19259098672E+03 -0.68274740570E+02 -0.17691022899E+03  0.27027755639E+03  0.00000000000E+00 0. -1.
          2    1    1    2  501    0 -0.15467789990E+03  0.35144934709E+02  0.44723995374E+03  0.47453555755E+03  0.00000000000E+00 0. -1.
<scales pt_clust_5="13000.00000" pt_clust_6="13000.00000" pt_clust_7="13000.00000" pt_clust_8="13000.00000" pt_clust_9="249.39572"></scales>
<clustering>
<clus scale="   82.678">  5  6 -1 -1</clus>
<clus scale="   96.233">  7  8 -1 -1</clus>
<clus scale="  143.781">  1  5  2 -1</clus>
<clus scale="  249.396">  2  9  1 -1</clus>
<clus scale="  249.396">  2  5  1 -1</clus>
</clustering>
</event>
<event>
 9    1  0.4067873E-005  0.1463806E+03  0.7546771E-02  0.1207273E+00
         21   -1    0    0  501  502  0.00000000000E+00  0.00000000000E+00  0.40177547032E+03  0.40177547032E+03  0.00000000000E+00 0.  1.
          3   -1    0    0  502    0 -0.00000000000E+00 -0.00000000000E+00 -0.14210879701E+03  0.14210879701E+03  0.00000000000E+00 0. -1.
        -24    2    1    2    0    0 -0.96446440326E+02 -0.84617395031E+02 -0.18371318275E+02  0.15270738638E+03  0.80746647774E+02 0.  0.
         23    2    1    2    0    0  0.65897362994E+02  0.70258723925E+02  0.24801344232E+02  0.13570042974E+03  0.92307904427E+02 0.  0.
         11    1    3    3    0    0 -0.14447232853E+02 -0.64776088321E+02 -0.16189035735E+02  0.68313607966E+02  0.00000000000E+00 0. -1.
        -12    1    3    3    0    0 -0.81999207472E+02 -0.19841306710E+02 -0.21822825408E+01  0.84393778415E+02  0.00000000000E+00 0.  1.
        -13    1    4    4    0    0 -0.18778818977E+00  0.66419639782E+02  0.19832599513E+02  0.69317644338E+02  0.00000000000E+00 0.  1.
         13    1    4    4    0    0  0.66085151184E+02  0.38390841429E+01  0.49687447192E+01  0.66382785405E+02  0.00000000000E+00 0. -1.
          4    1    1    2  501    0  0.30549077331E+02  0.14358671107E+02  0.25323664735E+03  0.25547645121E+03  0.00000000000E+00 0. -1.
<scales pt_clust_5="13000.00000" pt_clust_6="13000.00000" pt_clust_7="13000.00000" pt_clust_8="13000.00000" pt_clust_9="33.75526"></scales>
<clustering>
<clus scale="   33.755">  1  9  2 -1</clus>
<clus scale="   80.747">  5  6 -1 -1</clus>
<clus scale="   92.308">  7  8 -1 -1</clus>
<clus scale="  139.379">  2  5  1 -1</clus>
<clus scale="   33.755">  1  5  2 -1</clus>
</clustering>
</event>
<event>
 9    1  0.4067873E-005  0.1111290E+03  0.7546771E-02  0.1261887E+00
         21   -1    0    0  501  502  0.00000000000E+00  0.00000000000E+00  0.11036077958E+03  0.11036077958E+03  0.00000000000E+00 0. -1.
          1   -1    0    0  502    0 -0.00000000000E+00 -0.00000000000E+00 -0.22157412371E+03  0.22157412371E+03  0.00000000000E+00 0. -1.
         23    2    1    2    0    0 -0.13822718374E+02 -0.64254249656E+02 -0.10858323720E+03  0.15643349420E+03  0.91440923905E+02 0.  0.
        -24    2    1    2    0    0  0.30691779001E+02  0.53388613423E+02 -0.56869185488E+02  0.11766971449E+03  0.82581645111E+02 0.  0.
         13    1    4    4    0    0 -0.52347181661E+01  0.30123080434E+02 -0.67034019687E+02  0.73677418824E+02  0.00000000000E+00 0. -1.
        -14    1    4    4    0    0  0.35926497167E+02  0.23265532989E+02  0.10164834199E+02  0.43992295669E+02  0.00000000000E+00 0.  1.
        -13    1    3    3    0    0  0.16365106802E+02  0.13265628052E+02 -0.19044664754E+01  0.21152319041E+02  0.00000000000E+00 0.  1.
         13    1    3    3    0    0 -0.30187825176E+02 -0.77519877708E+02 -0.10667877073E+03  0.13528117516E+03  0.00000000000E+00 0. -1.
          2    1    1    2  501    0 -0.16869060627E+02  0.10865636233E+02  0.54239078563E+02  0.57831694602E+02  0.00000000000E+00 0. -1.
<scales pt_clust_5="13000.00000" pt_clust_6="13000.00000" pt_clust_7="13000.00000" pt_clust_8="13000.00000" pt_clust_9="20.06557"></scales>
<clustering>
<clus scale="   20.066">  1  9  2 -1</clus>
<clus scale="   82.582">  5  6 -1 -1</clus>
<clus scale="   91.441">  7  8 -1 -1</clus>
<clus scale="  103.961">  1  5  2 -1</clus>
<clus scale="   20.066">  1  5  2 -1</clus>
</clustering>
</event>
<event>
 9    1  0.4067873E-005  0.1030784E+03  0.7546771E-02  0.1278419E+00
         21   -1    0    0  501  502  0.00000000000E+00  0.00000000000E+00  0.20337535788E+03  0.20337535788E+03  0.00000000000E+00 0.  1.
          1   -1    0    0  502    0 -0.00000000000E+00 -0.00000000000E+00 -0.12114374129E+03  0.12114374129E+03  0.00000000000E+00 0. -1.
        -24    2    1    2    0    0 -0.31367113571E+02  0.31867267996E+02 -0.69768972380E+02  0.11624879481E+03  0.81527015178E+02 0.  0.
         23    2    1    2    0    0  0.42706388158E+02 -0.49288961502E+02  0.92847065025E+02  0.14557075136E+03  0.91197745866E+02 0.  0.
         11    1    3    3    0    0 -0.58031868217E+02  0.10901874500E+02 -0.43227041349E+02  0.73178724368E+02  0.00000000000E+00 0. -1.
        -12    1    3    3    0    0  0.26664754646E+02  0.20965393496E+02 -0.26541931031E+02  0.43070070439E+02  0.00000000000E+00 0.  1.
        -11    1    4    4    0    0 -0.10721242650E+02 -0.19666319758E+02  0.80089445961E+02  0.83162663084E+02  0.00000000000E+00 0.  1.
         11    1    4    4    0    0  0.53427630807E+02 -0.29622641743E+02  0.12757619063E+02  0.62408088271E+02  0.00000000000E+00 0. -1.
          2    1    1    2  501    0 -0.11339274587E+02  0.17421693506E+02  0.59153523943E+02  0.62699553010E+02  0.00000000000E+00 0. -1.
<scales pt_clust_5="13000.00000" pt_clust_6="13000.00000" pt_clust_7="13000.00000" pt_clust_8="13000.00000" pt_clust_9="20.78688"></scales>
<clustering>
<clus scale="   20.787">  1  9  2 -1</clus>
<clus scale="   81.527">  5  6 -1 -1</clus>
<clus scale="   91.198">  7  8 -1 -1</clus>
<clus scale="   94.630">  2  5  1 -1</clus>
<clus scale="   20.787">  1  5  2 -1</clus>
</clustering>
</event>
<event>
 9    1  0.4067873E-005  0.1024266E+03  0.7546771E-02  0.1284596E+00
         -2   -1    0    0    0  501 -0.00000000000E+00  0.00000000000E+00  0.12892605954E+03  0.12892605954E+03  0.00000000000E+00 0.  1.
         21   -1    0    0  501  502  0.00000000000E+00 -0.00000000000E+00 -0.10404268824E+03  0.10404268824E+03  0.00000000000E+00 0. -1.
        -24    2    1    2    0    0 -0.16834749113E+02  0.35771985711E+02  0.51606128251E+02  0.99566928512E+02  0.75414435229E+02 0.  0.
         23    2    1    2    0    0  0.40275933956E+02 -0.28063177356E+02 -0.23055464034E+02  0.10845459676E+03  0.93920989972E+02 0.  0.
         13    1    3    3    0    0 -0.11093482459E+02 -0.23159972696E+02  0.12110101057E+02  0.28391974851E+02  0.00000000000E+00 0. -1.
        -14    1    3    3    0    0 -0.57412666535E+01  0.58931958407E+02  0.39496027194E+02  0.71174953661E+02  0.00000000000E+00 0.  1.
        -11    1    4    4    0    0 -0.15323074287E+02 -0.23232642001E+02 -0.41245238021E+02  0.49756626889E+02  0.00000000000E+00 0.  1.
         11    1    4    4    0    0  0.55599008243E+02 -0.48305353547E+01  0.18189773987E+02  0.58697969872E+02  0.00000000000E+00 0. -1.
         -1    1    1    2    0  502 -0.23441184843E+02 -0.77088083548E+01 -0.36672929154E+01  0.24947222500E+02  0.00000000000E+00 0.  1.
<scales pt_clust_5="13000.00000" pt_clust_6="13000.00000" pt_clust_7="13000.00000" pt_clust_8="13000.00000" pt_clust_9="24.67620"></scales>
<clustering>
<clus scale="   24.676">  2  9  1 -1</clus>
<clus scale="   75.414">  5  6 -1 -1</clus>
<clus scale="   85.775">  1  5  2 -1</clus>
<clus scale="   93.921">  7  8 -1 -1</clus>
<clus scale="   24.676">  2  5  1 -1</clus>
</clustering>
</event>
<event>
 9    1  0.4067873E-005  0.9434474E+02  0.7546771E-02  0.1296202E+00
         -2   -1    0    0    0  501 -0.00000000000E+00  0.00000000000E+00  0.29360102898E+03  0.29360102898E+03  0.00000000000E+00 0.  1.
         21   -1    0    0  501  502  0.00000000000E+00 -0.00000000000E+00 -0.73660817735E+02  0.73660817735E+02  0.00000000000E+00 0.  1.
         23    2    1    2    0    0  0.45480009753E+02 -0.21945671247E+01  0.16952331259E+03  0.19566371078E+03  0.86445860484E+02 0.  0.
        -24    2    1    2    0    0 -0.22341316960E+02  0.26031719330E+02  0.86460745874E+02  0.12258009995E+03  0.79835051649E+02 0.  0.
         11    1    4    4    0    0 -0.50761382942E+02  0.61172704757E+01  0.41923102727E+02  0.66118723056E+02  0.00000000000E+00 0. -1.
        -12    1    4    4    0    0  0.28420065983E+02  0.19914448855E+02  0.44537643147E+02  0.56461376893E+02  0.00000000000E+00 0.  1.
        -13    1    3    3    0    0 -0.19342811242E+02 -0.18016408431E+02  0.78299619294E+02  0.82641186469E+02  0.00000000000E+00 0.  1.
         13    1    3    3    0    0  0.64822820995E+02  0.15821841307E+02  0.91223693293E+02  0.11302252431E+03  0.00000000000E+00 0. -1.
         -1    1    1    2    0  502 -0.23138692794E+02 -0.23837152206E+02 -0.36043847215E+02  0.49018035982E+02  0.00000000000E+00 0.  1.
<scales pt_clust_5="13000.00000" pt_clust_6="13000.00000" pt_clust_7="13000.00000" pt_clust_8="13000.00000" pt_clust_9="33.22061"></scales>
<clustering>
<clus scale="   33.221">  2  9  1 -1</clus>
<clus scale="   79.835">  5  6 -1 -1</clus>
<clus scale="   86.446">  7  8 -1 -1</clus>
<clus scale="   88.327">  2  5  1 -1</clus>
<clus scale="   33.221">  2  5  1 -1</clus>
</clustering>
</event>
<event>
 9    1  0.4067873E-005  0.2552180E+03  0.7546771E-02  0.1163228E+00
         -2   -1    0    0    0  501 -0.00000000000E+00  0.00000000000E+00  0.14174075325E+03  0.14174075325E+03  0.00000000000E+00 0.  1.
         21   -1    0    0  501  502  0.00000000000E+00 -0.00000000000E+00 -0.63400650138E+03  0.63400650138E+03  0.00000000000E+00 0.  1.
        -24    2    1    2    0    0  0.63409965115E+00  0.81004869033E+01 -0.46666202681E+01  0.70326755413E+02  0.69699750443E+02 0.  0.
         23    2    1    2    0    0 -0.21721379128E+03 -0.10446669724E+03 -0.16821474246E+03  0.30767737236E+03  0.90961771818E+02 0.  0.
         13    1    3    3    0    0  0.11924448061E+02  0.23578757883E+02  0.24101121043E+02  0.35763309696E+02  0.00000000000E+00 0. -1.
        -14    1    3    3    0    0 -0.11290348410E+02 -0.15478270980E+02 -0.28767741311E+02  0.34563445718E+02  0.00000000000E+00 0.  1.
        -13    1    4    4    0    0 -0.17227353097E+02 -0.45617409129E+02 -0.25367743777E+02  0.54965917938E+02  0.00000000000E+00 0. -1.
         13    1    4    4    0    0 -0.19998643818E+03 -0.58849288111E+02 -0.14284699868E+03  0.25271145443E+03  0.00000000000E+00 0.  1.
         -1    1    1    2    0  502  0.21657969162E+03  0.96366210336E+02 -0.31938438540E+03  0.39774312685E+03  0.00000000000E+00 0.  1.
<scales pt_clust_5="13000.00000" pt_clust_6="13000.00000" pt_clust_7="13000.00000" pt_clust_8="13000.00000" pt_clust_9="238.45795"></scales>
<clustering>
<clus scale="   69.700">  5  6 -1 -1</clus>
<clus scale="   70.172">  1  5  2 -1</clus>
<clus scale="   90.962">  7  8 -1 -1</clus>
<clus scale="  238.458">  2  9  1 -1</clus>
<clus scale="  238.458">  2  5  1 -1</clus>
</clustering>
</event>
<event>
 9    1  0.4067873E-005  0.1144678E+03  0.7546771E-02  0.1253590E+00
         -2   -1    0    0    0  501 -0.00000000000E+00  0.00000000000E+00  0.60565673405E+03  0.60565673405E+03  0.00000000000E+00 0.  1.
         21   -1    0    0  501  502  0.00000000000E+00 -0.00000000000E+00 -0.26921967179E+03  0.26921967179E+03  0.00000000000E+00 0.  1.
        -24    2    1    2    0    0  0.67934144345E+02  0.37211898618E+02  0.55873945262E+03  0.56967213999E+03  0.79604006218E+02 0.  0.
         23    2    1    2    0    0 -0.86402566570E+02 -0.79549146561E+02 -0.10190374975E+03  0.17624939839E+03  0.82981961849E+02 0.  0.
         13    1    3    3    0    0  0.25466577072E+02  0.26517927232E+02  0.70852913260E+02  0.79824071119E+02  0.00000000000E+00 0. -1.
        -14    1    3    3    0    0  0.42467567274E+02  0.10693971386E+02  0.48788653935E+03  0.48984806887E+03  0.00000000000E+00 0.  1.
        -11    1    4    4    0    0 -0.42522559120E+02 -0.64446747714E+02 -0.10431422043E+03  0.12978061453E+03  0.00000000000E+00 0. -1.
         11    1    4    4    0    0 -0.43880007450E+02 -0.15102398847E+02  0.24104706748E+01  0.46468783862E+02  0.00000000000E+00 0.  1.
         -1    1    1    2    0  502  0.18468422224E+02  0.42337247943E+02 -0.12039864060E+03  0.12895486746E+03  0.00000000000E+00 0.  1.
<scales pt_clust_5="13000.00000" pt_clust_6="13000.00000" pt_clust_7="13000.00000" pt_clust_8="13000.00000" pt_clust_9="46.19010"></scales>
<clustering>
<clus scale="   46.190">  2  9  1 -1</clus>
<clus scale="   79.604">  5  6 -1 -1</clus>
<clus scale="   82.982">  7  8 -1 -1</clus>
<clus scale="  112.043">  1  5  2 -1</clus>
<clus scale="   46.190">  2  5  1 -1</clus>
</clustering>
</event>
<event>
 9    1  0.4067873E-005  0.9221275E+02  0.7546771E-02  0.1303818E+00
          3   -1    0    0  502    0 -0.00000000000E+00  0.00000000000E+00  0.43194599846E+02  0.43194599846E+02  0.00000000000E+00 0. -1.
         21   -1    0    0  501  502  0.00000000000E+00 -0.00000000000E+00 -0.42853591188E+03  0.42853591188E+03  0.00000000000E+00 0. -1.
         23    2    1    2    0    0 -0.24235306872E+01  0.22196809178E+02 -0.67414286524E+02  0.11577921328E+03  0.91441611766E+02 0.  0.
        -24    2    1    2    0    0  0.20567020526E+02  0.15066230039E+02 -0.88744045897E+02  0.12305097972E+03  0.81339069997E+02 0.  0.
         11    1    4    4    0    0  0.38041578882E+02 -0.21582118860E+02 -0.37063818718E+02  0.57329540695E+02  0.00000000000E+00 0. -1.
        -12    1    4    4    0    0 -0.17474558356E+02  0.36648348899E+02 -0.51680227179E+02  0.65721439029E+02  0.00000000000E+00 0.  1.
        -13    1    3    3    0    0 -0.14215696219E+02  0.43106957044E+02 -0.77441255268E+02  0.89763265215E+02  0.00000000000E+00 0.  1.
         13    1    3    3    0    0  0.11792165532E+02 -0.20910147866E+02  0.10026968743E+02  0.26015948069E+02  0.00000000000E+00 0. -1.
          4    1    1    2  501    0 -0.18143489838E+02 -0.37263039217E+02 -0.22918297961E+03  0.23290031871E+03  0.00000000000E+00 0. -1.
<scales pt_clust_5="13000.00000" pt_clust_6="13000.00000" pt_clust_7="13000.00000" pt_clust_8="13000.00000" pt_clust_9="41.44539"></scales>
<clustering>
<clus scale="   41.445">  2  9  1 -1</clus>
<clus scale="   81.339">  5  6 -1 -1</clus>
<clus scale="   82.205">  2  5  1 -1</clus>
<clus scale="   91.442">  7  8 -1 -1</clus>
<clus scale="   41.445">  2  5  1 -1</clus>
</clustering>
</event>
<event>
 9    1  0.4067873E-005  0.9548137E+02  0.7546771E-02  0.1296423E+00
         -4   -1    0    0    0  501 -0.00000000000E+00  0.00000000000E+00  0.82330224302E+03  0.82330224302E+03  0.00000000000E+00 0.  1.
         21   -1    0    0  501  502  0.00000000000E+00 -0.00000000000E+00 -0.66115283444E+02  0.66115283444E+02  0.00000000000E+00 0. -1.
        -24    2    1    2    0    0  0.25835007922E+02  0.35675905301E+01  0.67368910692E+03  0.67893397784E+03  0.80088439478E+02 0.  0.
         23    2    1    2    0    0 -0.38071731789E+02 -0.22976123550E+02  0.12622490347E+03  0.16198582253E+03  0.91265116173E+02 0.  0.
         11    1    3    3    0    0 -0.65079580188E+01  0.34853175322E+02  0.20056226663E+03  0.20367208975E+03  0.00000000000E+00 0. -1.
        -12    1    3    3    0    0  0.32342965941E+02 -0.31285584792E+02  0.47312684029E+03  0.47526188809E+03  0.00000000000E+00 0.  1.
        -11    1    4    4    0    0  0.10300913738E+02 -0.19971632575E+02  0.10782981225E+03  0.11014646314E+03  0.00000000000E+00 0.  1.
         11    1    4    4    0    0 -0.48372645527E+02 -0.30044909742E+01  0.18395091217E+02  0.51839359392E+02  0.00000000000E+00 0. -1.
         -3    1    1    2    0  502  0.12236723867E+02  0.19408533019E+02 -0.42727050817E+02  0.48497726096E+02  0.00000000000E+00 0.  1.
<scales pt_clust_5="13000.00000" pt_clust_6="13000.00000" pt_clust_7="13000.00000" pt_clust_8="13000.00000" pt_clust_9="22.94403"></scales>
<clustering>
<clus scale="   22.944">  2  9  1 -1</clus>
<clus scale="   80.088">  5  6 -1 -1</clus>
<clus scale="   84.862">  1  5  2 -1</clus>
<clus scale="   91.265">  7  8 -1 -1</clus>
<clus scale="   22.944">  2  5  1 -1</clus>
</clustering>
</event>
<event>
 9    1  0.4067873E-005  0.9650225E+02  0.7546771E-02  0.1296788E+00
         21   -1    0    0  501  502  0.00000000000E+00  0.00000000000E+00  0.17358794380E+03  0.17358794380E+03  0.00000000000E+00 0.  1.
          1   -1    0    0  502    0 -0.00000000000E+00 -0.00000000000E+00 -0.11831523093E+03  0.11831523093E+03  0.00000000000E+00 0. -1.
        -24    2    1    2    0    0  0.39405531195E+01 -0.85371718273E+01 -0.64512098724E+02  0.10373024776E+03  0.80682973155E+02 0.  0.
         23    2    1    2    0    0 -0.13947604287E+01  0.36532494181E+02  0.12278254506E+03  0.15990270341E+03  0.95690922767E+02 0.  0.
         11    1    3    3    0    0  0.21999322669E+02 -0.65067807197E+01 -0.77868276156E+02  0.81177440368E+02  0.00000000000E+00 0. -1.
        -12    1    3    3    0    0 -0.18058769550E+02 -0.20303911076E+01  0.13356177432E+02  0.22552807393E+02  0.00000000000E+00 0.  1.
        -11    1    4    4    0    0  0.11544960784E+02  0.54693646842E+02  0.12555046066E+03  0.13743216252E+03  0.00000000000E+00 0.  1.
         11    1    4    4    0    0 -0.12939721213E+02 -0.18161152661E+02 -0.27679156009E+01  0.22470540889E+02  0.00000000000E+00 0. -1.
          2    1    1    2  501    0 -0.25457926908E+01 -0.27995322354E+02 -0.29977334566E+01  0.28270223558E+02  0.00000000000E+00 0. -1.
<scales pt_clust_5="13000.00000" pt_clust_6="13000.00000" pt_clust_7="13000.00000" pt_clust_8="13000.00000" pt_clust_9="28.11085"></scales>
<clustering>
<clus scale="   28.111">  1  9  2 -1</clus>
<clus scale="   80.683">  5  6 -1 -1</clus>
<clus scale="   81.644">  2  5  1 -1</clus>
<clus scale="   95.691">  7  8 -1 -1</clus>
<clus scale="   28.111">  1  5  2 -1</clus>
</clustering>
</event>
<event>
 9    1  0.4067873E-005  0.1293268E+03  0.7546771E-02  0.1246725E+00
          1   -1    0    0  502    0 -0.00000000000E+00  0.00000000000E+00  0.22228515425E+03  0.22228515425E+03  0.00000000000E+00 0. -1.
         21   -1    0    0  501  502  0.00000000000E+00 -0.00000000000E+00 -0.38510975985E+03  0.38510975985E+03  0.00000000000E+00 0. -1.
        -24    2    1    2    0    0  0.12103420422E+02 -0.32308974844E+02  0.11694812947E+03  0.14702744343E+03  0.82157418972E+02 0.  0.
         23    2    1    2    0    0 -0.29689574711E+02 -0.60237322410E+02  0.45443201389E+02  0.12178292394E+03  0.90862479346E+02 0.  0.
         13    1    3    3    0    0  0.26583469058E+02 -0.51598799567E+02  0.10530928799E+03  0.12024626016E+03  0.00000000000E+00 0. -1.
        -14    1    3    3    0    0 -0.14480048635E+02  0.19289824723E+02  0.11638841476E+02  0.26781183268E+02  0.00000000000E+00 0.  1.
        -13    1    4    4    0    0 -0.46598996578E+02 -0.17263461555E+02  0.55524019339E+02  0.74514497318E+02  0.00000000000E+00 0.  1.
         13    1    4    4    0    0  0.16909421867E+02 -0.42973860855E+02 -0.10080817949E+02  0.47268426621E+02  0.00000000000E+00 0. -1.
          2    1    1    2  501    0  0.17586154289E+02  0.92546297254E+02 -0.32521593646E+03  0.33858454673E+03  0.00000000000E+00 0. -1.
<scales pt_clust_5="13000.00000" pt_clust_6="13000.00000" pt_clust_7="13000.00000" pt_clust_8="13000.00000" pt_clust_9="92.02957"></scales>
<clustering>
<clus scale="   82.157">  5  6 -1 -1</clus>
<clus scale="   89.108">  1  5  2 -1</clus>
<clus scale="   90.862">  7  8 -1 -1</clus>
<clus scale="   92.030">  2  9  1 -1</clus>
<clus scale="   92.030">  2  5  1 -1</clus>
</clustering>
</event>
<event>
 9    1  0.4067873E-005  0.1608342E+03  0.7546771E-02  0.1208525E+00
         21   -1    0    0  501  502  0.00000000000E+00  0.00000000000E+00  0.32921020704E+03  0.32921020704E+03  0.00000000000E+00 0. -1.
         -4   -1    0    0    0  501 -0.00000000000E+00 -0.00000000000E+00 -0.27509712581E+03  0.27509712581E+03  0.00000000000E+00 0.  1.
        -24    2    1    2    0    0 -0.51135297427E+02 -0.36688524202E+02 -0.84227016503E+02  0.13250975147E+03  0.80646000988E+02 0.  0.
         23    2    1    2    0    0 -0.65592083004E+02 -0.10183419758E+03  0.22362601786E+03  0.27157891600E+03  0.95257475313E+02 0.  0.
         13    1    3    3    0    0 -0.30148164206E+02  0.22898632372E+02 -0.21762217467E+02  0.43667531171E+02  0.00000000000E+00 0. -1.
        -14    1    3    3    0    0 -0.20987133221E+02 -0.59587156575E+02 -0.62464799036E+02  0.88842220302E+02  0.00000000000E+00 0.  1.
        -11    1    4    4    0    0 -0.87975100779E+02 -0.92042082998E+02  0.16777163214E+03  0.21061501359E+03  0.00000000000E+00 0. -1.
         11    1    4    4    0    0  0.22383017775E+02 -0.97921145826E+01  0.55854385726E+02  0.60963902414E+02  0.00000000000E+00 0.  1.
         -3    1    1    2    0  502  0.11672738043E+03  0.13852272178E+03 -0.85285920123E+02  0.20021866537E+03  0.00000000000E+00 0.  1.
<scales pt_clust_5="13000.00000" pt_clust_6="13000.00000" pt_clust_7="13000.00000" pt_clust_8="13000.00000" pt_clust_9="129.59040"></scales>
<clustering>
<clus scale="   80.646">  5  6 -1 -1</clus>
<clus scale="   95.257">  7  8 -1 -1</clus>
<clus scale="  102.297">  2  5  1 -1</clus>
<clus scale="  129.590">  1  9  2 -1</clus>
<clus scale="  129.590">  1  5  2 -1</clus>
</clustering>
</event>
<event>
 9    1  0.4067873E-005  0.1314230E+03  0.7546771E-02  0.1241014E+00
          1   -1    0    0  502    0 -0.00000000000E+00  0.00000000000E+00  0.80588034377E+02  0.80588034377E+02  0.00000000000E+00 0. -1.
         21   -1    0    0  501  502  0.00000000000E+00 -0.00000000000E+00 -0.37819854832E+03  0.37819854832E+03  0.00000000000E+00 0. -1.
         23    2    1    2    0    0 -0.93196921966E+01  0.27208796512E+02 -0.90632115394E+02  0.13150326355E+03  0.90839158483E+02 0.  0.
        -24    2    1    2    0    0 -0.74646361013E+02  0.45316273427E+02 -0.36657032085E+02  0.12401120661E+03  0.80058712910E+02 0.  0.
         13    1    4    4    0    0 -0.31040729094E+02  0.21289522684E+02 -0.58564661236E+02  0.69617456033E+02  0.00000000000E+00 0. -1.
        -14    1    4    4    0    0 -0.43605631919E+02  0.24026750744E+02  0.21907629152E+02  0.54393750573E+02  0.00000000000E+00 0.  1.
        -11    1    3    3    0    0 -0.22806445574E+02  0.55456678581E+02 -0.76389634617E+02  0.97113096109E+02  0.00000000000E+00 0. -1.
         11    1    3    3    0    0  0.13486753378E+02 -0.28247882069E+02 -0.14242480777E+02  0.34390167443E+02  0.00000000000E+00 0.  1.
          2    1    1    2  501    0  0.83966053210E+02 -0.72525069939E+02 -0.17032136646E+03  0.20327211253E+03  0.00000000000E+00 0. -1.
<scales pt_clust_5="13000.00000" pt_clust_6="13000.00000" pt_clust_7="13000.00000" pt_clust_8="13000.00000" pt_clust_9="104.22386"></scales>
<clustering>
<clus scale="   80.059">  5  6 -1 -1</clus>
<clus scale="   90.839">  7  8 -1 -1</clus>
<clus scale="   95.283">  1  7  2 -1</clus>
<clus scale="  104.224">  2  9  1 -1</clus>
<clus scale="  104.224">  2  5  1 -1</clus>
</clustering>
</event>
<event>
 9    1  0.4067873E-005  0.1344292E+03  0.7546771E-02  0.1245826E+00
         21   -1    0    0  501  502  0.00000000000E+00  0.00000000000E+00  0.40291151911E+03  0.40291151911E+03  0.00000000000E+00 0.  1.
         -2   -1    0    0    0  501 -0.00000000000E+00 -0.00000000000E+00 -0.89678117778E+02  0.89678117778E+02  0.00000000000E+00 0.  1.
        -24    2    1    2    0    0 -0.87308874903E+00  0.17682707144E+01  0.75179224084E+02  0.11035719355E+03  0.80764505629E+02 0.  0.
         23    2    1    2    0    0  0.93879715168E+02  0.29049193007E+02  0.11146732221E+02  0.13507472600E+03  0.91998236022E+02 0.  0.
         13    1    3    3    0    0  0.13240462354E+02 -0.15970566160E+02 -0.94125397140E+01  0.22780797412E+02  0.00000000000E+00 0. -1.
        -14    1    3    3    0    0 -0.14113551103E+02  0.17738836875E+02  0.84591763798E+02  0.87576396140E+02  0.00000000000E+00 0.  1.
        -11    1    4    4    0    0  0.80368337720E+02 -0.17591727799E+02  0.22324550382E+02  0.85246255898E+02  0.00000000000E+00 0.  1.
         11    1    4    4    0    0  0.13511377448E+02  0.46640920806E+02 -0.11177818161E+02  0.49828470106E+02  0.00000000000E+00 0. -1.
         -1    1    1    2    0  502 -0.93006626419E+02 -0.30817463722E+02  0.22690744503E+03  0.24715771733E+03  0.00000000000E+00 0.  1.
<scales pt_clust_5="13000.00000" pt_clust_6="13000.00000" pt_clust_7="13000.00000" pt_clust_8="13000.00000" pt_clust_9="98.01800"></scales>
<clustering>
<clus scale="   80.765">  5  6 -1 -1</clus>
<clus scale="   80.789">  2  5  1 -1</clus>
<clus scale="   91.998">  7  8 -1 -1</clus>
<clus scale="   98.018">  1  9  2 -1</clus>
<clus scale="   98.018">  1  5  2 -1</clus>
</clustering>
</event>
<event>
 9    1  0.4067873E-005  0.9566127E+02  0.7546771E-02  0.1295299E+00
         21   -1    0    0  501  502  0.00000000000E+00  0.00000000000E+00  0.33064812382E+03  0.33064812382E+03  0.00000000000E+00 0. -1.
         -4   -1    0    0    0  501 -0.00000000000E+00 -0.00000000000E+00 -0.61479409194E+02  0.61479409194E+02  0.00000000000E+00 0.  1.
        -24    2    1    2    0    0 -0.17902923287E+02  0.20759665462E+02  0.16773325405E+01  0.86118560054E+02  0.81621777541E+02 0.  0.
         23    2    1    2    0    0  0.38578151682E+02  0.12956489546E+01  0.12177054500E+03  0.15718537159E+03  0.91592701237E+02 0.  0.
         11    1    3    3    0    0 -0.85292357430E+01  0.24740571563E+02  0.39258883554E+02  0.47181603211E+02  0.00000000000E+00 0. -1.
        -12    1    3    3    0    0 -0.93736875439E+01 -0.39809061005E+01 -0.37581551014E+02  0.38936956843E+02  0.00000000000E+00 0.  1.
        -13    1    4    4    0    0  0.12363452354E+02 -0.44204074800E+02  0.45878299551E+02  0.64897407904E+02  0.00000000000E+00 0.  1.
         13    1    4    4    0    0  0.26214699327E+02  0.45499723754E+02  0.75892245451E+02  0.92287963690E+02  0.00000000000E+00 0. -1.
         -3    1    1    2    0  502 -0.20675228395E+02 -0.22055314417E+02  0.14572083708E+03  0.14882360136E+03  0.00000000000E+00 0.  1.
<scales pt_clust_5="13000.00000" pt_clust_6="13000.00000" pt_clust_7="13000.00000" pt_clust_8="13000.00000" pt_clust_9="30.23081"></scales>
<clustering>
<clus scale="   30.231">  1  9  2 -1</clus>
<clus scale="   81.622">  5  6 -1 -1</clus>
<clus scale="   86.162">  2  5  1 -1</clus>
<clus scale="   91.593">  7  8 -1 -1</clus>
<clus scale="   30.231">  1  5  2 -1</clus>
</clustering>
</event>
<event>
 9    1  0.4067873E-005  0.1028937E+03  0.7546771E-02  0.1276205E+00
         21   -1    0    0  501  502  0.00000000000E+00  0.00000000000E+00  0.16048421741E+03  0.16048421741E+03  0.00000000000E+00 0. -1.
          1   -1    0    0  502    0 -0.00000000000E+00 -0.00000000000E+00 -0.13864007841E+03  0.13864007841E+03  0.00000000000E+00 0. -1.
         23    2    1    2    0    0 -0.16652305295E+02  0.59902375574E+02 -0.26894674239E+02  0.11220614685E+03  0.89449997305E+02 0.  0.
        -24    2    1    2    0    0  0.51634309533E+02 -0.15319366733E+02 -0.14657272093E+02  0.10188610246E+03  0.85235892273E+02 0.  0.
         13    1    4    4    0    0  0.19377732170E+02 -0.47216461068E+02 -0.22623868259E+02  0.55827682334E+02  0.00000000000E+00 0. -1.
        -14    1    4    4    0    0  0.32256577363E+02  0.31897094334E+02  0.79665961659E+01  0.46058420127E+02  0.00000000000E+00 0.  1.
        -11    1    3    3    0    0 -0.17970050034E+02 -0.10899175169E+02 -0.35107558587E+02  0.40917665958E+02  0.00000000000E+00 0.  1.
         11    1    3    3    0    0  0.13177447391E+01  0.70801550743E+02  0.82128843480E+01  0.71288480893E+02  0.00000000000E+00 0. -1.
          2    1    1    2  501    0 -0.34982004238E+02 -0.44583008840E+02  0.63396085336E+02  0.85032046510E+02  0.00000000000E+00 0. -1.
<scales pt_clust_5="13000.00000" pt_clust_6="13000.00000" pt_clust_7="13000.00000" pt_clust_8="13000.00000" pt_clust_9="56.66909"></scales>
<clustering>
<clus scale="   56.669">  1  9  2 -1</clus>
<clus scale="   85.236">  5  6 -1 -1</clus>
<clus scale="   89.450">  7  8 -1 -1</clus>
<clus scale="   99.252">  1  5  2 -1</clus>
<clus scale="   56.669">  1  5  2 -1</clus>
</clustering>
</event>
<event>
 9    1  0.4067873E-005  0.1613178E+03  0.7546771E-02  0.1187965E+00
          1   -1    0    0  502    0 -0.00000000000E+00  0.00000000000E+00  0.19494586259E+03  0.19494586259E+03  0.00000000000E+00 0. -1.
         21   -1    0    0  501  502  0.00000000000E+00 -0.00000000000E+00 -0.77066290185E+03  0.77066290185E+03  0.00000000000E+00 0.  1.
         23    2    1    2    0    0  0.13741720337E+03  0.90196376303E+01  0.14786392026E+03  0.22078162630E+03  0.88971601938E+02 0.  0.
        -24    2    1    2    0    0 -0.85995820451E+02 -0.22716168045E+02 -0.53961959195E+03  0.55332377439E+03  0.84063011298E+02 0.  0.
         13    1    4    4    0    0 -0.69220556637E+02 -0.26815704653E+01 -0.18178732396E+03  0.19453870421E+03  0.00000000000E+00 0. -1.
        -14    1    4    4    0    0 -0.16775263814E+02 -0.20034597579E+02 -0.35783226799E+03  0.35878507019E+03  0.00000000000E+00 0.  1.
        -11    1    3    3    0    0  0.10286711912E+03 -0.72469506451E+01  0.47767651467E+02  0.11364818968E+03  0.00000000000E+00 0.  1.
         11    1    3    3    0    0  0.34550084247E+02  0.16266588275E+02  0.10009626880E+03  0.10713343662E+03  0.00000000000E+00 0. -1.
          2    1    1    2  501    0 -0.51421382921E+02  0.13696530414E+02 -0.18396136757E+03  0.19150336374E+03  0.00000000000E+00 0. -1.
<scales pt_clust_5="13000.00000" pt_clust_6="13000.00000" pt_clust_7="13000.00000" pt_clust_8="13000.00000" pt_clust_9="53.21422"></scales>
<clustering>
<clus scale="   53.214">  2  9  1 -1</clus>
<clus scale="   84.063">  5  6 -1 -1</clus>
<clus scale="   88.972">  7  8 -1 -1</clus>
<clus scale="  158.663">  2  5  1 -1</clus>
<clus scale="   53.214">  2  5  1 -1</clus>
</clustering>
</event>
<event>
 9    1  0.4067873E-005  0.9310524E+02  0.7546771E-02  0.1302339E+00
         21   -1    0    0  501  502  0.00000000000E+00  0.00000000000E+00  0.11979150673E+03  0.11979150673E+03  0.00000000000E+00 0. -1.
         -2   -1    0    0    0  501 -0.00000000000E+00 -0.00000000000E+00 -0.16895694634E+03  0.16895694634E+03  0.00000000000E+00 0.  1.
        -24    2    1    2    0    0 -0.11044658192E+02 -0.26855719743E+02 -0.12745620568E+02  0.86861361118E+02  0.80865512143E+02 0.  0.
         23    2    1    2    0    0 -0.82966698221E+01 -0.15341895669E+02  0.48206472282E+02  0.10536592898E+03  0.92053824080E+02 0.  0.
         11    1    3    3    0    0 -0.30299100967E+02  0.17598770144E+02 -0.15550668941E+02  0.38335043165E+02  0.00000000000E+00 0. -1.
        -12    1    3    3    0    0  0.19254442775E+02 -0.44454489887E+02  0.28050483728E+01  0.48526317953E+02  0.00000000000E+00 0.  1.
        -11    1    4    4    0    0  0.34873024167E+02 -0.31335675661E+02  0.17574617432E+02  0.50069147802E+02  0.00000000000E+00 0.  1.
         11    1    4    4    0    0 -0.43169693989E+02  0.15993779992E+02  0.30631854850E+02  0.55296781182E+02  0.00000000000E+00 0. -1.
         -1    1    1    2    0  502  0.19341328014E+02  0.42197615412E+02 -0.84626291333E+02  0.96521162967E+02  0.00000000000E+00 0.  1.
<scales pt_clust_5="13000.00000" pt_clust_6="13000.00000" pt_clust_7="13000.00000" pt_clust_8="13000.00000" pt_clust_9="46.41905"></scales>
<clustering>
<clus scale="   46.419">  1  9  2 -1</clus>
<clus scale="   80.866">  5  6 -1 -1</clus>
<clus scale="   82.060">  2  5  1 -1</clus>
<clus scale="   92.054">  7  8 -1 -1</clus>
<clus scale="   46.419">  1  5  2 -1</clus>
</clustering>
</event>
<event>
 9    1  0.4067873E-005  0.2304139E+03  0.7546771E-02  0.1127863E+00
          1   -1    0    0  502    0 -0.00000000000E+00  0.00000000000E+00  0.10872195830E+04  0.10872195830E+04  0.00000000000E+00 0. -1.
         21   -1    0    0  501  502  0.00000000000E+00 -0.00000000000E+00 -0.22149344095E+03  0.22149344095E+03  0.00000000000E+00 0. -1.
        -24    2    1    2    0    0 -0.19522969809E+03 -0.96382187609E+02  0.94147957890E+03  0.96870171334E+03  0.67786804288E+02 0.  0.
         23    2    1    2    0    0  0.89449240125E+02  0.10753107577E+03 -0.13792251073E+03  0.21680905110E+03  0.91757543883E+02 0.  0.
         13    1    3    3    0    0 -0.13188278281E+03 -0.29978531503E+02  0.51531346072E+03  0.53276612463E+03  0.00000000000E+00 0. -1.
        -14    1    3    3    0    0 -0.63346915284E+02 -0.66403656106E+02  0.42616611818E+03  0.43593558871E+03  0.00000000000E+00 0.  1.
        -11    1    4    4    0    0  0.22044132336E+02 -0.11056010004E+02 -0.28200215071E+01  0.24821999294E+02  0.00000000000E+00 0.  1.
         11    1    4    4    0    0  0.67405107789E+02  0.11858708578E+03 -0.13510248922E+03  0.19198705181E+03  0.00000000000E+00 0. -1.
          2    1    1    2  501    0  0.10578045797E+03 -0.11148888162E+02  0.62169073846E+02  0.12320225947E+03  0.00000000000E+00 0. -1.
<scales pt_clust_5="13000.00000" pt_clust_6="13000.00000" pt_clust_7="13000.00000" pt_clust_8="13000.00000" pt_clust_9="106.36636"></scales>
<clustering>
<clus scale="   67.787">  5  6 -1 -1</clus>
<clus scale="   91.758">  7  8 -1 -1</clus>
<clus scale="  106.366">  2  9  1 -1</clus>
<clus scale="  221.960">  1  5  2 -1</clus>
<clus scale="  106.366">  2  5  1 -1</clus>
</clustering>
</event>
<event>
 9    1  0.4067873E-005  0.1306513E+03  0.7546771E-02  0.1229325E+00
         21   -1    0    0  501  502  0.00000000000E+00  0.00000000000E+00  0.12011449473E+03  0.12011449473E+03  0.00000000000E+00 0. -1.
          3   -1    0    0  502    0 -0.00000000000E+00 -0.00000000000E+00 -0.54316012456E+03  0.54316012456E+03  0.00000000000E+00 0. -1.
        -24    2    1    2    0    0  0.63149877592E+02 -0.79740587822E+02 -0.31165796862E+03  0.33751456608E+03  0.80242909491E+02 0.  0.
         23    2    1    2    0    0 -0.78067728972E+01  0.90253280038E+02 -0.18976998220E+03  0.22923459449E+03  0.91264740752E+02 0.  0.
         13    1    3    3    0    0 -0.65984539193E+01 -0.54621857453E+02 -0.11970786826E+03  0.13174619778E+03  0.00000000000E+00 0. -1.
        -14    1    3    3    0    0  0.69748331511E+02 -0.25118730369E+02 -0.19195010036E+03  0.20576836830E+03  0.00000000000E+00 0.  1.
        -11    1    4    4    0    0  0.41284156442E+02  0.35008968630E+02 -0.69818733097E+02  0.88344014788E+02  0.00000000000E+00 0. -1.
         11    1    4    4    0    0 -0.49090929339E+02  0.55244311409E+02 -0.11995124911E+03  0.14089057970E+03  0.00000000000E+00 0.  1.
          4    1    1    2  501    0 -0.55343104695E+02 -0.10512692216E+02  0.78382321005E+02  0.96525458719E+02  0.00000000000E+00 0. -1.
<scales pt_clust_5="13000.00000" pt_clust_6="13000.00000" pt_clust_7="13000.00000" pt_clust_8="13000.00000" pt_clust_9="56.33273"></scales>
<clustering>
<clus scale="   56.333">  1  9  2 -1</clus>
<clus scale="   80.243">  5  6 -1 -1</clus>
<clus scale="   91.265">  7  8 -1 -1</clus>
<clus scale="  123.205">  2  5  1 -1</clus>
<clus scale="   56.333">  1  5  2 -1</clus>
</clustering>
</event>
<event>
 9    1  0.4067873E-005  0.1102478E+03  0.7546771E-02  0.1263111E+00
         21   -1    0    0  501  502  0.00000000000E+00  0.00000000000E+00  0.39865526195E+02  0.39865526195E+02  0.00000000000E+00 0.  1.
         -2   -1    0    0    0  501 -0.00000000000E+00 -0.00000000000E+00 -0.54411908449E+03  0.54411908449E+03  0.00000000000E+00 0.  1.
        -24    2    1    2    0    0 -0.36676327718E+01  0.57348850792E+02 -0.33269693327E+03  0.34763548568E+03  0.82830183392E+02 0.  0.
         23    2    1    2    0    0 -0.27589120448E+02 -0.79679855340E+02 -0.13762184540E+03  0.18509263611E+03  0.90606140498E+02 0.  0.
         13    1    3    3    0    0 -0.32791472385E+02 -0.36923636646E+01 -0.11907552233E+03  0.12356332072E+03  0.00000000000E+00 0. -1.
        -14    1    3    3    0    0  0.29123839613E+02  0.61041214457E+02 -0.21362141094E+03  0.22407216495E+03  0.00000000000E+00 0.  1.
        -13    1    4    4    0    0 -0.38894894214E+02 -0.12718885383E+02 -0.98638287217E+02  0.10678995527E+03  0.00000000000E+00 0.  1.
         13    1    4    4    0    0  0.11305773766E+02 -0.66960969956E+02 -0.38983558184E+02  0.78302680839E+02  0.00000000000E+00 0. -1.
         -1    1    1    2    0  502  0.31256753220E+02  0.22331004548E+02 -0.33934779631E+02  0.51256488902E+02  0.00000000000E+00 0.  1.
<scales pt_clust_5="13000.00000" pt_clust_6="13000.00000" pt_clust_7="13000.00000" pt_clust_8="13000.00000" pt_clust_9="38.41430"></scales>
<clustering>
<clus scale="   38.414">  1  9  2 -1</clus>
<clus scale="   82.830">  5  6 -1 -1</clus>
<clus scale="   90.606">  7  8 -1 -1</clus>
<clus scale="  103.952">  2  5  1 -1</clus>
<clus scale="   38.414">  1  5  2 -1</clus>
</clustering>
</event>
<event>
 9    1  0.4067873E-005  0.9977453E+02  0.7546771E-02  0.1289943E+00
         21   -1    0    0  501  502  0.00000000000E+00  0.00000000000E+00  0.18275694859E+03  0.18275694859E+03  0.00000000000E+00 0. -1.
          1   -1    0    0  502    0 -0.00000000000E+00 -0.00000000000E+00 -0.12200703965E+03  0.12200703965E+03  0.00000000000E+00 0. -1.
         23    2    1    2    0    0  0.34955989283E+02 -0.14280240115E+02 -0.25189211328E+02  0.10249461875E+03  0.91895615023E+02 0.  0.
        -24    2    1    2    0    0 -0.40917363121E+02 -0.30736979439E+02 -0.15060575317E+02  0.91530819101E+02  0.74377936289E+02 0.  0.
         13    1    4    4    0    0  0.18917379079E+02 -0.10460216418E+02  0.96761581565E+01  0.23683568046E+02  0.00000000000E+00 0. -1.
        -14    1    4    4    0    0 -0.59834742200E+02 -0.20276763021E+02 -0.24736733473E+02  0.67847251055E+02  0.00000000000E+00 0.  1.
        -11    1    3    3    0    0  0.33117321939E+02 -0.50574689423E+02 -0.26779568977E+02  0.66118844040E+02  0.00000000000E+00 0. -1.
         11    1    3    3    0    0  0.18386673446E+01  0.36294449308E+02  0.15903576485E+01  0.36375774708E+02  0.00000000000E+00 0.  1.
          2    1    1    2  501    0  0.59613738383E+01  0.45017219554E+02  0.10099969558E+03  0.11073855039E+03  0.00000000000E+00 0. -1.
<scales pt_clust_5="13000.00000" pt_clust_6="13000.00000" pt_clust_7="13000.00000" pt_clust_8="13000.00000" pt_clust_9="45.41022"></scales>
<clustering>
<clus scale="   45.410">  1  9  2 -1</clus>
<clus scale="   74.378">  5  6 -1 -1</clus>
<clus scale="   83.918">  1  5  2 -1</clus>
<clus scale="   91.896">  7  8 -1 -1</clus>
<clus scale="   45.410">  1  5  2 -1</clus>
</clustering>
</event>
<event>
 9    1  0.5371797E-005  0.9329170E+02  0.7546771E-02  0.1301714E+00
         21   -1    0    0  501  502  0.00000000000E+00  0.00000000000E+00  0.46943847671E+02  0.46943847671E+02  0.00000000000E+00 0.  1.
          1   -1    0    0  502    0 -0.00000000000E+00 -0.00000000000E+00 -0.45506080499E+03  0.45506080499E+03  0.00000000000E+00 0. -1.
         23    2    1    2    0    0  0.21569475235E+02  0.18188986180E+00 -0.35179936610E+03  0.36421943032E+03  0.91802636616E+02 0.  0.
        -24    2    1    2    0    0  0.11447460529E+02  0.82870120675E+01 -0.13656276632E+02  0.83179104465E+02  0.80824195675E+02 0.  0.
         13    1    4    4    0    0  0.23472976690E+02  0.40962542998E+02 -0.69308493208E+01  0.47717368283E+02  0.00000000000E+00 0. -1.
        -14    1    4    4    0    0 -0.12025516162E+02 -0.32675530930E+02 -0.67254273107E+01  0.35461736182E+02  0.00000000000E+00 0.  1.
        -11    1    3    3    0    0 -0.24623600504E+02  0.18306139184E+02 -0.52290300959E+02  0.60627650523E+02  0.00000000000E+00 0.  1.
         11    1    3    3    0    0  0.46193075738E+02 -0.18124249322E+02 -0.29950906514E+03  0.30359177980E+03  0.00000000000E+00 0. -1.
          2    1    1    2  501    0 -0.33016935763E+02 -0.84689019293E+01 -0.42661314593E+02  0.54606117880E+02  0.00000000000E+00 0. -1.
<scales pt_clust_5="13000.00000" pt_clust_6="13000.00000" pt_clust_7="13000.00000" pt_clust_8="13000.00000" pt_clust_9="34.08578"></scales>
<clustering>
<clus scale="   34.086">  1  9  2 -1</clus>
<clus scale="   80.824">  5  6 -1 -1</clus>
<clus scale="   82.512">  1  5  2 -1</clus>
<clus scale="   91.803">  7  8 -1 -1</clus>
<clus scale="   34.086">  1  5  2 -1</clus>
</clustering>
</event>
<event>
 9    1  0.4067873E-005  0.9899060E+02  0.7546771E-02  0.1283919E+00
         -2   -1    0    0    0  501 -0.00000000000E+00  0.00000000000E+00  0.14758093100E+03  0.14758093100E+03  0.00000000000E+00 0.  1.
         21   -1    0    0  501  502  0.00000000000E+00 -0.00000000000E+00 -0.27105780215E+03  0.27105780215E+03  0.00000000000E+00 0. -1.
         23    2    1    2    0    0  0.54143269795E+02 -0.28474765673E+01  0.58279111927E+02  0.11560163394E+03  0.83831265626E+02 0.  0.
        -24    2    1    2    0    0 -0.36676943906E+02 -0.88285838674E+02 -0.16771668650E+03  0.20918905429E+03  0.80570379050E+02 0.  0.
         11    1    4    4    0    0 -0.55776760433E+00 -0.88882171316E+02 -0.12078995138E+03  0.14996854283E+03  0.00000000000E+00 0. -1.
        -12    1    4    4    0    0 -0.36119176302E+02  0.59633264290E+00 -0.46926735115E+02  0.59220511463E+02  0.00000000000E+00 0.  1.
        -11    1    3    3    0    0  0.45396110364E+02 -0.38554544292E+02  0.50358700330E+02  0.77995246142E+02  0.00000000000E+00 0.  1.
         11    1    3    3    0    0  0.87471594309E+01  0.35707067725E+02  0.79204115971E+01  0.37606387802E+02  0.00000000000E+00 0. -1.
         -1    1    1    2    0  502 -0.17466325889E+02  0.91133315241E+02 -0.14039296571E+02  0.93848044919E+02  0.00000000000E+00 0.  1.
<scales pt_clust_5="13000.00000" pt_clust_6="13000.00000" pt_clust_7="13000.00000" pt_clust_8="13000.00000" pt_clust_9="92.79204"></scales>
<clustering>
<clus scale="   80.570">  5  6 -1 -1</clus>
<clus scale="   83.831">  7  8 -1 -1</clus>
<clus scale="   92.792">  2  9  1 -1</clus>
<clus scale="   96.245">  2  5  1 -1</clus>
<clus scale="   92.792">  2  5  1 -1</clus>
</clustering>
</event>
<event>
 9    1  0.4067873E-005  0.9706394E+02  0.7546771E-02  0.1291133E+00
         -4   -1    0    0    0  501 -0.00000000000E+00  0.00000000000E+00  0.41699108978E+03  0.41699108978E+03  0.00000000000E+00 0.  1.
         21   -1    0    0  501  502  0.00000000000E+00 -0.00000000000E+00 -0.11790457872E+03  0.11790457872E+03  0.00000000000E+00 0.  1.
        -24    2    1    2    0    0  0.20682863948E+02 -0.33323298613E+02  0.28768654883E+03  0.30206175151E+03  0.83303830977E+02 0.  0.
         23    2    1    2    0    0 -0.20318780656E+02  0.49470074319E+00  0.10067835694E+03  0.13771041223E+03  0.91732919416E+02 0.  0.
         11    1    3    3    0    0 -0.22874447122E+02 -0.36388380087E+02  0.91745400132E+02  0.10131422892E+03  0.00000000000E+00 0. -1.
        -12    1    3    3    0    0  0.43557311070E+02  0.30650814739E+01  0.19594114870E+03  0.20074752259E+03  0.00000000000E+00 0.  1.
        -13    1    4    4    0    0 -0.15396473727E+02 -0.22335263419E+02  0.10945085502E+03  0.11276260488E+03  0.00000000000E+00 0.  1.
         13    1    4    4    0    0 -0.49223069290E+01  0.22829964162E+02 -0.87724980770E+01  0.24947807352E+02  0.00000000000E+00 0. -1.
         -3    1    1    2    0  502 -0.36408329259E+00  0.32828597870E+02 -0.89278394713E+02  0.95123504757E+02  0.00000000000E+00 0.  1.
<scales pt_clust_5="13000.00000" pt_clust_6="13000.00000" pt_clust_7="13000.00000" pt_clust_8="13000.00000" pt_clust_9="32.83062"></scales>
<clustering>
<clus scale="   32.831">  2  9  1 -1</clus>
<clus scale="   83.304">  5  6 -1 -1</clus>
<clus scale="   89.140">  1  5  2 -1</clus>
<clus scale="   91.733">  7  8 -1 -1</clus>
<clus scale="   32.831">  2  5  1 -1</clus>
</clustering>
</event>
<event>
 9    1  0.4067873E-005  0.1034993E+03  0.7546771E-02  0.1278772E+00
         21   -1    0    0  501  502  0.00000000000E+00  0.00000000000E+00  0.12793115161E+03  0.12793115161E+03  0.00000000000E+00 0.  1.
         -4   -1    0    0    0  501 -0.00000000000E+00 -0.00000000000E+00 -0.13871369671E+03  0.13871369671E+03  0.00000000000E+00 0.  1.
         23    2    1    2    0    0  0.17358326793E+02  0.34086469992E+02  0.23358000740E+01  0.99340656970E+02  0.91651029561E+02 0.  0.
        -24    2    1    2    0    0 -0.24483338554E+02 -0.57555240530E+02  0.40055307795E+02  0.10874664400E+03  0.79431513384E+02 0.  0.
         11    1    4    4    0    0 -0.52044024151E+02 -0.28407009703E+02  0.14030964847E+02  0.60929521782E+02  0.00000000000E+00 0. -1.
        -12    1    4    4    0    0  0.27560685596E+02 -0.29148230827E+02  0.26024342948E+02  0.47817122213E+02  0.00000000000E+00 0.  1.
        -13    1    3    3    0    0  0.37356052727E+02  0.44230689139E+02 -0.25782219563E+02  0.63376268292E+02  0.00000000000E+00 0. -1.
         13    1    3    3    0    0 -0.19997725935E+02 -0.10144219147E+02  0.28118019637E+02  0.35964388678E+02  0.00000000000E+00 0.  1.
         -3    1    1    2    0  502  0.71250117615E+01  0.23468770538E+02 -0.53173652962E+02  0.58557547357E+02  0.00000000000E+00 0.  1.
<scales pt_clust_5="13000.00000" pt_clust_6="13000.00000" pt_clust_7="13000.00000" pt_clust_8="13000.00000" pt_clust_9="24.52651"></scales>
<clustering>
<clus scale="   24.527">  1  9  2 -1</clus>
<clus scale="   79.432">  5  6 -1 -1</clus>
<clus scale="   91.651">  7  8 -1 -1</clus>
<clus scale="   92.852">  1  5  2 -1</clus>
<clus scale="   24.527">  1  5  2 -1</clus>
</clustering>
</event>
<event>
 9    1  0.4067873E-005  0.2352205E+03  0.7546771E-02  0.1160678E+00
          1   -1    0    0  502    0 -0.00000000000E+00  0.00000000000E+00  0.14066812980E+04  0.14066812980E+04  0.00000000000E+00 0. -1.
         21   -1    0    0  501  502  0.00000000000E+00 -0.00000000000E+00 -0.16641396747E+03  0.16641396747E+03  0.00000000000E+00 0. -1.
        -24    2    1    2    0    0  0.17973875676E+02 -0.44241442564E+02  0.43922543475E+03  0.44940208901E+03  0.82236790008E+02 0.  0.
         23    2    1    2    0    0 -0.23230061000E+03  0.73283701102E+02  0.86115509375E+03  0.89920932759E+03  0.87494257381E+02 0.  0.
         11    1    3    3    0    0  0.51473219822E+01 -0.67890836197E+02  0.30502572235E+03  0.31253216132E+03  0.00000000000E+00 0. -1.
        -12    1    3    3    0    0  0.12826553694E+02  0.23649393633E+02  0.13419971240E+03  0.13686992770E+03  0.00000000000E+00 0.  1.
        -11    1    4    4    0    0 -0.42204852865E+02 -0.20244663895E+02  0.16816917793E+03  0.17456221936E+03  0.00000000000E+00 0.  1.
         11    1    4    4    0    0 -0.19009575714E+03  0.93528364997E+02  0.69298591582E+03  0.72464710823E+03  0.00000000000E+00 0. -1.
          2    1    1    2  501    0  0.21432673433E+03 -0.29042258538E+02 -0.60113197975E+02  0.22448384886E+03  0.00000000000E+00 0. -1.
<scales pt_clust_5="13000.00000" pt_clust_6="13000.00000" pt_clust_7="13000.00000" pt_clust_8="13000.00000" pt_clust_9="218.34250"></scales>
<clustering>
<clus scale="   82.237">  5  6 -1 -1</clus>
<clus scale="   87.494">  7  8 -1 -1</clus>
<clus scale="   95.096">  1  5  2 -1</clus>
<clus scale="  218.343">  2  9  1 -1</clus>
<clus scale="  218.343">  2  5  1 -1</clus>
</clustering>
</event>
<event>
 9    1  0.9031714E-005  0.9472687E+02  0.7546771E-02  0.1296235E+00
         -2   -1    0    0    0  501 -0.00000000000E+00  0.00000000000E+00  0.37621086711E+03  0.37621086711E+03  0.00000000000E+00 0.  1.
         21   -1    0    0  501  502  0.00000000000E+00 -0.00000000000E+00 -0.13849252389E+03  0.13849252389E+03  0.00000000000E+00 0.  1.
         23    2    1    2    0    0  0.33015600338E+02 -0.64866339369E+01  0.30938648634E+03  0.32417547193E+03  0.90761403614E+02 0.  0.
        -24    2    1    2    0    0  0.79718260735E+00 -0.25390092735E+02  0.18906182018E+02  0.88728418233E+02  0.82885440063E+02 0.  0.
         13    1    4    4    0    0 -0.29663201757E+02  0.16033710933E+02 -0.62844751285E+00  0.33725070363E+02  0.00000000000E+00 0. -1.
        -14    1    4    4    0    0  0.30460384364E+02 -0.41423803668E+02  0.19534629531E+02  0.55003347870E+02  0.00000000000E+00 0.  1.
        -13    1    3    3    0    0  0.48481576864E+02  0.19448292574E+02  0.26742143179E+03  0.27247554305E+03  0.00000000000E+00 0.  1.
         13    1    3    3    0    0 -0.15465976526E+02 -0.25934926511E+02  0.41965054557E+02  0.51699928888E+02  0.00000000000E+00 0. -1.
         -1    1    1    2    0  502 -0.33812782946E+02  0.31876726672E+02 -0.90574325142E+02  0.10179950083E+03  0.00000000000E+00 0.  1.
<scales pt_clust_5="13000.00000" pt_clust_6="13000.00000" pt_clust_7="13000.00000" pt_clust_8="13000.00000" pt_clust_9="46.46967"></scales>
<clustering>
<clus scale="   46.470">  2  9  1 -1</clus>
<clus scale="   82.885">  5  6 -1 -1</clus>
<clus scale="   87.210">  2  5  1 -1</clus>
<clus scale="   90.761">  7  8 -1 -1</clus>
<clus scale="   46.470">  2  5  1 -1</clus>
</clustering>
</event>
<event>
 9    1  0.4067873E-005  0.1672084E+03  0.7546771E-02  0.1182326E+00
          3   -1    0    0  502    0 -0.00000000000E+00  0.00000000000E+00  0.36131854881E+03  0.36131854881E+03  0.00000000000E+00 0. -1.
         21   -1    0    0  501  502  0.00000000000E+00 -0.00000000000E+00 -0.11003417537E+03  0.11003417537E+03  0.00000000000E+00 0. -1.
         23    2    1    2    0    0 -0.10033550371E+03  0.83807799823E+02  0.75052289980E+02  0.17621959961E+03  0.91266316019E+02 0.  0.
        -24    2    1    2    0    0  0.14419831180E+03 -0.53439528472E+02  0.94719069317E+02  0.19771367419E+03  0.80436674113E+02 0.  0.
         11    1    4    4    0    0  0.14860079395E+03 -0.63272598952E+02  0.94097047743E+02  0.18692210178E+03  0.00000000000E+00 0. -1.
        -12    1    4    4    0    0 -0.44024821567E+01  0.98330704803E+01  0.62202157416E+00  0.10791572409E+02  0.00000000000E+00 0.  1.
        -13    1    3    3    0    0 -0.80463925770E+02  0.97985096365E+02  0.38946235358E+02  0.13263608750E+03  0.00000000000E+00 0. -1.
         13    1    3    3    0    0 -0.19871577939E+02 -0.14177296542E+02  0.36106054622E+02  0.43583512105E+02  0.00000000000E+00 0.  1.
          4    1    1    2  501    0 -0.43862808087E+02 -0.30368271351E+02  0.81513014135E+02  0.97419450376E+02  0.00000000000E+00 0. -1.
<scales pt_clust_5="13000.00000" pt_clust_6="13000.00000" pt_clust_7="13000.00000" pt_clust_8="13000.00000" pt_clust_9="53.34961"></scales>
<clustering>
<clus scale="   53.350">  2  9  1 -1</clus>
<clus scale="   80.437">  5  6 -1 -1</clus>
<clus scale="   91.266">  7  8 -1 -1</clus>
<clus scale="  161.552">  2  5  1 -1</clus>
<clus scale="   53.350">  2  5  1 -1</clus>
</clustering>
</event>
<event>
 9    1  0.4067873E-005  0.1270559E+03  0.7546771E-02  0.1244047E+00
         21   -1    0    0  501  502  0.00000000000E+00  0.00000000000E+00  0.10817074072E+03  0.10817074072E+03  0.00000000000E+00 0.  1.
         -2   -1    0    0    0  501 -0.00000000000E+00 -0.00000000000E+00 -0.26384475593E+03  0.26384475593E+03  0.00000000000E+00 0.  1.
        -24    2    1    2    0    0  0.36572445930E+02  0.44179676495E+02 -0.58233184893E+02  0.11500864189E+03  0.80910421267E+02 0.  0.
         23    2    1    2    0    0  0.66778200030E+02  0.13100491082E+02 -0.22938018896E+02  0.11731776239E+03  0.92770435999E+02 0.  0.
         11    1    3    3    0    0  0.30090986991E+02 -0.10520050750E+02  0.37388127869E+01  0.32095446514E+02  0.00000000000E+00 0. -1.
        -12    1    3    3    0    0  0.64814589393E+01  0.54699727245E+02 -0.61971997680E+02  0.82913195374E+02  0.00000000000E+00 0.  1.
        -13    1    4    4    0    0  0.79699212590E+02  0.28826748615E+02  0.24383715831E+01  0.84787331478E+02  0.00000000000E+00 0.  1.
         13    1    4    4    0    0 -0.12921012560E+02 -0.15726257533E+02 -0.25376390479E+02  0.32530430912E+02  0.00000000000E+00 0. -1.
         -1    1    1    2    0  502 -0.10335064596E+03 -0.57280167577E+02 -0.74502811415E+02  0.13968909237E+03  0.00000000000E+00 0.  1.
<scales pt_clust_5="13000.00000" pt_clust_6="13000.00000" pt_clust_7="13000.00000" pt_clust_8="13000.00000" pt_clust_9="86.81509"></scales>
<clustering>
<clus scale="   80.910">  5  6 -1 -1</clus>
<clus scale="   92.770">  7  8 -1 -1</clus>
<clus scale="   99.176">  2  5  1 -1</clus>
<clus scale="   86.815">  1  9  2 -1</clus>
<clus scale="   86.815">  1  5  2 -1</clus>
</clustering>
</event>
<event>
 9    1  0.4067873E-005  0.2927047E+03  0.7546771E-02  0.1088945E+00
          3   -1    0    0  502    0 -0.00000000000E+00  0.00000000000E+00  0.14927724497E+04  0.14927724497E+04  0.00000000000E+00 0. -1.
         21   -1    0    0  501  502  0.00000000000E+00 -0.00000000000E+00 -0.48206411270E+02  0.48206411270E+02  0.00000000000E+00 0. -1.
        -24    2    1    2    0    0 -0.14474894202E+02 -0.10798654203E+03  0.56689040001E+03  0.58286996922E+03  0.80635349400E+02 0.  0.
         23    2    1    2    0    0  0.53416818083E+01 -0.12049487872E+03  0.41964137815E+03  0.44616889647E+03  0.91761912347E+02 0.  0.
         11    1    3    3    0    0  0.67395287662E+01 -0.96024692792E+02  0.52996459925E+03  0.53863590609E+03  0.00000000000E+00 0. -1.
        -12    1    3    3    0    0 -0.21214422968E+02 -0.11961849236E+02  0.36925800764E+02  0.44234063131E+02  0.00000000000E+00 0.  1.
        -13    1    4    4    0    0  0.33283227875E+02 -0.90928227596E+02  0.19324434322E+03  0.21614599699E+03  0.00000000000E+00 0. -1.
         13    1    4    4    0    0 -0.27941546067E+02 -0.29566651121E+02  0.22639703493E+03  0.23002289947E+03  0.00000000000E+00 0.  1.
          4    1    1    2  501    0  0.91332123932E+01  0.22848142074E+03  0.45803426030E+03  0.51193999532E+03  0.00000000000E+00 0. -1.
<scales pt_clust_5="13000.00000" pt_clust_6="13000.00000" pt_clust_7="13000.00000" pt_clust_8="13000.00000" pt_clust_9="228.66389"></scales>
<clustering>
<clus scale="   80.635">  5  6 -1 -1</clus>
<clus scale="   91.762">  7  8 -1 -1</clus>
<clus scale="  107.825">  5  7 -1 -1</clus>
<clus scale="  228.664">  2  9  1 -1</clus>
<clus scale="  228.664">  2  5  1 -1</clus>
</clustering>
</event>
<event>
 9    1  0.4067873E-005  0.1175420E+03  0.7546771E-02  0.1251160E+00
          3   -1    0    0  502    0 -0.00000000000E+00  0.00000000000E+00  0.36583039865E+03  0.36583039865E+03  0.00000000000E+00 0. -1.
         21   -1    0    0  501  502  0.00000000000E+00 -0.00000000000E+00 -0.10294960522E+03  0.10294960522E+03  0.00000000000E+00 0. -1.
        -24    2    1    2    0    0  0.48076904646E+02 -0.46333852856E+02  0.13479792262E+03  0.16998973468E+03  0.79169534999E+02 0.  0.
         23    2    1    2    0    0 -0.28753014509E+02  0.81951296561E+02  0.18814308657E+03  0.22633859879E+03  0.91041690598E+02 0.  0.
         11    1    3    3    0    0  0.24514409317E+02  0.18337178547E+02  0.65586401183E+02  0.72379447369E+02  0.00000000000E+00 0. -1.
        -12    1    3    3    0    0  0.23562495328E+02 -0.64671031403E+02  0.69211521442E+02  0.97610287312E+02  0.00000000000E+00 0.  1.
        -11    1    4    4    0    0  0.22029554944E+02  0.18455889057E+02  0.10955102271E+03  0.11325788144E+03  0.00000000000E+00 0. -1.
         11    1    4    4    0    0 -0.50782569453E+02  0.63495407504E+02  0.78592063862E+02  0.11308071735E+03  0.00000000000E+00 0.  1.
          4    1    1    2  501    0 -0.19323890137E+02 -0.35617443705E+02 -0.60060215765E+02  0.72451670400E+02  0.00000000000E+00 0. -1.
<scales pt_clust_5="13000.00000" pt_clust_6="13000.00000" pt_clust_7="13000.00000" pt_clust_8="13000.00000" pt_clust_9="40.52178"></scales>
<clustering>
<clus scale="   40.522">  2  9  1 -1</clus>
<clus scale="   79.170">  5  6 -1 -1</clus>
<clus scale="   91.042">  7  8 -1 -1</clus>
<clus scale="  108.606">  1  5  2 -1</clus>
<clus scale="   40.522">  2  5  1 -1</clus>
</clustering>
</event>
<event>
 9    1  0.4067873E-005  0.1242477E+03  0.7546771E-02  0.1240164E+00
          1   -1    0    0  502    0 -0.00000000000E+00  0.00000000000E+00  0.85892141994E+03  0.85892141994E+03  0.00000000000E+00 0. -1.
         21   -1    0    0  501  502  0.00000000000E+00 -0.00000000000E+00 -0.38841860929E+02  0.38841860929E+02  0.00000000000E+00 0. -1.
        -24    2    1    2    0    0  0.67895987784E+02  0.20926278880E+02  0.32034827962E+03  0.33754921570E+03  0.79174986332E+02 0.  0.
         23    2    1    2    0    0 -0.12268019615E+03  0.46080047198E+02  0.26162100609E+03  0.30686122924E+03  0.92436258606E+02 0.  0.
         11    1    3    3    0    0  0.73918574695E+02 -0.63091651441E+01  0.18430526492E+03  0.19867609803E+03  0.00000000000E+00 0. -1.
        -12    1    3    3    0    0 -0.60225869115E+01  0.27235444024E+02  0.13604301470E+03  0.13887311767E+03  0.00000000000E+00 0.  1.
        -13    1    4    4    0    0 -0.60710355132E+01  0.23851047509E+02  0.64709422900E+01  0.25448045772E+02  0.00000000000E+00 0. -1.
         13    1    4    4    0    0 -0.11660916064E+03  0.22228999689E+02  0.25515006380E+03  0.28141318347E+03  0.00000000000E+00 0.  1.
          2    1    1    2  501    0  0.54784208368E+02 -0.67006326078E+02  0.23811027330E+03  0.25335283593E+03  0.00000000000E+00 0. -1.
<scales pt_clust_5="13000.00000" pt_clust_6="13000.00000" pt_clust_7="13000.00000" pt_clust_8="13000.00000" pt_clust_9="86.55151"></scales>
<clustering>
<clus scale="   79.175">  5  6 -1 -1</clus>
<clus scale="   86.552">  2  9  1 -1</clus>
<clus scale="   92.436">  7  8 -1 -1</clus>
<clus scale="  114.725">  1  5  2 -1</clus>
<clus scale="   86.552">  2  5  1 -1</clus>
</clustering>
</event>
<event>
 9    1  0.4067873E-005  0.1076564E+03  0.7546771E-02  0.1269667E+00
         21   -1    0    0  501  502  0.00000000000E+00  0.00000000000E+00  0.64963477632E+02  0.64963477632E+02  0.00000000000E+00 0.  1.
         -2   -1    0    0    0  501 -0.00000000000E+00 -0.00000000000E+00 -0.49656208647E+03  0.49656208647E+03  0.00000000000E+00 0.  1.
         23    2    1    2    0    0  0.51306197073E+02  0.21837510355E+02 -0.32737901632E+03  0.34430178664E+03  0.90870772212E+02 0.  0.
        -24    2    1    2    0    0 -0.31809645292E+02 -0.83275291125E+02 -0.39359211866E+02  0.12578207245E+03  0.79532097577E+02 0.  0.
         13    1    4    4    0    0 -0.46267283413E+02 -0.22847722401E+02 -0.37198665327E+02  0.63611481947E+02  0.00000000000E+00 0. -1.
        -14    1    4    4    0    0  0.14457638121E+02 -0.60427568724E+02 -0.21605465390E+01  0.62170590501E+02  0.00000000000E+00 0.  1.
        -13    1    3    3    0    0 -0.13284303486E+02 -0.23843672124E+02 -0.93685388900E+02  0.97580456613E+02  0.00000000000E+00 0. -1.
         13    1    3    3    0    0  0.64590500558E+02  0.45681182479E+02 -0.23369362742E+03  0.24672133003E+03  0.00000000000E+00 0.  1.
         -1    1    1    2    0  502 -0.19496551781E+02  0.61437780770E+02 -0.64860380659E+02  0.91441705018E+02  0.00000000000E+00 0.  1.
<scales pt_clust_5="13000.00000" pt_clust_6="13000.00000" pt_clust_7="13000.00000" pt_clust_8="13000.00000" pt_clust_9="64.45709"></scales>
<clustering>
<clus scale="   64.457">  1  9  2 -1</clus>
<clus scale="   79.532">  5  6 -1 -1</clus>
<clus scale="   90.871">  7  8 -1 -1</clus>
<clus scale="   98.274">  1  5  2 -1</clus>
<clus scale="   64.457">  1  5  2 -1</clus>
</clustering>
</event>
<event>
 9    1  0.4067873E-005  0.1007894E+03  0.7546771E-02  0.1284248E+00
         21   -1    0    0  501  502  0.00000000000E+00  0.00000000000E+00  0.29124840281E+02  0.29124840281E+02  0.00000000000E+00 0. -1.
          3   -1    0    0  502    0 -0.00000000000E+00 -0.00000000000E+00 -0.43259494183E+03  0.43259494183E+03  0.00000000000E+00 0. -1.
        -24    2    1    2    0    0 -0.28192432056E+02  0.35065619250E+02 -0.16057759552E+03  0.18528798264E+03  0.80759280893E+02 0.  0.
         23    2    1    2    0    0  0.57178967648E+01 -0.39086937806E+02 -0.14709361030E+03  0.17794980029E+03  0.92027811998E+02 0.  0.
         11    1    3    3    0    0  0.27825919770E+02  0.58538450951E+01 -0.38876996425E+02  0.48166068601E+02  0.00000000000E+00 0. -1.
        -12    1    3    3    0    0 -0.56018351826E+02  0.29211774154E+02 -0.12170059910E+03  0.13712191404E+03  0.00000000000E+00 0.  1.
        -13    1    4    4    0    0 -0.16935338238E+02  0.20250895602E+02 -0.85467440801E+02  0.89451595240E+02  0.00000000000E+00 0.  1.
         13    1    4    4    0    0  0.22653235002E+02 -0.59337833408E+02 -0.61626169499E+02  0.88498205049E+02  0.00000000000E+00 0. -1.
          4    1    1    2  501    0  0.22474535291E+02  0.40213185565E+01 -0.95798895730E+02  0.98481999181E+02  0.00000000000E+00 0. -1.
<scales pt_clust_5="13000.00000" pt_clust_6="13000.00000" pt_clust_7="13000.00000" pt_clust_8="13000.00000" pt_clust_9="22.83148"></scales>
<clustering>
<clus scale="   22.831">  1  9  2 -1</clus>
<clus scale="   80.759">  5  6 -1 -1</clus>
<clus scale="   90.617">  2  5  1 -1</clus>
<clus scale="   92.028">  7  8 -1 -1</clus>
<clus scale="   22.831">  1  5  2 -1</clus>
</clustering>
</event>
<event>
 9    1  0.4067873E-005  0.9345807E+02  0.7546771E-02  0.1302214E+00
         21   -1    0    0  501  502  0.00000000000E+00  0.00000000000E+00  0.78442122687E+02  0.78442122687E+02  0.00000000000E+00 0.  1.
         -2   -1    0    0    0  501 -0.00000000000E+00 -0.00000000000E+00 -0.24857042693E+03  0.24857042693E+03  0.00000000000E+00 0.  1.
        -24    2    1    2    0    0  0.35973178765E+01 -0.40138298687E+01 -0.13916108138E+03  0.16104673888E+03  0.80877648382E+02 0.  0.
         23    2    1    2    0    0  0.43295487919E+02 -0.54373177049E+01 -0.50214523912E+02  0.11440305262E+03  0.93072532681E+02 0.  0.
         13    1    3    3    0    0 -0.30770743152E+02 -0.24776057124E+02 -0.83929285933E+02  0.92762151107E+02  0.00000000000E+00 0. -1.
        -14    1    3    3    0    0  0.34368061029E+02  0.20762227255E+02 -0.55231795449E+02  0.68284587778E+02  0.00000000000E+00 0.  1.
        -11    1    4    4    0    0 -0.10203818484E+02  0.23466693463E+02 -0.46994656476E+02  0.53509824809E+02  0.00000000000E+00 0. -1.
         11    1    4    4    0    0  0.53499306403E+02 -0.28904011168E+02 -0.32198674361E+01  0.60893227814E+02  0.00000000000E+00 0.  1.
         -1    1    1    2    0  502 -0.46892805795E+02  0.94511475736E+01  0.19247301053E+02  0.51562758107E+02  0.00000000000E+00 0.  1.
<scales pt_clust_5="13000.00000" pt_clust_6="13000.00000" pt_clust_7="13000.00000" pt_clust_8="13000.00000" pt_clust_9="47.83575"></scales>
<clustering>
<clus scale="   47.836">  1  9  2 -1</clus>
<clus scale="   80.878">  5  6 -1 -1</clus>
<clus scale="   81.321">  2  5  1 -1</clus>
<clus scale="   93.073">  7  8 -1 -1</clus>
<clus scale="   47.836">  1  5  2 -1</clus>
</clustering>
</event>
<event>
 9    1  0.8231056E-005  0.9498051E+02  0.7546771E-02  0.1298784E+00
          3   -1    0    0  502    0 -0.00000000000E+00  0.00000000000E+00  0.15094261863E+03  0.15094261863E+03  0.00000000000E+00 0. -1.
         21   -1    0    0  501  502  0.00000000000E+00 -0.00000000000E+00 -0.30742677651E+03  0.30742677651E+03  0.00000000000E+00 0.  1.
         23    2    1    2    0    0  0.19942286861E+01  0.26911465399E+02  0.12031452669E+03  0.15394394676E+03  0.92168050285E+02 0.  0.
        -24    2    1    2    0    0  0.11730342557E+01  0.17269929411E+02 -0.15757425659E+03  0.17723861168E+03  0.79273278333E+02 0.  0.
         11    1    4    4    0    0 -0.14075798087E+02  0.26254730380E+02 -0.14604065795E+02  0.33177065827E+02  0.00000000000E+00 0. -1.
        -12    1    4    4    0    0  0.15248832343E+02 -0.89848009692E+01 -0.14297019080E+03  0.14406154585E+03  0.00000000000E+00 0.  1.
        -11    1    3    3    0    0  0.43449372185E+02  0.31731667779E+02  0.75459196080E+02  0.92675978313E+02  0.00000000000E+00 0. -1.
         11    1    3    3    0    0 -0.41455143498E+02 -0.48202023800E+01  0.44855330615E+02  0.61267968450E+02  0.00000000000E+00 0.  1.
          4    1    1    2  501    0 -0.31672629419E+01 -0.44181394811E+02 -0.11922442798E+03  0.12718683670E+03  0.00000000000E+00 0. -1.
<scales pt_clust_5="13000.00000" pt_clust_6="13000.00000" pt_clust_7="13000.00000" pt_clust_8="13000.00000" pt_clust_9="44.29478"></scales>
<clustering>
<clus scale="   44.295">  2  9  1 -1</clus>
<clus scale="   79.273">  5  6 -1 -1</clus>
<clus scale="   82.526">  2  5  1 -1</clus>
<clus scale="   92.168">  7  8 -1 -1</clus>
<clus scale="   44.295">  2  5  1 -1</clus>
</clustering>
</event>
<event>
 9    1  0.4067873E-005  0.1126430E+03  0.7546771E-02  0.1261962E+00
          1   -1    0    0  502    0 -0.00000000000E+00  0.00000000000E+00  0.31364526395E+03  0.31364526395E+03  0.00000000000E+00 0. -1.
         21   -1    0    0  501  502  0.00000000000E+00 -0.00000000000E+00 -0.17091379799E+03  0.17091379799E+03  0.00000000000E+00 0. -1.
        -24    2    1    2    0    0  0.16785648772E+02 -0.61072752447E+02  0.22331662861E+03  0.24590499769E+03  0.81162258345E+02 0.  0.
         23    2    1    2    0    0 -0.56798619749E+02 -0.19236042038E+02 -0.94479178954E+02  0.14785987938E+03  0.96644297067E+02 0.  0.
         13    1    3    3    0    0 -0.61266325650E+01 -0.46613711645E+02  0.21094527988E+03  0.21612099584E+03  0.00000000000E+00 0. -1.
        -14    1    3    3    0    0  0.22912281337E+02 -0.14459040802E+02  0.12371348736E+02  0.29784001855E+02  0.00000000000E+00 0.  1.
        -11    1    4    4    0    0 -0.10466699839E+02 -0.48450529287E+02 -0.15863696703E+02  0.52044812102E+02  0.00000000000E+00 0. -1.
         11    1    4    4    0    0 -0.46331919910E+02  0.29214487249E+02 -0.78615482250E+02  0.95815067277E+02  0.00000000000E+00 0.  1.
          2    1    1    2  501    0  0.40012970977E+02  0.80308794484E+02  0.13894016301E+02  0.90794184874E+02  0.00000000000E+00 0. -1.
<scales pt_clust_5="13000.00000" pt_clust_6="13000.00000" pt_clust_7="13000.00000" pt_clust_8="13000.00000" pt_clust_9="89.72480"></scales>
<clustering>
<clus scale="   81.162">  5  6 -1 -1</clus>
<clus scale="   89.725">  2  9  1 -1</clus>
<clus scale="   96.644">  7  8 -1 -1</clus>
<clus scale="   99.678">  1  5  2 -1</clus>
<clus scale="   89.725">  2  5  1 -1</clus>
</clustering>
</event>
<event>
 9    1  0.4067873E-005  0.9489052E+02  0.7546771E-02  0.1297320E+00
         21   -1    0    0  501  502  0.00000000000E+00  0.00000000000E+00  0.29760176384E+02  0.29760176384E+02  0.00000000000E+00 0.  1.
         -2   -1    0    0    0  501 -0.00000000000E+00 -0.00000000000E+00 -0.63918979304E+03  0.63918979304E+03  0.00000000000E+00 0.  1.
         23    2    1    2    0    0  0.45730350847E+02  0.24846203623E+02 -0.24386619369E+03  0.26548083299E+03  0.91108470724E+02 0.  0.
        -24    2    1    2    0    0  0.15197132252E+01  0.20683216579E+02 -0.10149917928E+03  0.13137462812E+03  0.80790497857E+02 0.  0.
         13    1    4    4    0    0  0.12333981784E+01 -0.30394879684E+02 -0.52012926270E+02  0.60255410390E+02  0.00000000000E+00 0. -1.
        -14    1    4    4    0    0  0.28631504678E+00  0.51078096263E+02 -0.49486253009E+02  0.71119217733E+02  0.00000000000E+00 0.  1.
        -13    1    3    3    0    0  0.47968275100E+02 -0.29200791081E+01 -0.22883721708E+03  0.23382889941E+03  0.00000000000E+00 0.  1.
         13    1    3    3    0    0 -0.22379242530E+01  0.27766282731E+02 -0.15028976615E+02  0.31651933587E+02  0.00000000000E+00 0. -1.
         -1    1    1    2    0  502 -0.47250064072E+02 -0.45529420202E+02 -0.26406424369E+03  0.27209450831E+03  0.00000000000E+00 0.  1.
<scales pt_clust_5="13000.00000" pt_clust_6="13000.00000" pt_clust_7="13000.00000" pt_clust_8="13000.00000" pt_clust_9="65.61632"></scales>
<clustering>
<clus scale="   65.616">  1  9  2 -1</clus>
<clus scale="   80.790">  5  6 -1 -1</clus>
<clus scale="   85.033">  1  5  2 -1</clus>
<clus scale="   91.108">  7  8 -1 -1</clus>
<clus scale="   65.616">  1  5  2 -1</clus>
</clustering>
</event>
<event>
 9    1  0.4067873E-005  0.1029323E+03  0.7546771E-02  0.1278902E+00
         21   -1    0    0  501  502  0.00000000000E+00  0.00000000000E+00  0.21795229678E+03  0.21795229678E+03  0.00000000000E+00 0. -1.
          1   -1    0    0  502    0 -0.00000000000E+00 -0.00000000000E+00 -0.11988444704E+03  0.11988444704E+03  0.00000000000E+00 0. -1.
        -24    2    1    2    0    0 -0.44970672519E+01  0.54008370156E+02 -0.51347923709E+02  0.10976261886E+03  0.80461764636E+02 0.  0.
         23    2    1    2    0    0 -0.19661628913E+02 -0.37058387045E+02  0.28777387334E+02  0.10387845382E+03  0.90568711179E+02 0.  0.
         11    1    3    3    0    0 -0.28637350763E+02  0.10741820251E+02 -0.51868091080E+02  0.60214478602E+02  0.00000000000E+00 0. -1.
        -12    1    3    3    0    0  0.24140283511E+02  0.43266549905E+02  0.52016737075E+00  0.49548140255E+02  0.00000000000E+00 0.  1.
        -11    1    4    4    0    0 -0.20038315493E+02  0.17693839424E+02 -0.17698125417E+02  0.32059782979E+02  0.00000000000E+00 0. -1.
         11    1    4    4    0    0  0.37668658018E+00 -0.54752226469E+02  0.46475512751E+02  0.71818670842E+02  0.00000000000E+00 0.  1.
          2    1    1    2  501    0  0.24158696165E+02 -0.16949983111E+02  0.12063838611E+03  0.12419567114E+03  0.00000000000E+00 0. -1.
<scales pt_clust_5="13000.00000" pt_clust_6="13000.00000" pt_clust_7="13000.00000" pt_clust_8="13000.00000" pt_clust_9="29.51177"></scales>
<clustering>
<clus scale="   29.512">  1  9  2 -1</clus>
<clus scale="   80.462">  5  6 -1 -1</clus>
<clus scale="   90.569">  7  8 -1 -1</clus>
<clus scale="   94.162">  2  5  1 -1</clus>
<clus scale="   29.512">  1  5  2 -1</clus>
</clustering>
</event>
<event>
 9    1  0.4067873E-005  0.1336554E+03  0.7546771E-02  0.1240550E+00
          3   -1    0    0  502    0 -0.00000000000E+00  0.00000000000E+00  0.35554899157E+03  0.35554899157E+03  0.00000000000E+00 0. -1.
         21   -1    0    0  501  502  0.00000000000E+00 -0.00000000000E+00 -0.11564161455E+03  0.11564161455E+03  0.00000000000E+00 0. -1.
        -24    2    1    2    0    0  0.10966858683E+02 -0.41182359817E+02  0.63958881564E+02  0.11159366855E+03  0.80908278812E+02 0.  0.
         23    2    1    2    0    0  0.49327130840E+02 -0.73476196217E+02 -0.15416760366E+02  0.12850688850E+03  0.91893561499E+02 0.  0.
         11    1    3    3    0    0  0.19422896478E+02 -0.63751772900E+02  0.40644547136E+02  0.78060980440E+02  0.00000000000E+00 0. -1.
        -12    1    3    3    0    0 -0.84560377949E+01  0.22569413083E+02  0.23314334428E+02  0.33532688111E+02  0.00000000000E+00 0.  1.
        -11    1    4    4    0    0 -0.25918185417E+02 -0.22934918720E+02  0.65887501666E+01  0.35230305999E+02  0.00000000000E+00 0.  1.
         11    1    4    4    0    0  0.75245316257E+02 -0.50541277497E+02 -0.22005510533E+02  0.93276582503E+02  0.00000000000E+00 0. -1.
          4    1    1    2  501    0 -0.60293989523E+02  0.11465855603E+03  0.19136525582E+03  0.23109004907E+03  0.00000000000E+00 0. -1.
<scales pt_clust_5="13000.00000" pt_clust_6="13000.00000" pt_clust_7="13000.00000" pt_clust_8="13000.00000" pt_clust_9="97.05330"></scales>
<clustering>
<clus scale="   80.908">  5  6 -1 -1</clus>
<clus scale="   91.446">  1  5  2 -1</clus>
<clus scale="   91.894">  7  8 -1 -1</clus>
<clus scale="   97.053">  2  9  1 -1</clus>
<clus scale="   97.053">  2  5  1 -1</clus>
</clustering>
</event>
<event>
 9    1  0.4067873E-005  0.2405851E+03  0.7546771E-02  0.1158556E+00
         -2   -1    0    0    0  501 -0.00000000000E+00  0.00000000000E+00  0.52826525466E+03  0.52826525466E+03  0.00000000000E+00 0.  1.
         21   -1    0    0  501  502  0.00000000000E+00 -0.00000000000E+00 -0.25808681945E+03  0.25808681945E+03  0.00000000000E+00 0.  1.
        -24    2    1    2    0    0  0.35560417341E+02  0.27618566861E+02  0.29807276818E+03  0.31235695754E+03  0.81805655540E+02 0.  0.
         23    2    1    2    0    0 -0.15697513828E+03  0.16013035122E+03  0.27884473296E+02  0.24355539358E+03  0.90877733647E+02 0.  0.
         13    1    3    3    0    0 -0.26012768991E+02  0.32599670639E+00  0.80776348139E+02  0.84862175574E+02  0.00000000000E+00 0. -1.
        -14    1    3    3    0    0  0.61573186332E+02  0.27292570154E+02  0.21729642004E+03  0.22749478197E+03  0.00000000000E+00 0.  1.
        -11    1    4    4    0    0 -0.64198150040E+02  0.11701754115E+03 -0.11423262617E+02  0.13395894272E+03  0.00000000000E+00 0. -1.
         11    1    4    4    0    0 -0.92776988244E+02  0.43112810063E+02  0.39307735913E+02  0.10959645086E+03  0.00000000000E+00 0.  1.
         -1    1    1    2    0  502  0.12141472094E+03 -0.18774891808E+03 -0.55778806258E+02  0.23043972298E+03  0.00000000000E+00 0.  1.
<scales pt_clust_5="13000.00000" pt_clust_6="13000.00000" pt_clust_7="13000.00000" pt_clust_8="13000.00000" pt_clust_9="222.76093"></scales>
<clustering>
<clus scale="   81.806">  5  6 -1 -1</clus>
<clus scale="   90.878">  7  8 -1 -1</clus>
<clus scale="   93.378">  1  5  2 -1</clus>
<clus scale="  222.761">  2  9  1 -1</clus>
<clus scale="  222.761">  2  5  1 -1</clus>
</clustering>
</event>
<event>
 9    1  0.4067873E-005  0.9668437E+02  0.7546771E-02  0.1292987E+00
          3   -1    0    0  502    0 -0.00000000000E+00  0.00000000000E+00  0.35784851430E+02  0.35784851430E+02  0.00000000000E+00 0. -1.
         21   -1    0    0  501  502  0.00000000000E+00 -0.00000000000E+00 -0.53407629874E+03  0.53407629874E+03  0.00000000000E+00 0.  1.
        -24    2    1    2    0    0 -0.14786756388E+02 -0.32635341806E+02 -0.60359208538E+02  0.10770587183E+03  0.81692148169E+02 0.  0.
         23    2    1    2    0    0  0.28078457472E+02  0.20775332469E+01 -0.19957939369E+03  0.22148428353E+03  0.91818503299E+02 0.  0.
         11    1    3    3    0    0 -0.45894958102E+02 -0.32030924374E+02 -0.27172453095E+02  0.62214704874E+02  0.00000000000E+00 0. -1.
        -12    1    3    3    0    0  0.31108201714E+02 -0.60441743201E+00 -0.33186755443E+02  0.45491166957E+02  0.00000000000E+00 0.  1.
        -11    1    4    4    0    0 -0.31483544646E+01  0.21783024937E+02 -0.39008440674E+01  0.22352380090E+02  0.00000000000E+00 0. -1.
         11    1    4    4    0    0  0.31226811937E+02 -0.19705491690E+02 -0.19567854962E+03  0.19913190344E+03  0.00000000000E+00 0.  1.
          4    1    1    2  501    0 -0.13291701084E+02  0.30557808559E+02 -0.23835284508E+03  0.24067099480E+03  0.00000000000E+00 0. -1.
<scales pt_clust_5="13000.00000" pt_clust_6="13000.00000" pt_clust_7="13000.00000" pt_clust_8="13000.00000" pt_clust_9="33.32340"></scales>
<clustering>
<clus scale="   33.323">  2  9  1 -1</clus>
<clus scale="   81.692">  5  6 -1 -1</clus>
<clus scale="   87.125">  1  5  2 -1</clus>
<clus scale="   91.819">  7  8 -1 -1</clus>
<clus scale="   33.323">  2  5  1 -1</clus>
</clustering>
</event>
<event>
 9    1  0.4067873E-005  0.9538444E+02  0.7546771E-02  0.1296081E+00
          1   -1    0    0  502    0 -0.00000000000E+00  0.00000000000E+00  0.38869738141E+03  0.38869738141E+03  0.00000000000E+00 0. -1.
         21   -1    0    0  501  502  0.00000000000E+00 -0.00000000000E+00 -0.35401758305E+02  0.35401758305E+02  0.00000000000E+00 0.  1.
        -24    2    1    2    0    0  0.21147655663E+02 -0.14480403409E+02  0.24888931664E+03  0.26303092136E+03  0.81132411731E+02 0.  0.
         23    2    1    2    0    0 -0.38484432694E+02 -0.11914795994E+01  0.87592362859E+02  0.13227793432E+03  0.91337608325E+02 0.  0.
         11    1    3    3    0    0  0.44932492889E+02  0.70604397086E+01  0.19566064309E+03  0.20087773889E+03  0.00000000000E+00 0. -1.
        -12    1    3    3    0    0 -0.23784837226E+02 -0.21540843117E+02  0.53228673544E+02  0.62153182472E+02  0.00000000000E+00 0.  1.
        -13    1    4    4    0    0 -0.12263827595E+01  0.20808499265E+02  0.86520651237E+02  0.88996183889E+02  0.00000000000E+00 0. -1.
         13    1    4    4    0    0 -0.37258049935E+02 -0.21999978864E+02  0.10717116216E+01  0.43281750435E+02  0.00000000000E+00 0.  1.
          2    1    1    2  501    0  0.17336777031E+02  0.15671883008E+02  0.16813943613E+02  0.28790284032E+02  0.00000000000E+00 0. -1.
<scales pt_clust_5="13000.00000" pt_clust_6="13000.00000" pt_clust_7="13000.00000" pt_clust_8="13000.00000" pt_clust_9="23.37032"></scales>
<clustering>
<clus scale="   23.370">  2  9  1 -1</clus>
<clus scale="   81.132">  5  6 -1 -1</clus>
<clus scale="   85.663">  1  5  2 -1</clus>
<clus scale="   91.338">  7  8 -1 -1</clus>
<clus scale="   23.370">  2  5  1 -1</clus>
</clustering>
</event>
<event>
 9    1  0.4067873E-005  0.9351377E+02  0.7546771E-02  0.1300257E+00
         -2   -1    0    0    0  501 -0.00000000000E+00  0.00000000000E+00  0.11535006279E+03  0.11535006279E+03  0.00000000000E+00 0.  1.
         21   -1    0    0  501  502  0.00000000000E+00 -0.00000000000E+00 -0.18498964958E+03  0.18498964958E+03  0.00000000000E+00 0.  1.
        -24    2    1    2    0    0 -0.10382883224E+02  0.32674845379E+01  0.44088734718E+02  0.93597077846E+02  0.81842016917E+02 0.  0.
         23    2    1    2    0    0  0.50199086290E+02  0.40453107768E+02 -0.60559145915E+02  0.12722042724E+03  0.91439732942E+02 0.  0.
         11    1    3    3    0    0 -0.12744342722E+02 -0.18145692434E+02 -0.17564930324E+02  0.28288004571E+02  0.00000000000E+00 0. -1.
        -12    1    3    3    0    0  0.23614594976E+01  0.21413176972E+02  0.61653665042E+02  0.65309073275E+02  0.00000000000E+00 0.  1.
        -11    1    4    4    0    0 -0.15117355901E+02  0.41607057611E+02 -0.37264635175E+02  0.57864796960E+02  0.00000000000E+00 0.  1.
         11    1    4    4    0    0  0.65316442191E+02 -0.11539498430E+01 -0.23294510740E+02  0.69355630279E+02  0.00000000000E+00 0. -1.
         -1    1    1    2    0  502 -0.39816203066E+02 -0.43720592306E+02 -0.53169175595E+02  0.79522207286E+02  0.00000000000E+00 0.  1.
<scales pt_clust_5="13000.00000" pt_clust_6="13000.00000" pt_clust_7="13000.00000" pt_clust_8="13000.00000" pt_clust_9="59.13392"></scales>
<clustering>
<clus scale="   59.134">  2  9  1 -1</clus>
<clus scale="   81.842">  5  6 -1 -1</clus>
<clus scale="   84.153">  1  5  2 -1</clus>
<clus scale="   91.440">  7  8 -1 -1</clus>
<clus scale="   59.134">  2  5  1 -1</clus>
</clustering>
</event>
<event>
 9    1  0.4067873E-005  0.3802353E+03  0.7546771E-02  0.1103134E+00
         21   -1    0    0  501  502  0.00000000000E+00  0.00000000000E+00  0.32381589526E+03  0.32381589526E+03  0.00000000000E+00 0. -1.
          1   -1    0    0  502    0 -0.00000000000E+00 -0.00000000000E+00 -0.61974801758E+03  0.61974801758E+03  0.00000000000E+00 0. -1.
        -24    2    1    2    0    0 -0.38103500255E+02  0.18803047337E+02 -0.14795815873E+03  0.17430653481E+03  0.81766252341E+02 0.  0.
         23    2    1    2    0    0  0.14460173795E+03 -0.35837871360E+03 -0.10455421995E+03  0.41073432175E+03  0.91793971342E+02 0.  0.
         11    1    3    3    0    0 -0.55357130779E+02  0.30401662026E+02 -0.73045141167E+02  0.96562237081E+02  0.00000000000E+00 0. -1.
        -12    1    3    3    0    0  0.17253630524E+02 -0.11598614689E+02 -0.74913017562E+02  0.77744297728E+02  0.00000000000E+00 0.  1.
        -11    1    4    4    0    0  0.22223984614E+02 -0.36739042626E+02 -0.43693230599E+02  0.61259784079E+02  0.00000000000E+00 0.  1.
         11    1    4    4    0    0  0.12237775333E+03 -0.32163967097E+03 -0.60860989350E+02  0.34947453767E+03  0.00000000000E+00 0. -1.
          2    1    1    2  501    0 -0.10649823769E+03  0.33957566626E+03 -0.43419743636E+02  0.35852305628E+03  0.00000000000E+00 0. -1.
<scales pt_clust_5="13000.00000" pt_clust_6="13000.00000" pt_clust_7="13000.00000" pt_clust_8="13000.00000" pt_clust_9="368.98880"></scales>
<clustering>
<clus scale="   81.766">  5  6 -1 -1</clus>
<clus scale="   91.794">  7  8 -1 -1</clus>
<clus scale="   92.147">  2  5  1 -1</clus>
<clus scale="  368.989">  1  9  2 -1</clus>
<clus scale="  368.989">  1  5  2 -1</clus>
</clustering>
</event>
<event>
 9    1  0.4067873E-005  0.1732768E+03  0.7546771E-02  0.1191953E+00
          1   -1    0    0  502    0 -0.00000000000E+00  0.00000000000E+00  0.58861466342E+03  0.58861466342E+03  0.00000000000E+00 0. -1.
         21   -1    0    0  501  502  0.00000000000E+00 -0.00000000000E+00 -0.18325015822E+03  0.18325015822E+03  0.00000000000E+00 0. -1.
         23    2    1    2    0    0  0.70641565532E+02 -0.24482895888E+02 -0.18322330120E+02  0.11865173947E+03  0.90293324926E+02 0.  0.
        -24    2    1    2    0    0  0.58359358175E+02 -0.54646982108E+02  0.47670505282E+03  0.49285814057E+03  0.96277370143E+02 0.  0.
         13    1    4    4    0    0  0.71960656450E+02 -0.25978907637E+02  0.42761889815E+03  0.43440897985E+03  0.00000000000E+00 0. -1.
        -14    1    4    4    0    0 -0.13601298275E+02 -0.28668074471E+02  0.49086154671E+02  0.58449160721E+02  0.00000000000E+00 0.  1.
        -11    1    3    3    0    0  0.89673467137E+02 -0.50575040731E+01 -0.17100949888E+02  0.91429489460E+02  0.00000000000E+00 0. -1.
         11    1    3    3    0    0 -0.19031901605E+02 -0.19425391815E+02 -0.12213802317E+01  0.27222250009E+02  0.00000000000E+00 0.  1.
          2    1    1    2  501    0 -0.12900092371E+03  0.79129877996E+02 -0.53018217499E+02  0.16035494160E+03  0.00000000000E+00 0. -1.
<scales pt_clust_5="13000.00000" pt_clust_6="13000.00000" pt_clust_7="13000.00000" pt_clust_8="13000.00000" pt_clust_9="144.06778"></scales>
<clustering>
<clus scale="   90.293">  7  8 -1 -1</clus>
<clus scale="   96.277">  5  6 -1 -1</clus>
<clus scale="  117.229">  1  7  2 -1</clus>
<clus scale="  144.068">  2  9  1 -1</clus>
<clus scale="  144.068">  2  5  1 -1</clus>
</clustering>
</event>
<event>
 9    1  0.4067873E-005  0.9736532E+02  0.7546771E-02  0.1292597E+00
          1   -1    0    0  502    0 -0.00000000000E+00  0.00000000000E+00  0.12434002100E+03  0.12434002100E+03  0.00000000000E+00 0. -1.
         21   -1    0    0  501  502  0.00000000000E+00 -0.00000000000E+00 -0.11451341784E+03  0.11451341784E+03  0.00000000000E+00 0. -1.
         23    2    1    2    0    0 -0.84306289901E+01 -0.25541585064E+02  0.20556359255E+02  0.97450005771E+02  0.91381024541E+02 0.  0.
        -24    2    1    2    0    0  0.22755581042E+02  0.40888950954E+02 -0.44139488713E+02  0.10194514972E+03  0.79087270205E+02 0.  0.
         13    1    4    4    0    0 -0.27624622133E+02  0.28977565791E+02 -0.21487383145E+02  0.45437063083E+02  0.00000000000E+00 0. -1.
        -14    1    4    4    0    0  0.50380203175E+02  0.11911385164E+02 -0.22652105568E+02  0.56508086635E+02  0.00000000000E+00 0.  1.
        -11    1    3    3    0    0  0.24444876458E+02 -0.38482506022E+02 -0.14338786574E+02  0.47791799036E+02  0.00000000000E+00 0. -1.
         11    1    3    3    0    0 -0.32875505448E+02  0.12940920958E+02  0.34895145829E+02  0.49658206734E+02  0.00000000000E+00 0.  1.
          2    1    1    2  501    0 -0.14324952052E+02 -0.15347365891E+02  0.33409732620E+02  0.39458283349E+02  0.00000000000E+00 0. -1.
<scales pt_clust_5="13000.00000" pt_clust_6="13000.00000" pt_clust_7="13000.00000" pt_clust_8="13000.00000" pt_clust_9="20.99396"></scales>
<clustering>
<clus scale="   20.994">  2  9  1 -1</clus>
<clus scale="   79.087">  5  6 -1 -1</clus>
<clus scale="   85.932">  2  5  1 -1</clus>
<clus scale="   91.381">  7  8 -1 -1</clus>
<clus scale="   20.994">  2  5  1 -1</clus>
</clustering>
</event>
<event>
 9    1  0.4067873E-005  0.1007146E+03  0.7546771E-02  0.1285740E+00
          1   -1    0    0  502    0 -0.00000000000E+00  0.00000000000E+00  0.11282003113E+03  0.11282003113E+03  0.00000000000E+00 0. -1.
         21   -1    0    0  501  502  0.00000000000E+00 -0.00000000000E+00 -0.15812446556E+03  0.15812446556E+03  0.00000000000E+00 0. -1.
         23    2    1    2    0    0  0.12848681517E+02 -0.43866134225E+02  0.38616603625E+02  0.10983269873E+03  0.92101320768E+02 0.  0.
        -24    2    1    2    0    0 -0.44843194638E+02  0.11910214535E+02 -0.45516103370E+02  0.10178415953E+03  0.78329650519E+02 0.  0.
         13    1    4    4    0    0 -0.14058628877E+01  0.23776291270E+02 -0.51131213395E+02  0.56406466476E+02  0.00000000000E+00 0. -1.
        -14    1    4    4    0    0 -0.43437331750E+02 -0.11866076735E+02  0.56151100249E+01  0.45377693058E+02  0.00000000000E+00 0.  1.
        -13    1    3    3    0    0  0.50534914563E+02 -0.40810539079E+02  0.22682708796E+02  0.68802492456E+02  0.00000000000E+00 0. -1.
         13    1    3    3    0    0 -0.37686233045E+02 -0.30555951456E+01  0.15933894830E+02  0.41030206279E+02  0.00000000000E+00 0.  1.
          2    1    1    2  501    0  0.31994513121E+02  0.31955919690E+02 -0.38404934683E+02  0.59327638425E+02  0.00000000000E+00 0. -1.
<scales pt_clust_5="13000.00000" pt_clust_6="13000.00000" pt_clust_7="13000.00000" pt_clust_8="13000.00000" pt_clust_9="45.21979"></scales>
<clustering>
<clus scale="   45.220">  2  9  1 -1</clus>
<clus scale="   78.330">  5  6 -1 -1</clus>
<clus scale="   88.297">  2  5  1 -1</clus>
<clus scale="   92.101">  7  8 -1 -1</clus>
<clus scale="   45.220">  2  5  1 -1</clus>
</clustering>
</event>
<event>
 9    1  0.4067873E-005  0.1162856E+03  0.7546771E-02  0.1253057E+00
         21   -1    0    0  501  502  0.00000000000E+00  0.00000000000E+00  0.22920698081E+03  0.22920698081E+03  0.00000000000E+00 0. -1.
         -2   -1    0    0    0  501 -0.00000000000E+00 -0.00000000000E+00 -0.13190595134E+03  0.13190595134E+03  0.00000000000E+00 0.  1.
        -24    2    1    2    0    0  0.30453324939E+02 -0.65438068591E+02 -0.75314980544E+02  0.13173106050E+03  0.80443646016E+02 0.  0.
         23    2    1    2    0    0 -0.57954972982E+02  0.50764546829E+02  0.14383826630E+03  0.18695768729E+03  0.91257393541E+02 0.  0.
         13    1    3    3    0    0 -0.24455239751E+02 -0.39132524622E+01 -0.10750923522E+02  0.26999160222E+02  0.00000000000E+00 0. -1.
        -14    1    3    3    0    0  0.54908564690E+02 -0.61524816129E+02 -0.64564057022E+02  0.10473190027E+03  0.00000000000E+00 0.  1.
        -11    1    4    4    0    0 -0.11251733960E+02  0.68538851751E+02  0.82956890444E+02  0.10819436856E+03  0.00000000000E+00 0.  1.
         11    1    4    4    0    0 -0.46703239021E+02 -0.17774304923E+02  0.60881375855E+02  0.78763318725E+02  0.00000000000E+00 0. -1.
         -1    1    1    2    0  502  0.27501648043E+02  0.14673521762E+02  0.28777743708E+02  0.42424184363E+02  0.00000000000E+00 0.  1.
<scales pt_clust_5="13000.00000" pt_clust_6="13000.00000" pt_clust_7="13000.00000" pt_clust_8="13000.00000" pt_clust_9="31.17135"></scales>
<clustering>
<clus scale="   31.171">  1  9  2 -1</clus>
<clus scale="   80.444">  5  6 -1 -1</clus>
<clus scale="   91.257">  7  8 -1 -1</clus>
<clus scale="  108.007">  2  5  1 -1</clus>
<clus scale="   31.171">  1  5  2 -1</clus>
</clustering>
</event>
<event>
 9    1  0.4067873E-005  0.1452442E+03  0.7546771E-02  0.1223677E+00
         -2   -1    0    0    0  501 -0.00000000000E+00  0.00000000000E+00  0.10864654083E+03  0.10864654083E+03  0.00000000000E+00 0.  1.
         21   -1    0    0  501  502  0.00000000000E+00 -0.00000000000E+00 -0.32810943674E+03  0.32810943674E+03  0.00000000000E+00 0.  1.
         23    2    1    2    0    0  0.11319719256E+02 -0.41147302965E+02 -0.51217494497E+02  0.11309684174E+03  0.91358783289E+02 0.  0.
        -24    2    1    2    0    0  0.94327177253E+02  0.87781591197E+02 -0.59634226198E+02  0.16512708556E+03  0.84305927006E+02 0.  0.
         13    1    4    4    0    0  0.39138852781E+02 -0.72955463548E+01  0.51049201890E+00  0.39816270490E+02  0.00000000000E+00 0. -1.
        -14    1    4    4    0    0  0.55188324472E+02  0.95077137551E+02 -0.60144718217E+02  0.12531081507E+03  0.00000000000E+00 0.  1.
        -11    1    3    3    0    0 -0.15674693878E+02  0.14356725366E+02  0.12277910513E+02  0.24547070659E+02  0.00000000000E+00 0. -1.
         11    1    3    3    0    0  0.26994413134E+02 -0.55504028330E+02 -0.63495405010E+02  0.88549771082E+02  0.00000000000E+00 0.  1.
         -1    1    1    2    0  502 -0.10564689651E+03 -0.46634288232E+02 -0.10861117522E+03  0.15853205027E+03  0.00000000000E+00 0.  1.
<scales pt_clust_5="13000.00000" pt_clust_6="13000.00000" pt_clust_7="13000.00000" pt_clust_8="13000.00000" pt_clust_9="118.27255"></scales>
<clustering>
<clus scale="   84.306">  5  6 -1 -1</clus>
<clus scale="   91.359">  7  8 -1 -1</clus>
<clus scale="  100.835">  1  7  2 -1</clus>
<clus scale="  118.273">  2  9  1 -1</clus>
<clus scale="  118.273">  2  5  1 -1</clus>
</clustering>
</event>
<event>
 9    1  0.4067873E-005  0.1005084E+03  0.7546771E-02  0.1290923E+00
          1   -1    0    0  502    0 -0.00000000000E+00  0.00000000000E+00  0.36816812744E+03  0.36816812744E+03  0.00000000000E+00 0. -1.
         21   -1    0    0  501  502  0.00000000000E+00 -0.00000000000E+00 -0.94884102520E+02  0.94884102520E+02  0.00000000000E+00 0.  1.
        -24    2    1    2    0    0 -0.67304107423E+01  0.55424716737E+01  0.75207246440E+02  0.11057809216E+03  0.80593840513E+02 0.  0.
         23    2    1    2    0    0 -0.29735170446E+02  0.28894015530E+02 -0.34881679590E+02  0.11417757162E+03  0.10050244672E+03 0.  0.
         13    1    3    3    0    0 -0.14553679681E+01  0.33210536875E+02  0.33657426290E+01  0.33412364162E+02  0.00000000000E+00 0. -1.
        -14    1    3    3    0    0 -0.52750427741E+01 -0.27668065202E+02  0.71841503811E+02  0.77165728002E+02  0.00000000000E+00 0.  1.
        -13    1    4    4    0    0  0.35225706946E+02  0.85191136839E+01  0.28262052150E+01  0.36351247072E+02  0.00000000000E+00 0. -1.
         13    1    4    4    0    0 -0.64960877392E+02  0.20374901846E+02 -0.37707884805E+02  0.77826324552E+02  0.00000000000E+00 0.  1.
          2    1    1    2  501    0  0.36465581189E+02 -0.34436487204E+02  0.23295845807E+03  0.23829656617E+03  0.00000000000E+00 0. -1.
<scales pt_clust_5="13000.00000" pt_clust_6="13000.00000" pt_clust_7="13000.00000" pt_clust_8="13000.00000" pt_clust_9="50.15588"></scales>
<clustering>
<clus scale="   50.156">  2  9  1 -1</clus>
<clus scale="   80.594">  5  6 -1 -1</clus>
<clus scale="   80.601">  1  5  2 -1</clus>
<clus scale="  100.502">  7  8 -1 -1</clus>
<clus scale="   50.156">  2  5  1 -1</clus>
</clustering>
</event>
<event>
 9    1  0.4067873E-005  0.1192666E+03  0.7546771E-02  0.1248136E+00
         -2   -1    0    0    0  501 -0.00000000000E+00  0.00000000000E+00  0.39885940504E+03  0.39885940504E+03  0.00000000000E+00 0.  1.
         21   -1    0    0  501  502  0.00000000000E+00 -0.00000000000E+00 -0.65152660655E+02  0.65152660655E+02  0.00000000000E+00 0.  1.
        -24    2    1    2    0    0  0.19567380386E+02 -0.44167631453E+02  0.74441428870E+02  0.11871731709E+03  0.78858182851E+02 0.  0.
         23    2    1    2    0    0  0.62601350663E+01  0.11846673369E+03  0.17021307870E+03  0.22647674479E+03  0.90805657790E+02 0.  0.
         13    1    3    3    0    0 -0.28693683547E+02 -0.81249529251E+01  0.38046290086E+02  0.48341105953E+02  0.00000000000E+00 0. -1.
        -14    1    3    3    0    0  0.48261063933E+02 -0.36042678528E+02  0.36395138785E+02  0.70376211141E+02  0.00000000000E+00 0.  1.
        -13    1    4    4    0    0  0.21914688151E+02  0.96279266166E+02  0.65962184009E+02  0.11874746469E+03  0.00000000000E+00 0.  1.
         13    1    4    4    0    0 -0.15654553085E+02  0.22187467528E+02  0.10425089469E+03  0.10772928010E+03  0.00000000000E+00 0. -1.
         -1    1    1    2    0  502 -0.25827515452E+02 -0.74299102241E+02  0.89052236814E+02  0.11881800381E+03  0.00000000000E+00 0.  1.
<scales pt_clust_5="13000.00000" pt_clust_6="13000.00000" pt_clust_7="13000.00000" pt_clust_8="13000.00000" pt_clust_9="78.66018"></scales>
<clustering>
<clus scale="   78.660">  2  9  1 -1</clus>
<clus scale="   78.858">  5  6 -1 -1</clus>
<clus scale="   90.806">  7  8 -1 -1</clus>
<clus scale="  110.442">  1  5  2 -1</clus>
<clus scale="   78.660">  2  5  1 -1</clus>
</clustering>
</event>
<event>
 9    1  0.4067873E-005  0.1178137E+03  0.7546771E-02  0.1249926E+00
         21   -1    0    0  501  502  0.00000000000E+00  0.00000000000E+00  0.31130028542E+03  0.31130028542E+03  0.00000000000E+00 0. -1.
          3   -1    0    0  502    0 -0.00000000000E+00 -0.00000000000E+00 -0.22514621500E+03  0.22514621500E+03  0.00000000000E+00 0. -1.
        -24    2    1    2    0    0  0.57005268787E+02  0.84742026816E+01  0.76955645329E+02  0.12600306656E+03  0.81444389941E+02 0.  0.
         23    2    1    2    0    0 -0.92886338901E+02 -0.69386342321E+02  0.17581656690E+03  0.22944800538E+03  0.91063634456E+02 0.  0.
         13    1    3    3    0    0  0.77017995980E+02  0.14882324106E+02  0.56455621475E+02  0.96646223267E+02  0.00000000000E+00 0. -1.
        -14    1    3    3    0    0 -0.20012727193E+02 -0.64081214243E+01  0.20500023853E+02  0.29356843289E+02  0.00000000000E+00 0.  1.
        -13    1    4    4    0    0 -0.35141169707E+02 -0.69885799009E+02  0.14308028673E+03  0.16306714924E+03  0.00000000000E+00 0. -1.
         13    1    4    4    0    0 -0.57745169193E+02  0.49945668822E+00  0.32736280178E+02  0.66380856141E+02  0.00000000000E+00 0.  1.
          4    1    1    2  501    0  0.35881070114E+02  0.60912139639E+02 -0.16661814181E+03  0.18099542848E+03  0.00000000000E+00 0. -1.
<scales pt_clust_5="13000.00000" pt_clust_6="13000.00000" pt_clust_7="13000.00000" pt_clust_8="13000.00000" pt_clust_9="70.69473"></scales>
<clustering>
<clus scale="   70.695">  1  9  2 -1</clus>
<clus scale="   81.444">  5  6 -1 -1</clus>
<clus scale="   91.064">  7  8 -1 -1</clus>
<clus scale="  110.547">  2  5  1 -1</clus>
<clus scale="   70.695">  1  5  2 -1</clus>
</clustering>
</event>
<event>
 9    1  0.4067873E-005  0.3126108E+03  0.7546771E-02  0.1126090E+00
         21   -1    0    0  501  502  0.00000000000E+00  0.00000000000E+00  0.43939925384E+03  0.43939925384E+03  0.00000000000E+00 0.  1.
          1   -1    0    0  502    0 -0.00000000000E+00 -0.00000000000E+00 -0.56011833585E+03  0.56011833585E+03  0.00000000000E+00 0. -1.
        -24    2    1    2    0    0  0.36688242490E+01  0.44630094372E+02 -0.41090128520E+02  0.10153937934E+03  0.81342124999E+02 0.  0.
         23    2    1    2    0    0  0.41023749365E+02  0.29604941129E+03  0.26953838232E+03  0.40810294041E+03  0.67593405667E+02 0.  0.
         11    1    3    3    0    0 -0.60952488537E+01  0.61480184489E+02 -0.50608066693E+02  0.79863267888E+02  0.00000000000E+00 0. -1.
        -12    1    3    3    0    0  0.97640731027E+01 -0.16850090117E+02  0.95179381726E+01  0.21676111449E+02  0.00000000000E+00 0.  1.
        -11    1    4    4    0    0  0.13565225941E+02  0.21745546758E+03  0.22688660771E+03  0.31456069127E+03  0.00000000000E+00 0.  1.
         11    1    4    4    0    0  0.27458523424E+02  0.78593943707E+02  0.42651774614E+02  0.93542249138E+02  0.00000000000E+00 0. -1.
          2    1    1    2  501    0 -0.44692573614E+02 -0.34067950566E+03 -0.34916733581E+03  0.48987526995E+03  0.00000000000E+00 0. -1.
<scales pt_clust_5="13000.00000" pt_clust_6="13000.00000" pt_clust_7="13000.00000" pt_clust_8="13000.00000" pt_clust_9="305.21590"></scales>
<clustering>
<clus scale="   67.593">  7  8 -1 -1</clus>
<clus scale="   81.342">  5  6 -1 -1</clus>
<clus scale="   92.854">  2  5  1 -1</clus>
<clus scale="  305.216">  1  9  2 -1</clus>
<clus scale="  305.216">  1  5  2 -1</clus>
</clustering>
</event>
<event>
 9    1  0.4067873E-005  0.2214245E+03  0.7546771E-02  0.1149586E+00
         21   -1    0    0  501  502  0.00000000000E+00  0.00000000000E+00  0.19033925373E+03  0.19033925373E+03  0.00000000000E+00 0. -1.
         -2   -1    0    0    0  501 -0.00000000000E+00 -0.00000000000E+00 -0.47902003523E+03  0.47902003523E+03  0.00000000000E+00 0.  1.
        -24    2    1    2    0    0  0.34610106449E+02 -0.11994763829E+03 -0.24589161387E+02  0.14994759942E+03  0.79337004693E+02 0.  0.
         23    2    1    2    0    0 -0.39237498528E+01 -0.12817574400E+03 -0.21203455332E+03  0.26403588112E+03  0.91169499016E+02 0.  0.
         13    1    3    3    0    0  0.19675214074E+01 -0.11276827238E+03 -0.92235540266E+01  0.11316195626E+03  0.00000000000E+00 0. -1.
        -14    1    3    3    0    0  0.32642585042E+02 -0.71793659147E+01 -0.15365607361E+02  0.36785643160E+02  0.00000000000E+00 0.  1.
        -11    1    4    4    0    0  0.25810588820E+02 -0.12249049816E+03 -0.18546219868E+03  0.22375507989E+03  0.00000000000E+00 0.  1.
         11    1    4    4    0    0 -0.29734338673E+02 -0.56852458398E+01 -0.26572354640E+02  0.40280801229E+02  0.00000000000E+00 0. -1.
         -1    1    1    2    0  502 -0.30686356596E+02  0.24812338229E+03 -0.52057066790E+02  0.25537580842E+03  0.00000000000E+00 0.  1.
<scales pt_clust_5="13000.00000" pt_clust_6="13000.00000" pt_clust_7="13000.00000" pt_clust_8="13000.00000" pt_clust_9="201.78442"></scales>
<clustering>
<clus scale="   79.337">  5  6 -1 -1</clus>
<clus scale="   91.169">  7  8 -1 -1</clus>
<clus scale="  147.918">  2  5  1 -1</clus>
<clus scale="  201.784">  1  9  2 -1</clus>
<clus scale="  201.784">  1  5  2 -1</clus>
</clustering>
</event>
<event>
 9    1  0.4067873E-005  0.1393667E+03  0.7546771E-02  0.1231414E+00
         -2   -1    0    0    0  501 -0.00000000000E+00  0.00000000000E+00  0.91413061273E+03  0.91413061273E+03  0.00000000000E+00 0.  1.
         21   -1    0    0  501  502  0.00000000000E+00 -0.00000000000E+00 -0.62931025985E+02  0.62931025985E+02  0.00000000000E+00 0.  1.
        -24    2    1    2    0    0 -0.54839459385E+02  0.59423918666E+01  0.53588785953E+03  0.54463581440E+03  0.80060564632E+02 0.  0.
         23    2    1    2    0    0 -0.31191232962E+02  0.69037514646E+02  0.29333385888E+03  0.31620924588E+03  0.90578490668E+02 0.  0.
         13    1    3    3    0    0  0.84059003483E+01 -0.19732001313E+02  0.56885352363E+02  0.60794361169E+02  0.00000000000E+00 0. -1.
        -14    1    3    3    0    0 -0.63245359734E+02  0.25674393179E+02  0.47900250717E+03  0.48384145323E+03  0.00000000000E+00 0.  1.
        -11    1    4    4    0    0 -0.49610341824E+02  0.80746809218E+02  0.21645427456E+03  0.23629152797E+03  0.00000000000E+00 0.  1.
         11    1    4    4    0    0  0.18419108862E+02 -0.11709294572E+02  0.76879584321E+02  0.79917717911E+02  0.00000000000E+00 0. -1.
         -1    1    1    2    0  502  0.86030692348E+02 -0.74979906513E+02  0.21977868334E+02  0.11621657843E+03  0.00000000000E+00 0.  1.
<scales pt_clust_5="13000.00000" pt_clust_6="13000.00000" pt_clust_7="13000.00000" pt_clust_8="13000.00000" pt_clust_9="105.91797"></scales>
<clustering>
<clus scale="   80.061">  5  6 -1 -1</clus>
<clus scale="   90.578">  7  8 -1 -1</clus>
<clus scale="   97.223">  1  5  2 -1</clus>
<clus scale="  105.918">  2  9  1 -1</clus>
<clus scale="  105.918">  2  5  1 -1</clus>
</clustering>
</event>
<event>
 9    1  0.4067873E-005  0.1044619E+03  0.7546771E-02  0.1274703E+00
          1   -1    0    0  502    0 -0.00000000000E+00  0.00000000000E+00  0.23731158522E+03  0.23731158522E+03  0.00000000000E+00 0. -1.
         21   -1    0    0  501  502  0.00000000000E+00 -0.00000000000E+00 -0.10335562122E+03  0.10335562122E+03  0.00000000000E+00 0. -1.
        -24    2    1    2    0    0  0.17451425439E+02  0.74462781987E+02  0.11857936360E+03  0.16215536102E+03  0.79900171992E+02 0.  0.
         23    2    1    2    0    0 -0.44635901189E+02 -0.10106450997E+01  0.16621718788E+02  0.10018073759E+03  0.88127825172E+02 0.  0.
         11    1    3    3    0    0  0.32302981993E+02  0.45848215045E+02  0.21843417282E+02  0.60188672912E+02  0.00000000000E+00 0. -1.
        -12    1    3    3    0    0 -0.14851556554E+02  0.28614566942E+02  0.96735946320E+02  0.10196668811E+03  0.00000000000E+00 0.  1.
        -13    1    4    4    0    0 -0.26082482052E+02  0.13941253853E+02  0.50642197957E+02  0.58645431560E+02  0.00000000000E+00 0.  1.
         13    1    4    4    0    0 -0.18553419137E+02 -0.14951898952E+02 -0.34020479168E+02  0.41535306027E+02  0.00000000000E+00 0. -1.
          2    1    1    2  501    0  0.27184475750E+02 -0.73452136887E+02 -0.12451183909E+01  0.78331107837E+02  0.00000000000E+00 0. -1.
<scales pt_clust_5="13000.00000" pt_clust_6="13000.00000" pt_clust_7="13000.00000" pt_clust_8="13000.00000" pt_clust_9="78.32121"></scales>
<clustering>
<clus scale="   78.321">  2  9  1 -1</clus>
<clus scale="   79.900">  5  6 -1 -1</clus>
<clus scale="   88.128">  7  8 -1 -1</clus>
<clus scale="   97.621">  1  5  2 -1</clus>
<clus scale="   78.321">  2  5  1 -1</clus>
</clustering>
</event>
<event>
 9    1  0.4067873E-005  0.1016642E+03  0.7546771E-02  0.1279460E+00
          1   -1    0    0  502    0 -0.00000000000E+00  0.00000000000E+00  0.49775547364E+03  0.49775547364E+03  0.00000000000E+00 0. -1.
         21   -1    0    0  501  502  0.00000000000E+00 -0.00000000000E+00 -0.24347115800E+03  0.24347115800E+03  0.00000000000E+00 0. -1.
        -24    2    1    2    0    0 -0.28613903184E+02 -0.38679215588E+02  0.42723311288E+03  0.43815960302E+03  0.84503655542E+02 0.  0.
         23    2    1    2    0    0  0.30380617299E+02 -0.20501549088E+02 -0.21122619369E+03  0.23256423956E+03  0.90146132465E+02 0.  0.
         13    1    3    3    0    0 -0.11136338127E+01 -0.61412570573E+02  0.28132532501E+03  0.28795256988E+03  0.00000000000E+00 0. -1.
        -14    1    3    3    0    0 -0.27500269371E+02  0.22733354985E+02  0.14590778787E+03  0.15020703314E+03  0.00000000000E+00 0.  1.
        -13    1    4    4    0    0  0.19894780280E+02 -0.54112322771E+02 -0.16268289262E+03  0.17259684038E+03  0.00000000000E+00 0. -1.
         13    1    4    4    0    0  0.10485837019E+02  0.33610773683E+02 -0.48543301077E+02  0.59967399185E+02  0.00000000000E+00 0.  1.
          2    1    1    2  501    0 -0.17667141154E+01  0.59180764675E+02  0.38277396455E+02  0.70502789063E+02  0.00000000000E+00 0. -1.
<scales pt_clust_5="13000.00000" pt_clust_6="13000.00000" pt_clust_7="13000.00000" pt_clust_8="13000.00000" pt_clust_9="59.20716"></scales>
<clustering>
<clus scale="   59.207">  2  9  1 -1</clus>
<clus scale="   84.504">  5  6 -1 -1</clus>
<clus scale="   90.146">  7  8 -1 -1</clus>
<clus scale="   96.696">  1  5  2 -1</clus>
<clus scale="   59.207">  2  5  1 -1</clus>
</clustering>
</event>
<event>
 9    1  0.4067873E-005  0.1102035E+03  0.7546771E-02  0.1271943E+00
         21   -1    0    0  501  502  0.00000000000E+00  0.00000000000E+00  0.14865868930E+03  0.14865868930E+03  0.00000000000E+00 0.  1.
         -2   -1    0    0    0  501 -0.00000000000E+00 -0.00000000000E+00 -0.12349103479E+03  0.12349103479E+03  0.00000000000E+00 0.  1.
         23    2    1    2    0    0 -0.24855088804E+02 -0.21785596594E+02 -0.89353398962E+01  0.11041018102E+03  0.10496751934E+03 0.  0.
        -24    2    1    2    0    0 -0.78808907493E+00  0.43830137343E+02  0.67519792163E+02  0.11419780645E+03  0.80997003904E+02 0.  0.
         11    1    4    4    0    0  0.34124731920E+02 -0.23512562472E+01  0.25003963924E+02  0.42370083153E+02  0.00000000000E+00 0. -1.
        -12    1    4    4    0    0 -0.34912820995E+02  0.46181393590E+02  0.42515828240E+02  0.71827723301E+02  0.00000000000E+00 0.  1.
        -11    1    3    3    0    0 -0.14155856977E+00 -0.61175277135E+02 -0.16348814016E+02  0.63322336431E+02  0.00000000000E+00 0.  1.
         11    1    3    3    0    0 -0.24713530235E+02  0.39389680541E+02  0.74134741197E+01  0.47087844591E+02  0.00000000000E+00 0. -1.
         -1    1    1    2    0  502  0.25643177879E+02 -0.22044540749E+02 -0.33416797758E+02  0.47541736621E+02  0.00000000000E+00 0.  1.
<scales pt_clust_5="13000.00000" pt_clust_6="13000.00000" pt_clust_7="13000.00000" pt_clust_8="13000.00000" pt_clust_9="33.81620"></scales>
<clustering>
<clus scale="   33.816">  1  9  2 -1</clus>
<clus scale="   80.997">  5  6 -1 -1</clus>
<clus scale="   87.676">  1  5  2 -1</clus>
<clus scale="  104.968">  7  8 -1 -1</clus>
<clus scale="   33.816">  1  5  2 -1</clus>
</clustering>
</event>
<event>
 9    1  0.4067873E-005  0.1002988E+03  0.7546771E-02  0.1284088E+00
         21   -1    0    0  501  502  0.00000000000E+00  0.00000000000E+00  0.51564675167E+02  0.51564675167E+02  0.00000000000E+00 0.  1.
         -4   -1    0    0    0  501 -0.00000000000E+00 -0.00000000000E+00 -0.45366237798E+03  0.45366237798E+03  0.00000000000E+00 0.  1.
        -24    2    1    2    0    0 -0.20555325771E+02 -0.38335909362E+02 -0.31628959076E+03  0.32975167763E+03  0.82491819686E+02 0.  0.
         23    2    1    2    0    0 -0.14567913753E+02  0.37491514076E+02 -0.21457732799E+02  0.10215875892E+03  0.91422863601E+02 0.  0.
         13    1    3    3    0    0  0.22329121259E+02 -0.30506708958E+02 -0.69270488862E+02  0.78915458402E+02  0.00000000000E+00 0. -1.
        -14    1    3    3    0    0 -0.42884447029E+02 -0.78292004042E+01 -0.24701910190E+03  0.25083621923E+03  0.00000000000E+00 0.  1.
        -11    1    4    4    0    0 -0.50527556453E+02  0.39092145435E+02 -0.13780287839E+02  0.65353853205E+02  0.00000000000E+00 0.  1.
         11    1    4    4    0    0  0.35959642700E+02 -0.16006313586E+01 -0.76774449606E+01  0.36804905719E+02  0.00000000000E+00 0. -1.
         -3    1    1    2    0  502  0.35123239524E+02  0.84439528616E+00 -0.64350379251E+02  0.73316616588E+02  0.00000000000E+00 0.  1.
<scales pt_clust_5="13000.00000" pt_clust_6="13000.00000" pt_clust_7="13000.00000" pt_clust_8="13000.00000" pt_clust_9="35.13341"></scales>
<clustering>
<clus scale="   35.133">  1  9  2 -1</clus>
<clus scale="   82.492">  5  6 -1 -1</clus>
<clus scale="   91.423">  7  8 -1 -1</clus>
<clus scale="   92.231">  2  5  1 -1</clus>
<clus scale="   35.133">  1  5  2 -1</clus>
</clustering>
</event>
<event>
 9    1  0.4067873E-005  0.1116816E+03  0.7546771E-02  0.1262282E+00
         -2   -1    0    0    0  501 -0.00000000000E+00  0.00000000000E+00  0.79873132638E+02  0.79873132638E+02  0.00000000000E+00 0.  1.
         21   -1    0    0  501  502  0.00000000000E+00 -0.00000000000E+00 -0.53186865509E+03  0.53186865509E+03  0.00000000000E+00 0.  1.
         23    2    1    2    0    0  0.20422809776E+02 -0.55532545365E+02 -0.15582231452E+03  0.18980308366E+03  0.90794614984E+02 0.  0.
        -24    2    1    2    0    0  0.23534083814E+01  0.80509828260E+02 -0.34486894937E+03  0.36266057987E+03  0.78107189026E+02 0.  0.
         11    1    4    4    0    0  0.24151353622E+02 -0.73297342408E+00 -0.43359134746E+02  0.49637079867E+02  0.00000000000E+00 0. -1.
        -12    1    4    4    0    0 -0.21797945240E+02  0.81242801684E+02 -0.30150981462E+03  0.31302350000E+03  0.00000000000E+00 0.  1.
        -13    1    3    3    0    0  0.35233656766E+02 -0.75460227124E+02 -0.11426598328E+03  0.14139438243E+03  0.00000000000E+00 0.  1.
         13    1    3    3    0    0 -0.14810846990E+02  0.19927681760E+02 -0.41556331243E+02  0.48408701235E+02  0.00000000000E+00 0. -1.
         -1    1    1    2    0  502 -0.22776218157E+02 -0.24977282895E+02  0.48695741437E+02  0.59278124198E+02  0.00000000000E+00 0.  1.
<scales pt_clust_5="13000.00000" pt_clust_6="13000.00000" pt_clust_7="13000.00000" pt_clust_8="13000.00000" pt_clust_9="33.80269"></scales>
<clustering>
<clus scale="   33.803">  2  9  1 -1</clus>
<clus scale="   78.107">  5  6 -1 -1</clus>
<clus scale="   90.795">  7  8 -1 -1</clus>
<clus scale="  101.636">  2  5  1 -1</clus>
<clus scale="   33.803">  2  5  1 -1</clus>
</clustering>
</event>
<event>
 9    1  0.4067873E-005  0.1427706E+03  0.7546771E-02  0.1211241E+00
         21   -1    0    0  501  502  0.00000000000E+00  0.00000000000E+00  0.71977276553E+02  0.71977276553E+02  0.00000000000E+00 0. -1.
         -2   -1    0    0    0  501 -0.00000000000E+00 -0.00000000000E+00 -0.63463992410E+03  0.63463992410E+03  0.00000000000E+00 0.  1.
        -24    2    1    2    0    0  0.10094685443E+03  0.30506016431E+02 -0.34277358716E+03  0.36778783510E+03  0.81567610833E+02 0.  0.
         23    2    1    2    0    0 -0.10947051535E+03 -0.53885034456E+02 -0.25458613476E+03  0.29613137673E+03  0.89399673370E+02 0.  0.
         13    1    3    3    0    0  0.52096098711E+02  0.40312335915E+02 -0.27999822949E+03  0.28764230643E+03  0.00000000000E+00 0. -1.
        -14    1    3    3    0    0  0.48850755721E+02 -0.98063194841E+01 -0.62775357665E+02  0.80145528673E+02  0.00000000000E+00 0.  1.
        -13    1    4    4    0    0 -0.17484980650E+02  0.11968790200E+02 -0.11265633934E+03  0.11463170278E+03  0.00000000000E+00 0.  1.
         13    1    4    4    0    0 -0.91985534703E+02 -0.65853824656E+02 -0.14192979542E+03  0.18149967395E+03  0.00000000000E+00 0. -1.
         -1    1    1    2    0  502  0.85236609208E+01  0.23379018025E+02  0.34697074376E+02  0.42697988823E+02  0.00000000000E+00 0.  1.
<scales pt_clust_5="13000.00000" pt_clust_6="13000.00000" pt_clust_7="13000.00000" pt_clust_8="13000.00000" pt_clust_9="24.88436"></scales>
<clustering>
<clus scale="   24.884">  1  9  2 -1</clus>
<clus scale="   81.568">  5  6 -1 -1</clus>
<clus scale="   89.400">  7  8 -1 -1</clus>
<clus scale="  138.002">  2  5  1 -1</clus>
<clus scale="   24.884">  1  5  2 -1</clus>
</clustering>
</event>
<event>
 9    1  0.4067873E-005  0.1008097E+03  0.7546771E-02  0.1283378E+00
         21   -1    0    0  501  502  0.00000000000E+00  0.00000000000E+00  0.14231026374E+03  0.14231026374E+03  0.00000000000E+00 0. -1.
         -4   -1    0    0    0  501 -0.00000000000E+00 -0.00000000000E+00 -0.11548361176E+03  0.11548361176E+03  0.00000000000E+00 0.  1.
        -24    2    1    2    0    0  0.46910746259E+02  0.54568049820E+01 -0.50623384949E+02  0.10671341484E+03  0.81207333213E+02 0.  0.
         23    2    1    2    0    0 -0.26200450595E+02 -0.28039006859E+02  0.63494509795E+02  0.11741105428E+03  0.91000842725E+02 0.  0.
         13    1    3    3    0    0  0.35304946973E+02 -0.36247588766E+02 -0.29063226711E+02  0.58352361726E+02  0.00000000000E+00 0. -1.
        -14    1    3    3    0    0  0.11605799286E+02  0.41704393748E+02 -0.21560158238E+02  0.48361053113E+02  0.00000000000E+00 0.  1.
        -13    1    4    4    0    0  0.68768329579E+01 -0.31609532674E+02 -0.12321906835E+02  0.34616221277E+02  0.00000000000E+00 0.  1.
         13    1    4    4    0    0 -0.33077283553E+02  0.35705258155E+01  0.75816416630E+02  0.82794833006E+02  0.00000000000E+00 0. -1.
         -3    1    1    2    0  502 -0.20710295664E+02  0.22582201877E+02  0.13955527143E+02  0.33669406379E+02  0.00000000000E+00 0.  1.
<scales pt_clust_5="13000.00000" pt_clust_6="13000.00000" pt_clust_7="13000.00000" pt_clust_8="13000.00000" pt_clust_9="30.64102"></scales>
<clustering>
<clus scale="   30.641">  1  9  2 -1</clus>
<clus scale="   81.207">  5  6 -1 -1</clus>
<clus scale="   91.001">  7  8 -1 -1</clus>
<clus scale="   92.066">  2  5  1 -1</clus>
<clus scale="   30.641">  1  5  2 -1</clus>
</clustering>
</event>
<event>
 9    1  0.4067873E-005  0.1568301E+03  0.7546771E-02  0.1194032E+00
         21   -1    0    0  501  502  0.00000000000E+00  0.00000000000E+00  0.11379533889E+03  0.11379533889E+03  0.00000000000E+00 0.  1.
          1   -1    0    0  502    0 -0.00000000000E+00 -0.00000000000E+00 -0.57498880537E+03  0.57498880537E+03  0.00000000000E+00 0. -1.
         23    2    1    2    0    0  0.11013420741E+02  0.12947395006E+03 -0.47642752647E+03  0.50202002654E+03  0.90311239026E+02 0.  0.
        -24    2    1    2    0    0 -0.33617033796E+02 -0.11665359834E+03 -0.15940961649E+02  0.14617881600E+03  0.79849640079E+02 0.  0.
         11    1    4    4    0    0 -0.21785586208E+02 -0.13586170341E+02 -0.32184221440E+02  0.41170619387E+02  0.00000000000E+00 0. -1.
        -12    1    4    4    0    0 -0.11831447588E+02 -0.10306742800E+03  0.16243259792E+02  0.10500819661E+03  0.00000000000E+00 0.  1.
        -13    1    3    3    0    0  0.37332600339E+02  0.15940183405E+02 -0.98694367093E+02  0.10671640263E+03  0.00000000000E+00 0.  1.
         13    1    3    3    0    0 -0.26319179598E+02  0.11353376666E+03 -0.37773315937E+03  0.39530362391E+03  0.00000000000E+00 0. -1.
          2    1    1    2  501    0  0.22603613055E+02 -0.12820351724E+02  0.31175021635E+02  0.40585301716E+02  0.00000000000E+00 0. -1.
<scales pt_clust_5="13000.00000" pt_clust_6="13000.00000" pt_clust_7="13000.00000" pt_clust_8="13000.00000" pt_clust_9="25.98624"></scales>
<clustering>
<clus scale="   25.986">  1  9  2 -1</clus>
<clus scale="   79.850">  5  6 -1 -1</clus>
<clus scale="   90.311">  7  8 -1 -1</clus>
<clus scale="  151.048">  1  5  2 -1</clus>
<clus scale="   25.986">  1  5  2 -1</clus>
</clustering>
</event>
<event>
 9    1  0.4067873E-005  0.9802820E+02  0.7546771E-02  0.1285676E+00
          1   -1    0    0  502    0 -0.00000000000E+00  0.00000000000E+00  0.27213720045E+03  0.27213720045E+03  0.00000000000E+00 0. -1.
         21   -1    0    0  501  502  0.00000000000E+00 -0.00000000000E+00 -0.10271084339E+03  0.10271084339E+03  0.00000000000E+00 0.  1.
         23    2    1    2    0    0  0.28354465346E+02  0.16491560694E+02  0.20835302298E+03  0.22970924455E+03  0.90991249949E+02 0.  0.
        -24    2    1    2    0    0 -0.56675177855E+02 -0.15534664077E+02 -0.13791731074E+02  0.10726079304E+03  0.88663771095E+02 0.  0.
         11    1    4    4    0    0 -0.41542270087E+02  0.28943754586E+02  0.14183779556E+02  0.52580231418E+02  0.00000000000E+00 0. -1.
        -12    1    4    4    0    0 -0.15132907769E+02 -0.44478418663E+02 -0.27975510630E+02  0.54680561622E+02  0.00000000000E+00 0.  1.
        -11    1    3    3    0    0  0.33286672603E+02 -0.27454305122E+02  0.15240311149E+03  0.15839333899E+03  0.00000000000E+00 0.  1.
         11    1    3    3    0    0 -0.49322072576E+01  0.43945865816E+02  0.55949911489E+02  0.71315905564E+02  0.00000000000E+00 0. -1.
          2    1    1    2  501    0  0.28320712510E+02 -0.95689661771E+00 -0.25134934844E+02  0.37878006254E+02  0.00000000000E+00 0. -1.
<scales pt_clust_5="13000.00000" pt_clust_6="13000.00000" pt_clust_7="13000.00000" pt_clust_8="13000.00000" pt_clust_9="28.33687"></scales>
<clustering>
<clus scale="   28.337">  2  9  1 -1</clus>
<clus scale="   88.664">  5  6 -1 -1</clus>
<clus scale="   90.991">  7  8 -1 -1</clus>
<clus scale="   95.872">  2  5  1 -1</clus>
<clus scale="   28.337">  2  5  1 -1</clus>
</clustering>
</event>
<event>
 9    1  0.4067873E-005  0.1168261E+03  0.7546771E-02  0.1252409E+00
         21   -1    0    0  501  502  0.00000000000E+00  0.00000000000E+00  0.23789174119E+03  0.23789174119E+03  0.00000000000E+00 0.  1.
          3   -1    0    0  502    0 -0.00000000000E+00 -0.00000000000E+00 -0.12604423431E+03  0.12604423431E+03  0.00000000000E+00 0. -1.
        -24    2    1    2    0    0  0.70931011452E+02  0.71531682939E+01 -0.73244952030E+02  0.13015138626E+03  0.80574091026E+02 0.  0.
         23    2    1    2    0    0 -0.71756355981E+02 -0.29160579858E+02  0.16233685225E+03  0.20211717711E+03  0.92188858553E+02 0.  0.
         11    1    3    3    0    0  0.11642582867E+02  0.33589088447E+02 -0.49684843559E+02  0.61093046069E+02  0.00000000000E+00 0. -1.
        -12    1    3    3    0    0  0.59288428585E+02 -0.26435920153E+02 -0.23560108471E+02  0.69058340189E+02  0.00000000000E+00 0.  1.
        -11    1    4    4    0    0 -0.50170364356E+02  0.29143783079E+02  0.72339715420E+02  0.92733273310E+02  0.00000000000E+00 0. -1.
         11    1    4    4    0    0 -0.21585991625E+02 -0.58304362937E+02  0.89997136832E+02  0.10938390380E+03  0.00000000000E+00 0.  1.
          4    1    1    2  501    0  0.82534452912E+00  0.22007411564E+02  0.22755606658E+02  0.31667412141E+02  0.00000000000E+00 0. -1.
<scales pt_clust_5="13000.00000" pt_clust_6="13000.00000" pt_clust_7="13000.00000" pt_clust_8="13000.00000" pt_clust_9="22.02288"></scales>
<clustering>
<clus scale="   22.023">  1  9  2 -1</clus>
<clus scale="   80.574">  5  6 -1 -1</clus>
<clus scale="   92.189">  7  8 -1 -1</clus>
<clus scale="  107.897">  2  5  1 -1</clus>
<clus scale="   22.023">  1  5  2 -1</clus>
</clustering>
</event>
<event>
 9    1  0.4067873E-005  0.9650658E+02  0.7546771E-02  0.1292294E+00
          3   -1    0    0  502    0 -0.00000000000E+00  0.00000000000E+00  0.36413039636E+02  0.36413039636E+02  0.00000000000E+00 0. -1.
         21   -1    0    0  501  502  0.00000000000E+00 -0.00000000000E+00 -0.62599228919E+03  0.62599228919E+03  0.00000000000E+00 0.  1.
        -24    2    1    2    0    0  0.12579168292E+02  0.43918135777E+02 -0.58841650070E+02  0.11035366330E+03  0.81415926544E+02 0.  0.
         23    2    1    2    0    0 -0.23129665325E+02  0.13242867704E+02 -0.31733476048E+03  0.33087421414E+03  0.89811137463E+02 0.  0.
         11    1    3    3    0    0  0.31340349238E+02  0.41074244843E+02 -0.34255566188E+01  0.51778813408E+02  0.00000000000E+00 0. -1.
        -12    1    3    3    0    0 -0.18761180946E+02  0.28438909337E+01 -0.55416093451E+02  0.58574849889E+02  0.00000000000E+00 0.  1.
        -11    1    4    4    0    0 -0.25954773706E+02 -0.33025906253E+02 -0.96804268128E+02  0.10552453312E+03  0.00000000000E+00 0. -1.
         11    1    4    4    0    0  0.28251083805E+01  0.46268773957E+02 -0.22053049235E+03  0.22534968102E+03  0.00000000000E+00 0.  1.
          4    1    1    2  501    0  0.10550497033E+02 -0.57161003481E+02 -0.21340283901E+03  0.22117745139E+03  0.00000000000E+00 0. -1.
<scales pt_clust_5="13000.00000" pt_clust_6="13000.00000" pt_clust_7="13000.00000" pt_clust_8="13000.00000" pt_clust_9="58.12653"></scales>
<clustering>
<clus scale="   58.127">  2  9  1 -1</clus>
<clus scale="   81.416">  5  6 -1 -1</clus>
<clus scale="   88.747">  1  5  2 -1</clus>
<clus scale="   89.811">  7  8 -1 -1</clus>
<clus scale="   58.127">  2  5  1 -1</clus>
</clustering>
</event>
<event>
 9    1  0.4067873E-005  0.3164326E+03  0.7546771E-02  0.1077303E+00
          1   -1    0    0  502    0 -0.00000000000E+00  0.00000000000E+00  0.80112421730E+03  0.80112421730E+03  0.00000000000E+00 0. -1.
         21   -1    0    0  501  502  0.00000000000E+00 -0.00000000000E+00 -0.24744019586E+03  0.24744019586E+03  0.00000000000E+00 0.  1.
        -24    2    1    2    0    0  0.65736268419E+02 -0.27402574842E+02  0.66869211249E+01  0.10778625314E+03  0.80628799803E+02 0.  0.
         23    2    1    2    0    0  0.98409093743E+02 -0.14127953333E+03 -0.12400450561E+03  0.22969412231E+03  0.87965994248E+02 0.  0.
         13    1    3    3    0    0  0.38780144882E+02  0.26728115122E+02  0.36079377722E+01  0.47236733481E+02  0.00000000000E+00 0. -1.
        -14    1    3    3    0    0  0.26956123537E+02 -0.54130689964E+02  0.30789833527E+01  0.60549519656E+02  0.00000000000E+00 0.  1.
        -11    1    4    4    0    0  0.41772499167E+02 -0.19333568533E+02  0.10928641034E+01  0.46042620590E+02  0.00000000000E+00 0. -1.
         11    1    4    4    0    0  0.56636594576E+02 -0.12194596479E+03 -0.12509736972E+03  0.18365150172E+03  0.00000000000E+00 0.  1.
          2    1    1    2  501    0 -0.16414536216E+03  0.16868210817E+03  0.67100160593E+03  0.71108403772E+03  0.00000000000E+00 0. -1.
<scales pt_clust_5="13000.00000" pt_clust_6="13000.00000" pt_clust_7="13000.00000" pt_clust_8="13000.00000" pt_clust_9="235.36654"></scales>
<clustering>
<clus scale="   80.629">  5  6 -1 -1</clus>
<clus scale="   87.966">  7  8 -1 -1</clus>
<clus scale="  103.942">  5  7 -1 -1</clus>
<clus scale="  235.367">  2  9  1 -1</clus>
<clus scale="  235.367">  2  5  1 -1</clus>
</clustering>
</event>
<event>
 9    1  0.4067873E-005  0.1610630E+03  0.7546771E-02  0.1189184E+00
         21   -1    0    0  501  502  0.00000000000E+00  0.00000000000E+00  0.12119880346E+04  0.12119880346E+04  0.00000000000E+00 0. -1.
         -4   -1    0    0    0  501 -0.00000000000E+00 -0.00000000000E+00 -0.59841867201E+02  0.59841867201E+02  0.00000000000E+00 0.  1.
         23    2    1    2    0    0 -0.15458085820E+03 -0.20592162788E+02  0.48626038101E+03  0.51877051585E+03  0.91402467609E+02 0.  0.
        -24    2    1    2    0    0  0.10306785716E+03 -0.49190722571E+02  0.65003032458E+03  0.66488548935E+03  0.80564140386E+02 0.  0.
         13    1    4    4    0    0  0.64307081827E+02  0.12276467048E+02  0.35895277365E+03  0.36487423330E+03  0.00000000000E+00 0. -1.
        -14    1    4    4    0    0  0.38760775337E+02 -0.61467189620E+02  0.29107755093E+03  0.30001125605E+03  0.00000000000E+00 0.  1.
        -11    1    3    3    0    0 -0.32701972459E+02 -0.45819752272E+02  0.15294037058E+03  0.16297124180E+03  0.00000000000E+00 0. -1.
         11    1    3    3    0    0 -0.12187888575E+03  0.25227589483E+02  0.33332001043E+03  0.35579927405E+03  0.00000000000E+00 0.  1.
         -3    1    1    2    0  502  0.51513001039E+02  0.69782885360E+02  0.15855461768E+02  0.88173896552E+02  0.00000000000E+00 0.  1.
<scales pt_clust_5="13000.00000" pt_clust_6="13000.00000" pt_clust_7="13000.00000" pt_clust_8="13000.00000" pt_clust_9="86.73666"></scales>
<clustering>
<clus scale="   80.564">  5  6 -1 -1</clus>
<clus scale="   86.737">  1  9  2 -1</clus>
<clus scale="   91.402">  7  8 -1 -1</clus>
<clus scale="  155.169">  1  5  2 -1</clus>
<clus scale="   86.737">  1  5  2 -1</clus>
</clustering>
</event>
<event>
 9    1  0.4067873E-005  0.1884778E+03  0.7546771E-02  0.1161406E+00
          1   -1    0    0  502    0 -0.00000000000E+00  0.00000000000E+00  0.12949773841E+04  0.12949773841E+04  0.00000000000E+00 0. -1.
         21   -1    0    0  501  502  0.00000000000E+00 -0.00000000000E+00 -0.52561136905E+02  0.52561136905E+02  0.00000000000E+00 0. -1.
        -24    2    1    2    0    0  0.53531135294E+02  0.90586253333E+02  0.28410052996E+03  0.32010158843E+03  0.10334633063E+03 0.  0.
         23    2    1    2    0    0 -0.17041900083E+03 -0.12850067473E+03  0.75581397500E+03  0.79056728052E+03  0.90480942534E+02 0.  0.
         11    1    3    3    0    0  0.61799703319E+02  0.38212654465E+02  0.75163219416E+02  0.10454147428E+03  0.00000000000E+00 0. -1.
        -12    1    3    3    0    0 -0.82685680251E+01  0.52373598868E+02  0.20893731055E+03  0.21556011415E+03  0.00000000000E+00 0.  1.
        -11    1    4    4    0    0 -0.35510948366E+02 -0.60775724159E+02  0.14233071059E+03  0.15878522374E+03  0.00000000000E+00 0.  1.
         11    1    4    4    0    0 -0.13490805246E+03 -0.67724950570E+02  0.61348326441E+03  0.63178205677E+03  0.00000000000E+00 0. -1.
          2    1    1    2  501    0  0.11688786553E+03  0.37914421397E+02  0.20250174222E+03  0.23686965204E+03  0.00000000000E+00 0. -1.
<scales pt_clust_5="13000.00000" pt_clust_6="13000.00000" pt_clust_7="13000.00000" pt_clust_8="13000.00000" pt_clust_9="122.88318"></scales>
<clustering>
<clus scale="   90.481">  7  8 -1 -1</clus>
<clus scale="  103.346">  5  6 -1 -1</clus>
<clus scale="  122.883">  2  9  1 -1</clus>
<clus scale="  181.742">  2  7  1 -1</clus>
<clus scale="  122.883">  2  5  1 -1</clus>
</clustering>
</event>
<event>
 9    1  0.4067873E-005  0.2531074E+03  0.7546771E-02  0.1129305E+00
         -2   -1    0    0    0  501 -0.00000000000E+00  0.00000000000E+00  0.33544829829E+03  0.33544829829E+03  0.00000000000E+00 0.  1.
         21   -1    0    0  501  502  0.00000000000E+00 -0.00000000000E+00 -0.33670816829E+03  0.33670816829E+03  0.00000000000E+00 0. -1.
        -24    2    1    2    0    0  0.12222351501E+03 -0.68464880097E+02  0.93748944681E+01  0.16188047779E+03  0.80569057422E+02 0.  0.
         23    2    1    2    0    0  0.11310536352E+03  0.18814972967E+03  0.39415859967E+02  0.24155827576E+03  0.92755843714E+02 0.  0.
         13    1    3    3    0    0  0.11892378462E+03 -0.76064151699E+02  0.25778776984E+02  0.14350319532E+03  0.00000000000E+00 0. -1.
        -14    1    3    3    0    0  0.32997303899E+01  0.75992716015E+01 -0.16403882516E+02  0.18377282474E+02  0.00000000000E+00 0.  1.
        -13    1    4    4    0    0  0.82887230492E+02  0.12028108162E+03  0.69051745297E+02  0.16157343564E+03  0.00000000000E+00 0. -1.
         13    1    4    4    0    0  0.30218133025E+02  0.67868648042E+02 -0.29635885330E+02  0.79984840125E+02  0.00000000000E+00 0.  1.
         -1    1    1    2    0  502 -0.23532887853E+03 -0.11968484957E+03 -0.50050624431E+02  0.26871771302E+03  0.00000000000E+00 0.  1.
<scales pt_clust_5="13000.00000" pt_clust_6="13000.00000" pt_clust_7="13000.00000" pt_clust_8="13000.00000" pt_clust_9="235.49881"></scales>
<clustering>
<clus scale="   80.569">  5  6 -1 -1</clus>
<clus scale="   92.756">  7  8 -1 -1</clus>
<clus scale="  161.609">  1  5  2 -1</clus>
<clus scale="  235.499">  2  9  1 -1</clus>
<clus scale="  235.499">  2  5  1 -1</clus>
</clustering>
</event>
<event>
 9    1  0.4067873E-005  0.2083968E+03  0.7546771E-02  0.1143745E+00
         21   -1    0    0  501  502  0.00000000000E+00  0.00000000000E+00  0.28745385464E+03  0.28745385464E+03  0.00000000000E+00 0.  1.
         -2   -1    0    0    0  501 -0.00000000000E+00 -0.00000000000E+00 -0.22860854769E+03  0.22860854769E+03  0.00000000000E+00 0.  1.
        -24    2    1    2    0    0 -0.19207628698E+02  0.16478981412E+03  0.43018455021E+02  0.18861716093E+03  0.78747889428E+02 0.  0.
         23    2    1    2    0    0  0.56883490762E+02 -0.21209774470E+03  0.68879898618E+02  0.24699565071E+03  0.89672884459E+02 0.  0.
         11    1    3    3    0    0 -0.29554192664E+02  0.16796883876E+03  0.47285085051E+02  0.17698265555E+03  0.00000000000E+00 0. -1.
        -12    1    3    3    0    0  0.10346563965E+02 -0.31790246456E+01 -0.42666300299E+01  0.11634505378E+02  0.00000000000E+00 0.  1.
        -11    1    4    4    0    0  0.70321535328E+02 -0.17518924660E+03  0.81672617258E+02  0.20568618541E+03  0.00000000000E+00 0.  1.
         11    1    4    4    0    0 -0.13438044566E+02 -0.36908498098E+02 -0.12792718640E+02  0.41309465305E+02  0.00000000000E+00 0. -1.
         -1    1    1    2    0  502 -0.37675862064E+02  0.47307930586E+02 -0.53053046685E+02  0.80449590684E+02  0.00000000000E+00 0.  1.
<scales pt_clust_5="13000.00000" pt_clust_6="13000.00000" pt_clust_7="13000.00000" pt_clust_8="13000.00000" pt_clust_9="60.47739"></scales>
<clustering>
<clus scale="   60.477">  1  9  2 -1</clus>
<clus scale="   78.748">  5  6 -1 -1</clus>
<clus scale="   89.673">  7  8 -1 -1</clus>
<clus scale="  203.934">  2  5  1 -1</clus>
<clus scale="   60.477">  1  5  2 -1</clus>
</clustering>
</event>
<event>
 9    1  0.4067873E-005  0.9610963E+02  0.7546771E-02  0.1298078E+00
          3   -1    0    0  502    0 -0.00000000000E+00  0.00000000000E+00  0.31182267177E+02  0.31182267177E+02  0.00000000000E+00 0. -1.
         21   -1    0    0  501  502  0.00000000000E+00 -0.00000000000E+00 -0.45334349935E+03  0.45334349935E+03  0.00000000000E+00 0.  1.
         23    2    1    2    0    0  0.17666816577E+02 -0.96843471656E+01 -0.84617934091E+02  0.12772862570E+03  0.93533438224E+02 0.  0.
        -24    2    1    2    0    0 -0.32489166445E+02 -0.16304825713E+02 -0.24938858502E+03  0.26370367920E+03  0.77611666694E+02 0.  0.
         11    1    4    4    0    0  0.19413887166E+02 -0.26455082718E+02 -0.96438812919E+02  0.10186861663E+03  0.00000000000E+00 0. -1.
        -12    1    4    4    0    0 -0.51903053612E+02  0.10150257006E+02 -0.15294977210E+03  0.16183506257E+03  0.00000000000E+00 0.  1.
        -11    1    3    3    0    0 -0.84054781357E+01 -0.25060747256E+02  0.10096248047E+02  0.28295358989E+02  0.00000000000E+00 0. -1.
         11    1    3    3    0    0  0.26072294713E+02  0.15376400090E+02 -0.94714182138E+02  0.99433266713E+02  0.00000000000E+00 0.  1.
          4    1    1    2  501    0  0.14822349868E+02  0.25989172878E+02 -0.88154713070E+02  0.93093461633E+02  0.00000000000E+00 0. -1.
<scales pt_clust_5="13000.00000" pt_clust_6="13000.00000" pt_clust_7="13000.00000" pt_clust_8="13000.00000" pt_clust_9="29.91888"></scales>
<clustering>
<clus scale="   29.919">  2  9  1 -1</clus>
<clus scale="   77.612">  5  6 -1 -1</clus>
<clus scale="   80.698">  2  5  1 -1</clus>
<clus scale="   93.533">  7  8 -1 -1</clus>
<clus scale="   29.919">  2  5  1 -1</clus>
</clustering>
</event>
<event>
 9    1  0.4067873E-005  0.1206562E+03  0.7546771E-02  0.1245013E+00
         -4   -1    0    0    0  501 -0.00000000000E+00  0.00000000000E+00  0.17453029994E+03  0.17453029994E+03  0.00000000000E+00 0.  1.
         21   -1    0    0  501  502  0.00000000000E+00 -0.00000000000E+00 -0.10836090447E+03  0.10836090447E+03  0.00000000000E+00 0. -1.
         23    2    1    2    0    0  0.83921902681E+02  0.31459288525E+00  0.88355617567E+02  0.15303742980E+03  0.92578372451E+02 0.  0.
        -24    2    1    2    0    0 -0.64917024989E+02  0.98571584652E+01 -0.14316993296E+02  0.10690655989E+03  0.83142363109E+02 0.  0.
         13    1    4    4    0    0 -0.65334996343E+02  0.34515558566E+02  0.71147713700E+01  0.74233452714E+02  0.00000000000E+00 0. -1.
        -14    1    4    4    0    0  0.41797135420E+00 -0.24658400101E+02 -0.21431764666E+02  0.32673107172E+02  0.00000000000E+00 0.  1.
        -11    1    3    3    0    0  0.66379587930E+02  0.40048008685E+02  0.37375863476E+02  0.86064207799E+02  0.00000000000E+00 0.  1.
         11    1    3    3    0    0  0.17542314751E+02 -0.39733415800E+02  0.50979754091E+02  0.66973222001E+02  0.00000000000E+00 0. -1.
         -3    1    1    2    0  502 -0.19004877693E+02 -0.10171751350E+02 -0.78692287947E+01  0.22947214721E+02  0.00000000000E+00 0.  1.
<scales pt_clust_5="13000.00000" pt_clust_6="13000.00000" pt_clust_7="13000.00000" pt_clust_8="13000.00000" pt_clust_9="21.55574"></scales>
<clustering>
<clus scale="   21.556">  2  9  1 -1</clus>
<clus scale="   83.142">  5  6 -1 -1</clus>
<clus scale="   92.578">  7  8 -1 -1</clus>
<clus scale="  113.577">  2  5  1 -1</clus>
<clus scale="   21.556">  2  5  1 -1</clus>
</clustering>
</event>
<event>
 9    1  0.4067873E-005  0.1946891E+03  0.7546771E-02  0.1177318E+00
         21   -1    0    0  501  502  0.00000000000E+00  0.00000000000E+00  0.26060869093E+03  0.26060869093E+03  0.00000000000E+00 0. -1.
          3   -1    0    0  502    0 -0.00000000000E+00 -0.00000000000E+00 -0.24989527866E+03  0.24989527866E+03  0.00000000000E+00 0. -1.
         23    2    1    2    0    0 -0.73813988882E+01 -0.69157453884E+02  0.18394769797E+02  0.11601039948E+03  0.91009926676E+02 0.  0.
        -24    2    1    2    0    0 -0.24949885965E+02  0.20139663060E+03  0.80161007743E+02  0.23247877766E+03  0.80234003226E+02 0.  0.
         11    1    4    4    0    0 -0.53004045121E+02  0.11990674733E+03  0.58831690671E+02  0.14369490138E+03  0.00000000000E+00 0. -1.
        -12    1    4    4    0    0  0.28054159156E+02  0.81489883265E+02  0.21329317072E+02  0.88783876280E+02  0.00000000000E+00 0.  1.
        -11    1    3    3    0    0  0.99367825129E+01 -0.80283617880E+02  0.36357280744E+02  0.88690759438E+02  0.00000000000E+00 0. -1.
         11    1    3    3    0    0 -0.17318181401E+02  0.11126163996E+02 -0.17962510947E+02  0.27319640039E+02  0.00000000000E+00 0.  1.
          4    1    1    2  501    0  0.32331284853E+02 -0.13223917671E+03 -0.87842365275E+02  0.16201479246E+03  0.00000000000E+00 0. -1.
<scales pt_clust_5="13000.00000" pt_clust_6="13000.00000" pt_clust_7="13000.00000" pt_clust_8="13000.00000" pt_clust_9="177.38766"></scales>
<clustering>
<clus scale="   80.234">  5  6 -1 -1</clus>
<clus scale="   91.010">  7  8 -1 -1</clus>
<clus scale="  114.543">  2  7  1 -1</clus>
<clus scale="  177.388">  1  9  2 -1</clus>
<clus scale="  177.388">  1  5  2 -1</clus>
</clustering>
</event>
<event>
 9    1  0.4067873E-005  0.1579100E+03  0.7546771E-02  0.1192598E+00
         21   -1    0    0  501  502  0.00000000000E+00  0.00000000000E+00  0.32183724684E+02  0.32183724684E+02  0.00000000000E+00 0. -1.
          1   -1    0    0  502    0 -0.00000000000E+00 -0.00000000000E+00 -0.12172654279E+04  0.12172654279E+04  0.00000000000E+00 0. -1.
         23    2    1    2    0    0  0.76453517918E+02 -0.64066306822E+02 -0.32753488241E+03  0.35332915404E+03  0.87251130776E+02 0.  0.
        -24    2    1    2    0    0 -0.14687882346E+03  0.83427656609E+02 -0.57469198072E+03  0.60398741549E+03  0.77436184675E+02 0.  0.
         13    1    4    4    0    0 -0.14318082979E+03  0.79030308131E+02 -0.57540738323E+03  0.59819745594E+03  0.00000000000E+00 0. -1.
        -14    1    4    4    0    0 -0.36979936712E+01  0.43973484779E+01  0.71540250630E+00  0.57899595486E+01  0.00000000000E+00 0.  1.
        -11    1    3    3    0    0  0.42057224477E+02 -0.99337417172E+01 -0.40534348552E+02  0.59249664706E+02  0.00000000000E+00 0. -1.
         11    1    3    3    0    0  0.34396293441E+02 -0.54132565105E+02 -0.28700053386E+03  0.29407948933E+03  0.00000000000E+00 0.  1.
          2    1    1    2  501    0  0.70425305541E+02 -0.19361349786E+02 -0.28285484004E+03  0.29213258301E+03  0.00000000000E+00 0. -1.
<scales pt_clust_5="13000.00000" pt_clust_6="13000.00000" pt_clust_7="13000.00000" pt_clust_8="13000.00000" pt_clust_9="73.03828"></scales>
<clustering>
<clus scale="   73.038">  1  9  2 -1</clus>
<clus scale="   77.436">  5  6 -1 -1</clus>
<clus scale="   87.251">  7  8 -1 -1</clus>
<clus scale="  152.706">  1  5  2 -1</clus>
<clus scale="   73.038">  1  5  2 -1</clus>
</clustering>
</event>
<event>
 9    1  0.4067873E-005  0.2222167E+03  0.7546771E-02  0.1148630E+00
          1   -1    0    0  502    0 -0.00000000000E+00  0.00000000000E+00  0.51778599963E+03  0.51778599963E+03  0.00000000000E+00 0. -1.
         21   -1    0    0  501  502  0.00000000000E+00 -0.00000000000E+00 -0.24502110035E+03  0.24502110035E+03  0.00000000000E+00 0. -1.
        -24    2    1    2    0    0 -0.76259988179E+02  0.10050438838E+03 -0.28452835469E+02  0.15237729811E+03  0.80576418723E+02 0.  0.
         23    2    1    2    0    0 -0.55837266331E+02 -0.24700315641E+03  0.31359103913E+03  0.41278195254E+03  0.89001353523E+02 0.  0.
         11    1    3    3    0    0 -0.68115744567E+02  0.67321384588E+02  0.15172116299E+02  0.96964512033E+02  0.00000000000E+00 0. -1.
        -12    1    3    3    0    0 -0.81442436117E+01  0.33183003788E+02 -0.43624951768E+02  0.55412786080E+02  0.00000000000E+00 0.  1.
        -11    1    4    4    0    0 -0.67107628277E+02 -0.11203367552E+03  0.12653381822E+03  0.18183999938E+03  0.00000000000E+00 0.  1.
         11    1    4    4    0    0  0.11270361946E+02 -0.13496948090E+03  0.18705722091E+03  0.23094195315E+03  0.00000000000E+00 0. -1.
          2    1    1    2  501    0  0.13209725451E+03  0.14649876804E+03 -0.12373304382E+02  0.19764784934E+03  0.00000000000E+00 0. -1.
<scales pt_clust_5="13000.00000" pt_clust_6="13000.00000" pt_clust_7="13000.00000" pt_clust_8="13000.00000" pt_clust_9="203.61491"></scales>
<clustering>
<clus scale="   80.576">  5  6 -1 -1</clus>
<clus scale="   89.001">  7  8 -1 -1</clus>
<clus scale="  149.697">  1  5  2 -1</clus>
<clus scale="  203.615">  2  9  1 -1</clus>
<clus scale="  203.615">  2  5  1 -1</clus>
</clustering>
</event>
<event>
 9    1  0.4067873E-005  0.9599875E+02  0.7546771E-02  0.1293684E+00
         21   -1    0    0  501  502  0.00000000000E+00  0.00000000000E+00  0.25928919636E+03  0.25928919636E+03  0.00000000000E+00 0. -1.
         -2   -1    0    0    0  501 -0.00000000000E+00 -0.00000000000E+00 -0.34689512167E+03  0.34689512167E+03  0.00000000000E+00 0.  1.
        -24    2    1    2    0    0  0.93331628600E+01 -0.30005586841E+02 -0.32331490419E+03  0.33516158260E+03  0.82542813170E+02 0.  0.
         23    2    1    2    0    0  0.44485942527E+01  0.12689169365E+01  0.11862309416E+03  0.14967679431E+03  0.91160869598E+02 0.  0.
         11    1    3    3    0    0  0.17289035843E+02  0.10957868954E+02 -0.18773642454E+02  0.27774724182E+02  0.00000000000E+00 0. -1.
        -12    1    3    3    0    0 -0.79558729828E+01 -0.40963455796E+02 -0.30454126174E+03  0.30738685842E+03  0.00000000000E+00 0.  1.
        -11    1    4    4    0    0 -0.16014097141E+02 -0.14345225617E+02  0.12185322219E+03  0.12373538121E+03  0.00000000000E+00 0. -1.
         11    1    4    4    0    0  0.20462691394E+02  0.15614142553E+02 -0.32301280255E+01  0.25941413104E+02  0.00000000000E+00 0.  1.
         -1    1    1    2    0  502 -0.13781757113E+02  0.28736669905E+02  0.11708588472E+03  0.12134594113E+03  0.00000000000E+00 0.  1.
<scales pt_clust_5="13000.00000" pt_clust_6="13000.00000" pt_clust_7="13000.00000" pt_clust_8="13000.00000" pt_clust_9="31.87057"></scales>
<clustering>
<clus scale="   31.871">  1  9  2 -1</clus>
<clus scale="   82.543">  5  6 -1 -1</clus>
<clus scale="   87.857">  2  5  1 -1</clus>
<clus scale="   91.161">  7  8 -1 -1</clus>
<clus scale="   31.871">  1  5  2 -1</clus>
</clustering>
</event>
<event>
 9    1  0.4067873E-005  0.1079565E+03  0.7546771E-02  0.1268322E+00
         -2   -1    0    0    0  501 -0.00000000000E+00  0.00000000000E+00  0.74780965303E+02  0.74780965303E+02  0.00000000000E+00 0.  1.
         21   -1    0    0  501  502  0.00000000000E+00 -0.00000000000E+00 -0.27756619611E+03  0.27756619611E+03  0.00000000000E+00 0. -1.
        -24    2    1    2    0    0  0.36968476339E+01  0.64960911500E+02  0.13016504419E+02  0.10322131659E+03  0.79067212584E+02 0.  0.
         23    2    1    2    0    0 -0.15197286100E+02 -0.45171272793E+02 -0.16460889444E+03  0.19304913992E+03  0.88884649433E+02 0.  0.
         13    1    3    3    0    0  0.21621444945E+02  0.14440546802E+02 -0.26115707349E+02  0.36851681696E+02  0.00000000000E+00 0. -1.
        -14    1    3    3    0    0 -0.17924597311E+02  0.50520364699E+02  0.39132211768E+02  0.66369634894E+02  0.00000000000E+00 0.  1.
        -13    1    4    4    0    0  0.32881698284E+02 -0.40993846761E+02 -0.82965664797E+02  0.98208976624E+02  0.00000000000E+00 0. -1.
         13    1    4    4    0    0 -0.48078984384E+02 -0.41774260312E+01 -0.81643229642E+02  0.94840163296E+02  0.00000000000E+00 0.  1.
         -1    1    1    2    0  502  0.11500438466E+02 -0.19789638708E+02 -0.51192840790E+02  0.56076704907E+02  0.00000000000E+00 0.  1.
<scales pt_clust_5="13000.00000" pt_clust_6="13000.00000" pt_clust_7="13000.00000" pt_clust_8="13000.00000" pt_clust_9="22.88864"></scales>
<clustering>
<clus scale="   22.889">  2  9  1 -1</clus>
<clus scale="   79.067">  5  6 -1 -1</clus>
<clus scale="   88.885">  7  8 -1 -1</clus>
<clus scale="  100.029">  1  5  2 -1</clus>
<clus scale="   22.889">  2  5  1 -1</clus>
</clustering>
</event>
<event>
 9    1  0.4067873E-005  0.9068525E+02  0.7546771E-02  0.1306226E+00
         -2   -1    0    0    0  501 -0.00000000000E+00  0.00000000000E+00  0.96352551042E+02  0.96352551042E+02  0.00000000000E+00 0.  1.
         21   -1    0    0  501  502  0.00000000000E+00 -0.00000000000E+00 -0.24185561025E+03  0.24185561025E+03  0.00000000000E+00 0. -1.
        -24    2    1    2    0    0  0.95440485709E+01 -0.19692745459E+02  0.54320548904E+02  0.99893466696E+02  0.80926445421E+02 0.  0.
         23    2    1    2    0    0  0.65300297960E+01 -0.15653517494E+02 -0.14789251360E+03  0.17347201670E+03  0.89065543835E+02 0.  0.
         11    1    3    3    0    0 -0.23386273338E+02 -0.35624270575E+02  0.12668525290E+02  0.44457822345E+02  0.00000000000E+00 0. -1.
        -12    1    3    3    0    0  0.32930321909E+02  0.15931525116E+02  0.41652023613E+02  0.55435644351E+02  0.00000000000E+00 0.  1.
        -13    1    4    4    0    0  0.32932218544E+02 -0.30907944226E+02 -0.36763535377E+02  0.58235638297E+02  0.00000000000E+00 0.  1.
         13    1    4    4    0    0 -0.26402188748E+02  0.15254426732E+02 -0.11112897822E+03  0.11523637840E+03  0.00000000000E+00 0. -1.
         -1    1    1    2    0  502 -0.16074078367E+02  0.35346262954E+02 -0.51931094513E+02  0.64842677902E+02  0.00000000000E+00 0.  1.
<scales pt_clust_5="13000.00000" pt_clust_6="13000.00000" pt_clust_7="13000.00000" pt_clust_8="13000.00000" pt_clust_9="38.82955"></scales>
<clustering>
<clus scale="   38.830">  2  9  1 -1</clus>
<clus scale="   80.926">  5  6 -1 -1</clus>
<clus scale="   82.706">  1  5  2 -1</clus>
<clus scale="   89.066">  7  8 -1 -1</clus>
<clus scale="   38.830">  2  5  1 -1</clus>
</clustering>
</event>
<event>
 9    1  0.4067873E-005  0.1223181E+03  0.7546771E-02  0.1240224E+00
         21   -1    0    0  501  502  0.00000000000E+00  0.00000000000E+00  0.10407570776E+03  0.10407570776E+03  0.00000000000E+00 0. -1.
         -2   -1    0    0    0  501 -0.00000000000E+00 -0.00000000000E+00 -0.29110232131E+03  0.29110232131E+03  0.00000000000E+00 0.  1.
         23    2    1    2    0    0 -0.80792440703E+02 -0.46903071286E+01 -0.20634850438E+03  0.23936019489E+03  0.90355853076E+02 0.  0.
        -24    2    1    2    0    0  0.86163059091E+02  0.30216130136E+02  0.58919095188E+01  0.12647885703E+03  0.87321815180E+02 0.  0.
         13    1    4    4    0    0  0.63745020955E+02  0.31725112823E+02  0.42940598610E+02  0.83149296384E+02  0.00000000000E+00 0. -1.
        -14    1    4    4    0    0  0.22418038136E+02 -0.15089826876E+01 -0.37048689092E+02  0.43329560649E+02  0.00000000000E+00 0.  1.
        -11    1    3    3    0    0 -0.90907760398E+02 -0.28450205184E+02 -0.15620956564E+03  0.18296191809E+03  0.00000000000E+00 0.  1.
         11    1    3    3    0    0  0.10115319695E+02  0.23759898056E+02 -0.50138938736E+02  0.56398276798E+02  0.00000000000E+00 0. -1.
         -1    1    1    2    0  502 -0.53706183871E+01 -0.25525823007E+02  0.13429981307E+02  0.29338977145E+02  0.00000000000E+00 0.  1.
<scales pt_clust_5="13000.00000" pt_clust_6="13000.00000" pt_clust_7="13000.00000" pt_clust_8="13000.00000" pt_clust_9="26.08469"></scales>
<clustering>
<clus scale="   26.085">  1  9  2 -1</clus>
<clus scale="   87.322">  5  6 -1 -1</clus>
<clus scale="   90.356">  7  8 -1 -1</clus>
<clus scale="  120.094">  1  5  2 -1</clus>
<clus scale="   26.085">  1  5  2 -1</clus>
</clustering>
</event>
<event>
 9    1  0.4067873E-005  0.1917990E+03  0.7546771E-02  0.1157893E+00
         21   -1    0    0  501  502  0.00000000000E+00  0.00000000000E+00  0.28669177138E+03  0.28669177138E+03  0.00000000000E+00 0.  1.
         -4   -1    0    0    0  501 -0.00000000000E+00 -0.00000000000E+00 -0.90023832383E+03  0.90023832383E+03  0.00000000000E+00 0.  1.
         23    2    1    2    0    0  0.19178248628E+03 -0.27882547233E+02 -0.73784129960E+03  0.76818507828E+03  0.90225121867E+02 0.  0.
        -24    2    1    2    0    0 -0.11032480986E+03 -0.49921182720E+02 -0.94157088957E+02  0.17296060298E+03  0.79913231876E+02 0.  0.
         11    1    4    4    0    0 -0.97627621244E+02 -0.14998732590E+02 -0.93179679627E+02  0.13578868548E+03  0.00000000000E+00 0. -1.
        -12    1    4    4    0    0 -0.12697188612E+02 -0.34922450130E+02 -0.97740932997E+00  0.37171917501E+02  0.00000000000E+00 0.  1.
        -11    1    3    3    0    0  0.17627385139E+03  0.59779206788E+01 -0.59779568165E+03  0.62327191756E+03  0.00000000000E+00 0.  1.
         11    1    3    3    0    0  0.15508634887E+02 -0.33860467912E+02 -0.14004561794E+03  0.14491316071E+03  0.00000000000E+00 0. -1.
         -3    1    1    2    0  502 -0.81457676422E+02  0.77803729953E+02  0.21845183611E+03  0.24578441395E+03  0.00000000000E+00 0.  1.
<scales pt_clust_5="13000.00000" pt_clust_6="13000.00000" pt_clust_7="13000.00000" pt_clust_8="13000.00000" pt_clust_9="112.64446"></scales>
<clustering>
<clus scale="   79.913">  5  6 -1 -1</clus>
<clus scale="   90.225">  7  8 -1 -1</clus>
<clus scale="  112.644">  1  9  2 -1</clus>
<clus scale="  187.169">  1  5  2 -1</clus>
<clus scale="  112.644">  1  5  2 -1</clus>
</clustering>
</event>
<event>
 9    1  0.4067873E-005  0.9605612E+02  0.7546771E-02  0.1294788E+00
         -2   -1    0    0    0  501 -0.00000000000E+00  0.00000000000E+00  0.17885844018E+03  0.17885844018E+03  0.00000000000E+00 0.  1.
         21   -1    0    0  501  502  0.00000000000E+00 -0.00000000000E+00 -0.77083711506E+02  0.77083711506E+02  0.00000000000E+00 0.  1.
        -24    2    1    2    0    0  0.17538543140E+02 -0.49638595245E+01  0.28528208695E+02  0.87600081858E+02  0.80794029812E+02 0.  0.
         23    2    1    2    0    0 -0.37006555227E+02 -0.35181770720E+02  0.37928385489E+02  0.11143824091E+03  0.91502333247E+02 0.  0.
         11    1    3    3    0    0 -0.98117994699E+01  0.33768580341E+02  0.15481836267E+02  0.38422333106E+02  0.00000000000E+00 0. -1.
        -12    1    3    3    0    0  0.27350342609E+02 -0.38732439865E+02  0.13046372428E+02  0.49177748752E+02  0.00000000000E+00 0.  1.
        -11    1    4    4    0    0  0.27286847972E+01 -0.25464933233E+02  0.59799047289E+02  0.65052552616E+02  0.00000000000E+00 0. -1.
         11    1    4    4    0    0 -0.39735240024E+02 -0.97168374868E+01 -0.21870661800E+02  0.46385688290E+02  0.00000000000E+00 0.  1.
         -1    1    1    2    0  502  0.19468012088E+02  0.40145630244E+02  0.35318134494E+02  0.56903828926E+02  0.00000000000E+00 0.  1.
<scales pt_clust_5="13000.00000" pt_clust_6="13000.00000" pt_clust_7="13000.00000" pt_clust_8="13000.00000" pt_clust_9="44.61700"></scales>
<clustering>
<clus scale="   44.617">  2  9  1 -1</clus>
<clus scale="   80.794">  5  6 -1 -1</clus>
<clus scale="   85.917">  1  5  2 -1</clus>
<clus scale="   91.502">  7  8 -1 -1</clus>
<clus scale="   44.617">  2  5  1 -1</clus>
</clustering>
</event>
<event>
 9    1  0.4067873E-005  0.1772642E+03  0.7546771E-02  0.1172045E+00
          1   -1    0    0  502    0 -0.00000000000E+00  0.00000000000E+00  0.56365489543E+03  0.56365489543E+03  0.00000000000E+00 0. -1.
         21   -1    0    0  501  502  0.00000000000E+00 -0.00000000000E+00 -0.10808120795E+03  0.10808120795E+03  0.00000000000E+00 0. -1.
        -24    2    1    2    0    0  0.14591868342E+03  0.52889224517E+02  0.33987043891E+03  0.38195853792E+03  0.79315050273E+02 0.  0.
         23    2    1    2    0    0 -0.13731448459E+03 -0.20927330097E+02 -0.29199215672E+01  0.16662298201E+03  0.91986256410E+02 0.  0.
         13    1    3    3    0    0  0.93294316488E+02  0.42315695270E+02  0.29405389465E+03  0.31138744437E+03  0.00000000000E+00 0. -1.
        -14    1    3    3    0    0  0.52624366933E+02  0.10573529247E+02  0.45816544267E+02  0.70571093547E+02  0.00000000000E+00 0.  1.
        -11    1    4    4    0    0 -0.42726053431E+02 -0.41365284774E+02  0.27028658668E+02  0.65323432363E+02  0.00000000000E+00 0.  1.
         11    1    4    4    0    0 -0.94588431155E+02  0.20437954677E+02 -0.29948580235E+02  0.10129954964E+03  0.00000000000E+00 0. -1.
          2    1    1    2  501    0 -0.86041988341E+01 -0.31961894420E+02  0.11862317013E+03  0.12315458345E+03  0.00000000000E+00 0. -1.
<scales pt_clust_5="13000.00000" pt_clust_6="13000.00000" pt_clust_7="13000.00000" pt_clust_8="13000.00000" pt_clust_9="33.09979"></scales>
<clustering>
<clus scale="   33.100">  2  9  1 -1</clus>
<clus scale="   79.315">  5  6 -1 -1</clus>
<clus scale="   91.986">  7  8 -1 -1</clus>
<clus scale="  171.032">  1  5  2 -1</clus>
<clus scale="   33.100">  2  5  1 -1</clus>
</clustering>
</event>
<event>
 9    1  0.4067873E-005  0.1087147E+03  0.7546771E-02  0.1267631E+00
          1   -1    0    0  502    0 -0.00000000000E+00  0.00000000000E+00  0.43674948227E+03  0.43674948227E+03  0.00000000000E+00 0. -1.
         21   -1    0    0  501  502  0.00000000000E+00 -0.00000000000E+00 -0.12973974686E+03  0.12973974686E+03  0.00000000000E+00 0. -1.
        -24    2    1    2    0    0  0.36127225912E+02 -0.51176326393E+02  0.38004934409E+03  0.39313988621E+03  0.78722762580E+02 0.  0.
         23    2    1    2    0    0 -0.90483079371E+01  0.45297961438E+02 -0.69668693174E+01  0.10170138510E+03  0.90337463309E+02 0.  0.
         11    1    3    3    0    0  0.17354538883E+02 -0.70833923999E+02  0.25866066518E+03  0.26874516651E+03  0.00000000000E+00 0. -1.
        -12    1    3    3    0    0  0.18772687028E+02  0.19657597606E+02  0.12138867891E+03  0.12439471970E+03  0.00000000000E+00 0.  1.
        -13    1    4    4    0    0 -0.23667423953E+01  0.72067407546E+02 -0.13472497881E+02  0.73354078954E+02  0.00000000000E+00 0.  1.
         13    1    4    4    0    0 -0.66815655418E+01 -0.26769446108E+02  0.65056285637E+01  0.28347306151E+02  0.00000000000E+00 0. -1.
          2    1    1    2  501    0 -0.27078917975E+02  0.58783649543E+01 -0.66072739361E+02  0.71647957821E+02  0.00000000000E+00 0. -1.
<scales pt_clust_5="13000.00000" pt_clust_6="13000.00000" pt_clust_7="13000.00000" pt_clust_8="13000.00000" pt_clust_9="27.70962"></scales>
<clustering>
<clus scale="   27.710">  2  9  1 -1</clus>
<clus scale="   78.723">  5  6 -1 -1</clus>
<clus scale="   90.337">  7  8 -1 -1</clus>
<clus scale="   99.274">  1  5  2 -1</clus>
<clus scale="   27.710">  2  5  1 -1</clus>
</clustering>
</event>
<event>
 9    1  0.4067873E-005  0.1159706E+03  0.7546771E-02  0.1253952E+00
          3   -1    0    0  502    0 -0.00000000000E+00  0.00000000000E+00  0.45598169373E+03  0.45598169373E+03  0.00000000000E+00 0. -1.
         21   -1    0    0  501  502  0.00000000000E+00 -0.00000000000E+00 -0.11579839671E+03  0.11579839671E+03  0.00000000000E+00 0.  1.
        -24    2    1    2    0    0 -0.84251254492E+02 -0.27084702407E+02  0.78188522749E+02  0.14294569591E+03  0.80549189330E+02 0.  0.
         23    2    1    2    0    0 -0.40493455977E-01  0.64185195086E+02 -0.35198087576E+02  0.11769914667E+03  0.92165301764E+02 0.  0.
         13    1    3    3    0    0 -0.22806125501E+01 -0.34877753442E+02  0.10912585114E+02  0.36616162997E+02  0.00000000000E+00 0. -1.
        -14    1    3    3    0    0 -0.81970641941E+02  0.77930510355E+01  0.67275937635E+02  0.10632953291E+03  0.00000000000E+00 0.  1.
        -13    1    4    4    0    0 -0.27920098277E+02  0.55039165343E+02 -0.54700043394E+02  0.82467789813E+02  0.00000000000E+00 0.  1.
         13    1    4    4    0    0  0.27879604821E+02  0.91460297429E+01  0.19501955817E+02  0.35231356854E+02  0.00000000000E+00 0. -1.
          4    1    1    2  501    0  0.84291747948E+02 -0.37100492679E+02  0.29719286185E+03  0.31113524787E+03  0.00000000000E+00 0. -1.
<scales pt_clust_5="13000.00000" pt_clust_6="13000.00000" pt_clust_7="13000.00000" pt_clust_8="13000.00000" pt_clust_9="92.09535"></scales>
<clustering>
<clus scale="   80.549">  5  6 -1 -1</clus>
<clus scale="   92.095">  2  9  1 -1</clus>
<clus scale="   92.165">  7  8 -1 -1</clus>
<clus scale="  106.972">  1  5  2 -1</clus>
<clus scale="   92.095">  2  5  1 -1</clus>
</clustering>
</event>
<event>
 9    1  0.4067873E-005  0.1301245E+03  0.7546771E-02  0.1248461E+00
         21   -1    0    0  501  502  0.00000000000E+00  0.00000000000E+00  0.20907066515E+02  0.20907066515E+02  0.00000000000E+00 0. -1.
          3   -1    0    0  502    0 -0.00000000000E+00 -0.00000000000E+00 -0.17624834957E+04  0.17624834957E+04  0.00000000000E+00 0. -1.
        -24    2    1    2    0    0 -0.15449381636E+02 -0.10285502549E+02 -0.88969443232E+03  0.89369678210E+03  0.82421359320E+02 0.  0.
         23    2    1    2    0    0 -0.81826833786E+02 -0.31524685643E+02 -0.26611060019E+03  0.29443007126E+03  0.90469767304E+02 0.  0.
         11    1    3    3    0    0  0.35363445624E+01  0.26026688715E+02 -0.11679905625E+03  0.11971597136E+03  0.00000000000E+00 0. -1.
        -12    1    3    3    0    0 -0.18985726198E+02 -0.36312191265E+02 -0.77289537607E+03  0.77398081074E+03  0.00000000000E+00 0.  1.
        -13    1    4    4    0    0 -0.15804100148E+02  0.18850441049E+02 -0.12548384630E+02  0.27614682075E+02  0.00000000000E+00 0.  1.
         13    1    4    4    0    0 -0.66022733638E+02 -0.50375126692E+02 -0.25356221556E+03  0.26681538919E+03  0.00000000000E+00 0. -1.
          4    1    1    2  501    0  0.97276215422E+02  0.41810188192E+02 -0.58577139666E+03  0.59526370885E+03  0.00000000000E+00 0. -1.
<scales pt_clust_5="13000.00000" pt_clust_6="13000.00000" pt_clust_7="13000.00000" pt_clust_8="13000.00000" pt_clust_9="93.52873"></scales>
<clustering>
<clus scale="   82.421">  5  6 -1 -1</clus>
<clus scale="   84.485">  2  5  1 -1</clus>
<clus scale="   90.470">  7  8 -1 -1</clus>
<clus scale="   93.529">  1  9  2 -1</clus>
<clus scale="   93.529">  1  5  2 -1</clus>
</clustering>
</event>
<event>
 9    1  0.4067873E-005  0.1104498E+03  0.7546771E-02  0.1261778E+00
         21   -1    0    0  501  502  0.00000000000E+00  0.00000000000E+00  0.38472881217E+03  0.38472881217E+03  0.00000000000E+00 0. -1.
          1   -1    0    0  502    0 -0.00000000000E+00 -0.00000000000E+00 -0.59032141974E+02  0.59032141974E+02  0.00000000000E+00 0. -1.
        -24    2    1    2    0    0 -0.90134467317E+00 -0.91294095737E+02  0.48610487656E+02  0.12851967444E+03  0.76281733518E+02 0.  0.
         23    2    1    2    0    0 -0.20050197497E+02  0.37437552831E+02  0.16796349169E+03  0.19176150002E+03  0.82201931656E+02 0.  0.
         11    1    3    3    0    0 -0.11964266074E+02 -0.75168691679E+02 -0.89005573837E-02  0.76114886524E+02  0.00000000000E+00 0. -1.
        -12    1    3    3    0    0  0.11062921401E+02 -0.16125404058E+02  0.48619388213E+02  0.52404787912E+02  0.00000000000E+00 0.  1.
        -13    1    4    4    0    0 -0.36459628799E+02 -0.24785521151E+01  0.30236252664E+02  0.47430778276E+02  0.00000000000E+00 0.  1.
         13    1    4    4    0    0  0.16409431302E+02  0.39916104946E+02  0.13772723902E+03  0.14433072174E+03  0.00000000000E+00 0. -1.
          2    1    1    2  501    0  0.20951542170E+02  0.53856542905E+02  0.10912269085E+03  0.12347977969E+03  0.00000000000E+00 0. -1.
<scales pt_clust_5="13000.00000" pt_clust_6="13000.00000" pt_clust_7="13000.00000" pt_clust_8="13000.00000" pt_clust_9="57.78836"></scales>
<clustering>
<clus scale="   57.788">  1  9  2 -1</clus>
<clus scale="   76.282">  5  6 -1 -1</clus>
<clus scale="   82.202">  7  8 -1 -1</clus>
<clus scale="  106.117">  2  5  1 -1</clus>
<clus scale="   57.788">  1  5  2 -1</clus>
</clustering>
</event>
<event>
 9    1  0.4067873E-005  0.1200730E+03  0.7546771E-02  0.1254142E+00
          1   -1    0    0  502    0 -0.00000000000E+00  0.00000000000E+00  0.12817521483E+03  0.12817521483E+03  0.00000000000E+00 0. -1.
         21   -1    0    0  501  502  0.00000000000E+00 -0.00000000000E+00 -0.12104182393E+03  0.12104182393E+03  0.00000000000E+00 0. -1.
        -24    2    1    2    0    0 -0.47140507630E+02  0.44786228030E+02  0.28933324307E+02  0.10265463748E+03  0.73978399960E+02 0.  0.
         23    2    1    2    0    0  0.53403787281E+02 -0.19693540534E+02 -0.24804451555E+02  0.12052591213E+03  0.10330263619E+03 0.  0.
         13    1    3    3    0    0 -0.25979491509E+02  0.57628803150E+02  0.40765781217E+02  0.75218759960E+02  0.00000000000E+00 0. -1.
        -14    1    3    3    0    0 -0.21161016120E+02 -0.12842575120E+02 -0.11832456910E+02  0.27435877524E+02  0.00000000000E+00 0.  1.
        -11    1    4    4    0    0  0.21844444794E-01 -0.25312347640E+02  0.33034638644E+02  0.41617337379E+02  0.00000000000E+00 0.  1.
         11    1    4    4    0    0  0.53381942837E+02  0.56188071056E+01 -0.57839090199E+02  0.78908574752E+02  0.00000000000E+00 0. -1.
          2    1    1    2  501    0 -0.62632796518E+01 -0.25092687496E+02  0.30045181404E+01  0.26036489146E+02  0.00000000000E+00 0. -1.
<scales pt_clust_5="13000.00000" pt_clust_6="13000.00000" pt_clust_7="13000.00000" pt_clust_8="13000.00000" pt_clust_9="25.86257"></scales>
<clustering>
<clus scale="   25.863">  2  9  1 -1</clus>
<clus scale="   73.978">  5  6 -1 -1</clus>
<clus scale="   96.015">  1  5  2 -1</clus>
<clus scale="  103.303">  7  8 -1 -1</clus>
<clus scale="   25.863">  2  5  1 -1</clus>
</clustering>
</event>
<event>
 9    1  0.4067873E-005  0.9232809E+02  0.7546771E-02  0.1303139E+00
         -2   -1    0    0    0  501 -0.00000000000E+00  0.00000000000E+00  0.12927262309E+03  0.12927262309E+03  0.00000000000E+00 0.  1.
         21   -1    0    0  501  502  0.00000000000E+00 -0.00000000000E+00 -0.17845312073E+03  0.17845312073E+03  0.00000000000E+00 0.  1.
         23    2    1    2    0    0  0.10545637795E+02 -0.17644785878E+01  0.44797118309E+02  0.10033074467E+03  0.89135585800E+02 0.  0.
        -24    2    1    2    0    0 -0.20117171244E+02  0.46327626984E+02  0.92847857732E+01  0.94520679411E+02  0.79353651388E+02 0.  0.
         11    1    4    4    0    0 -0.30858996878E+02  0.40265050016E+02  0.37923726486E+02  0.63338463604E+02  0.00000000000E+00 0. -1.
        -12    1    4    4    0    0  0.10741825634E+02  0.60625769677E+01 -0.28638940713E+02  0.31182215807E+02  0.00000000000E+00 0.  1.
        -13    1    3    3    0    0  0.44004916718E+02  0.20764098395E+02  0.17886651099E+02  0.51841226500E+02  0.00000000000E+00 0. -1.
         13    1    3    3    0    0 -0.33459278922E+02 -0.22528576983E+02  0.26910467210E+02  0.48489518170E+02  0.00000000000E+00 0.  1.
         -1    1    1    2    0  502  0.95715334483E+01 -0.44563148396E+02 -0.10326240172E+03  0.11287431974E+03  0.00000000000E+00 0.  1.
<scales pt_clust_5="13000.00000" pt_clust_6="13000.00000" pt_clust_7="13000.00000" pt_clust_8="13000.00000" pt_clust_9="45.57947"></scales>
<clustering>
<clus scale="   45.579">  2  9  1 -1</clus>
<clus scale="   79.354">  5  6 -1 -1</clus>
<clus scale="   82.924">  2  5  1 -1</clus>
<clus scale="   89.136">  7  8 -1 -1</clus>
<clus scale="   45.579">  2  5  1 -1</clus>
</clustering>
</event>
<event>
 9    1  0.4067873E-005  0.4605658E+03  0.7546771E-02  0.1043269E+00
         21   -1    0    0  501  502  0.00000000000E+00  0.00000000000E+00  0.36434007513E+03  0.36434007513E+03  0.00000000000E+00 0. -1.
          1   -1    0    0  502    0 -0.00000000000E+00 -0.00000000000E+00 -0.12353995088E+04  0.12353995088E+04  0.00000000000E+00 0. -1.
        -24    2    1    2    0    0 -0.38183661689E+02  0.25029078933E+03 -0.27411727625E+03  0.38191716969E+03  0.81344773129E+02 0.  0.
         23    2    1    2    0    0  0.32586400981E+03  0.25572987903E+03 -0.63630440750E+02  0.42836799085E+03  0.88685842627E+02 0.  0.
         11    1    3    3    0    0  0.13025610202E+02  0.16953710253E+03 -0.16704376574E+03  0.23836131257E+03  0.00000000000E+00 0. -1.
        -12    1    3    3    0    0 -0.51209271891E+02  0.80753686801E+02 -0.10707351051E+03  0.14355585712E+03  0.00000000000E+00 0.  1.
        -11    1    4    4    0    0  0.30409077127E+03  0.20204357936E+03 -0.47074229926E+02  0.36811518340E+03  0.00000000000E+00 0.  1.
         11    1    4    4    0    0  0.21773238542E+02  0.53686299669E+02 -0.16556210824E+02  0.60252807450E+02  0.00000000000E+00 0. -1.
          2    1    1    2  501    0 -0.28768034812E+03 -0.50602066836E+03 -0.53331171671E+03  0.78945442344E+03  0.00000000000E+00 0. -1.
<scales pt_clust_5="13000.00000" pt_clust_6="13000.00000" pt_clust_7="13000.00000" pt_clust_8="13000.00000" pt_clust_9="451.94680"></scales>
<clustering>
<clus scale="   81.345">  5  6 -1 -1</clus>
<clus scale="   88.686">  7  8 -1 -1</clus>
<clus scale="  265.933">  2  5  1 -1</clus>
<clus scale="  451.947">  1  9  2 -1</clus>
<clus scale="  451.947">  1  5  2 -1</clus>
</clustering>
</event>
<event>
 9    1  0.4067873E-005  0.1189690E+03  0.7546771E-02  0.1248053E+00
          1   -1    0    0  502    0 -0.00000000000E+00  0.00000000000E+00  0.53528698929E+03  0.53528698929E+03  0.00000000000E+00 0. -1.
         21   -1    0    0  501  502  0.00000000000E+00 -0.00000000000E+00 -0.43685750047E+02  0.43685750047E+02  0.00000000000E+00 0.  1.
         23    2    1    2    0    0 -0.26342509225E+02 -0.73854446932E+02  0.17727088368E+03  0.21431859228E+03  0.91428035497E+02 0.  0.
        -24    2    1    2    0    0 -0.88142967832E+01  0.77230931061E+02  0.11032229141E+03  0.15761141742E+03  0.81412790022E+02 0.  0.
         11    1    4    4    0    0 -0.38438171273E+02  0.60145575755E+02  0.98046935885E+02  0.12127730592E+03  0.00000000000E+00 0. -1.
        -12    1    4    4    0    0  0.29623874490E+02  0.17085355307E+02  0.12275355530E+02  0.36334111509E+02  0.00000000000E+00 0.  1.
        -11    1    3    3    0    0 -0.50111517994E+02 -0.35197303141E+02  0.14838660815E+03  0.16052600993E+03  0.00000000000E+00 0.  1.
         11    1    3    3    0    0  0.23769008769E+02 -0.38657143791E+02  0.28884275523E+02  0.53792582355E+02  0.00000000000E+00 0. -1.
          2    1    1    2  501    0  0.35156806008E+02 -0.33764841297E+01  0.20400806415E+03  0.20704272963E+03  0.00000000000E+00 0. -1.
<scales pt_clust_5="13000.00000" pt_clust_6="13000.00000" pt_clust_7="13000.00000" pt_clust_8="13000.00000" pt_clust_9="35.31859"></scales>
<clustering>
<clus scale="   35.319">  2  9  1 -1</clus>
<clus scale="   81.413">  5  6 -1 -1</clus>
<clus scale="   91.428">  7  8 -1 -1</clus>
<clus scale="  111.457">  2  5  1 -1</clus>
<clus scale="   35.319">  2  5  1 -1</clus>
</clustering>
</event>
<event>
 9    1  0.4067873E-005  0.2024748E+03  0.7546771E-02  0.1180902E+00
         -2   -1    0    0    0  501 -0.00000000000E+00  0.00000000000E+00  0.54026943179E+03  0.54026943179E+03  0.00000000000E+00 0.  1.
         21   -1    0    0  501  502  0.00000000000E+00 -0.00000000000E+00 -0.10708367995E+03  0.10708367995E+03  0.00000000000E+00 0. -1.
        -24    2    1    2    0    0  0.49679123634E+02 -0.88934964863E+01  0.92260318711E+02  0.13166701843E+03  0.79228326550E+02 0.  0.
         23    2    1    2    0    0 -0.65597099246E+02 -0.17129904860E+03  0.16404814742E+03  0.26268745804E+03  0.91905181907E+02 0.  0.
         13    1    3    3    0    0  0.24006730641E+02  0.34986065638E+02  0.34219155310E+02  0.54509618372E+02  0.00000000000E+00 0. -1.
        -14    1    3    3    0    0  0.25672392993E+02 -0.43879562125E+02  0.58041163401E+02  0.77157400054E+02  0.00000000000E+00 0.  1.
        -13    1    4    4    0    0 -0.94810138491E+01 -0.31552691986E+02 -0.81398761427E+01  0.33936994251E+02  0.00000000000E+00 0.  1.
         13    1    4    4    0    0 -0.56116085397E+02 -0.13974635661E+03  0.17218802357E+03  0.22875046379E+03  0.00000000000E+00 0. -1.
         -1    1    1    2    0  502  0.15917975612E+02  0.18019254508E+03  0.17687728570E+03  0.25299863527E+03  0.00000000000E+00 0.  1.
<scales pt_clust_5="13000.00000" pt_clust_6="13000.00000" pt_clust_7="13000.00000" pt_clust_8="13000.00000" pt_clust_9="180.41479"></scales>
<clustering>
<clus scale="   79.228">  5  6 -1 -1</clus>
<clus scale="   91.905">  7  8 -1 -1</clus>
<clus scale="   93.937">  1  5  2 -1</clus>
<clus scale="  180.415">  2  9  1 -1</clus>
<clus scale="  180.415">  2  5  1 -1</clus>
</clustering>
</event>
<event>
 9    1  0.4067873E-005  0.9396647E+02  0.7546771E-02  0.1297438E+00
         21   -1    0    0  501  502  0.00000000000E+00  0.00000000000E+00  0.47678987873E+02  0.47678987873E+02  0.00000000000E+00 0. -1.
          1   -1    0    0  502    0 -0.00000000000E+00 -0.00000000000E+00 -0.41307130649E+03  0.41307130649E+03  0.00000000000E+00 0. -1.
         23    2    1    2    0    0 -0.32228758557E+02 -0.45468501911E+01 -0.25682269653E+03  0.27366257293E+03  0.88735222100E+02 0.  0.
        -24    2    1    2    0    0  0.22549939000E+02  0.23824016425E+02 -0.12977981600E+03  0.15683609317E+03  0.81723166689E+02 0.  0.
         13    1    4    4    0    0 -0.28270170028E+02  0.21437626012E+02 -0.38640791518E+02  0.52458412973E+02  0.00000000000E+00 0. -1.
        -14    1    4    4    0    0  0.50820109028E+02  0.23863904125E+01 -0.91139024482E+02  0.10437768020E+03  0.00000000000E+00 0.  1.
        -13    1    3    3    0    0  0.20594377451E+02 -0.24830807165E+01 -0.13700530855E+02  0.24859577996E+02  0.00000000000E+00 0.  1.
         13    1    3    3    0    0 -0.52823136007E+02 -0.20637694746E+01 -0.24312216568E+03  0.24880299493E+03  0.00000000000E+00 0. -1.
          2    1    1    2  501    0  0.96788195565E+01 -0.19277166234E+02  0.21210193922E+02  0.30251628257E+02  0.00000000000E+00 0. -1.
<scales pt_clust_5="13000.00000" pt_clust_6="13000.00000" pt_clust_7="13000.00000" pt_clust_8="13000.00000" pt_clust_9="21.57055"></scales>
<clustering>
<clus scale="   21.571">  1  9  2 -1</clus>
<clus scale="   81.723">  5  6 -1 -1</clus>
<clus scale="   87.375">  1  5  2 -1</clus>
<clus scale="   88.735">  7  8 -1 -1</clus>
<clus scale="   21.571">  1  5  2 -1</clus>
</clustering>
</event>
<event>
 9    1  0.4067873E-005  0.1772440E+03  0.7546771E-02  0.1189460E+00
         -2   -1    0    0    0  501 -0.00000000000E+00  0.00000000000E+00  0.93112060752E+03  0.93112060752E+03  0.00000000000E+00 0.  1.
         21   -1    0    0  501  502  0.00000000000E+00 -0.00000000000E+00 -0.70859814942E+02  0.70859814942E+02  0.00000000000E+00 0.  1.
         23    2    1    2    0    0 -0.13765418139E+02  0.61545343754E+02  0.87290035693E+02  0.14495564230E+03  0.97032323634E+02 0.  0.
        -24    2    1    2    0    0  0.13717083002E+03  0.48278392074E+02  0.57768296187E+03  0.60123683769E+03  0.81372543347E+02 0.  0.
         11    1    4    4    0    0  0.44690543682E+02  0.37810830496E+02  0.11233599558E+03  0.12667391010E+03  0.00000000000E+00 0. -1.
        -12    1    4    4    0    0  0.92480286335E+02  0.10467561578E+02  0.46534696628E+03  0.47456292758E+03  0.00000000000E+00 0.  1.
        -13    1    3    3    0    0 -0.19923487425E+02  0.21174125126E+02  0.98422836966E+02  0.10262720771E+03  0.00000000000E+00 0. -1.
         13    1    3    3    0    0  0.61580692866E+01  0.40371218628E+02 -0.11132801273E+02  0.42328434592E+02  0.00000000000E+00 0.  1.
         -1    1    1    2    0  502 -0.12340541188E+03 -0.10982373583E+03  0.19528779502E+03  0.25578794248E+03  0.00000000000E+00 0.  1.
<scales pt_clust_5="13000.00000" pt_clust_6="13000.00000" pt_clust_7="13000.00000" pt_clust_8="13000.00000" pt_clust_9="157.46098"></scales>
<clustering>
<clus scale="   81.373">  5  6 -1 -1</clus>
<clus scale="   97.032">  7  8 -1 -1</clus>
<clus scale="  115.726">  1  7  2 -1</clus>
<clus scale="  157.461">  2  9  1 -1</clus>
<clus scale="  157.461">  2  5  1 -1</clus>
</clustering>
</event>
<event>
 9    1  0.4067873E-005  0.2104599E+03  0.7546771E-02  0.1142232E+00
          1   -1    0    0  502    0 -0.00000000000E+00  0.00000000000E+00  0.10200433081E+04  0.10200433081E+04  0.00000000000E+00 0. -1.
         21   -1    0    0  501  502  0.00000000000E+00 -0.00000000000E+00 -0.13524397063E+03  0.13524397063E+03  0.00000000000E+00 0. -1.
         23    2    1    2    0    0  0.17902026496E+03 -0.58395076324E+02  0.69337451738E+03  0.72427795945E+03  0.91389829812E+02 0.  0.
        -24    2    1    2    0    0 -0.22196708556E+03 -0.71530698629E+02  0.96194508948E+02  0.26429414735E+03  0.78816145896E+02 0.  0.
         11    1    4    4    0    0 -0.21869179869E+03 -0.52966706817E+02  0.78151185896E+02  0.23819987973E+03  0.00000000000E+00 0. -1.
        -12    1    4    4    0    0 -0.32752868706E+01 -0.18563991812E+02  0.18043323052E+02  0.26094267624E+02  0.00000000000E+00 0.  1.
        -13    1    3    3    0    0  0.71409883956E+02  0.25700330515E+01  0.39289449384E+03  0.39933952959E+03  0.00000000000E+00 0.  1.
         13    1    3    3    0    0  0.10761038100E+03 -0.60965109376E+02  0.30048002353E+03  0.32493842987E+03  0.00000000000E+00 0. -1.
          2    1    1    2  501    0  0.42946820601E+02  0.12992577495E+03  0.95230311187E+02  0.16671517197E+03  0.00000000000E+00 0. -1.
<scales pt_clust_5="13000.00000" pt_clust_6="13000.00000" pt_clust_7="13000.00000" pt_clust_8="13000.00000" pt_clust_9="136.83982"></scales>
<clustering>
<clus scale="   78.816">  5  6 -1 -1</clus>
<clus scale="   91.390">  7  8 -1 -1</clus>
<clus scale="  136.840">  2  9  1 -1</clus>
<clus scale="  205.313">  2  5  1 -1</clus>
<clus scale="  136.840">  2  5  1 -1</clus>
</clustering>
</event>
<event>
 9    1  0.4067873E-005  0.1888719E+03  0.7546771E-02  0.1176640E+00
          1   -1    0    0  502    0 -0.00000000000E+00  0.00000000000E+00  0.10092061331E+03  0.10092061331E+03  0.00000000000E+00 0. -1.
         21   -1    0    0  501  502  0.00000000000E+00 -0.00000000000E+00 -0.73195411899E+03  0.73195411899E+03  0.00000000000E+00 0. -1.
         23    2    1    2    0    0  0.70176317656E+02  0.53928860723E+02 -0.32197739070E+03  0.34626274117E+03  0.91626460271E+02 0.  0.
        -24    2    1    2    0    0  0.68318198779E+02  0.11691260800E+03 -0.10015319983E+03  0.18328384130E+03  0.72293629401E+02 0.  0.
         13    1    4    4    0    0  0.51141758537E+02  0.10060704470E+03 -0.41875796621E+02  0.12037790185E+03  0.00000000000E+00 0. -1.
        -14    1    4    4    0    0  0.17176440242E+02  0.16305563295E+02 -0.58277403209E+02  0.62905939454E+02  0.00000000000E+00 0.  1.
        -13    1    3    3    0    0  0.43156291590E+00  0.28157488120E+02 -0.18228070152E+02  0.33545386050E+02  0.00000000000E+00 0.  1.
         13    1    3    3    0    0  0.69744754740E+02  0.25771372603E+02 -0.30374932055E+03  0.31271735512E+03  0.00000000000E+00 0. -1.
          2    1    1    2  501    0 -0.13849451643E+03 -0.17084146872E+03 -0.20890291514E+03  0.30332814982E+03  0.00000000000E+00 0. -1.
<scales pt_clust_5="13000.00000" pt_clust_6="13000.00000" pt_clust_7="13000.00000" pt_clust_8="13000.00000" pt_clust_9="174.48855"></scales>
<clustering>
<clus scale="   72.294">  5  6 -1 -1</clus>
<clus scale="   91.626">  7  8 -1 -1</clus>
<clus scale="  127.391">  1  7  2 -1</clus>
<clus scale="  174.489">  2  9  1 -1</clus>
<clus scale="  174.489">  2  5  1 -1</clus>
</clustering>
</event>
<event>
 9    1  0.4067873E-005  0.1075839E+03  0.7546771E-02  0.1267886E+00
          1   -1    0    0  502    0 -0.00000000000E+00  0.00000000000E+00  0.47173750211E+03  0.47173750211E+03  0.00000000000E+00 0. -1.
         21   -1    0    0  501  502  0.00000000000E+00 -0.00000000000E+00 -0.41905195972E+02  0.41905195972E+02  0.00000000000E+00 0. -1.
        -24    2    1    2    0    0 -0.50538695527E+02  0.41843202530E+02  0.20804445276E+03  0.23276280094E+03  0.81185059178E+02 0.  0.
         23    2    1    2    0    0  0.15115271080E+02 -0.59539925219E+02  0.80845417287E+02  0.13448056899E+03  0.88179180214E+02 0.  0.
         11    1    3    3    0    0 -0.13529658772E+02  0.42033669325E+02  0.18256798139E+03  0.18783223593E+03  0.00000000000E+00 0. -1.
        -12    1    3    3    0    0 -0.37009036755E+02 -0.19046679493E+00  0.25476471368E+02  0.44930565014E+02  0.00000000000E+00 0.  1.
        -13    1    4    4    0    0 -0.21194926268E+02 -0.10695336040E+02  0.68340776083E+02  0.72346919687E+02  0.00000000000E+00 0.  1.
         13    1    4    4    0    0  0.36310197348E+02 -0.48844589179E+02  0.12504641204E+02  0.62133649299E+02  0.00000000000E+00 0. -1.
          2    1    1    2  501    0  0.35423424447E+02  0.17696722689E+02  0.14094243609E+03  0.14639932815E+03  0.00000000000E+00 0. -1.
<scales pt_clust_5="13000.00000" pt_clust_6="13000.00000" pt_clust_7="13000.00000" pt_clust_8="13000.00000" pt_clust_9="39.59791"></scales>
<clustering>
<clus scale="   39.598">  2  9  1 -1</clus>
<clus scale="   81.185">  5  6 -1 -1</clus>
<clus scale="   88.179">  7  8 -1 -1</clus>
<clus scale="  101.930">  1  5  2 -1</clus>
<clus scale="   39.598">  2  5  1 -1</clus>
</clustering>
</event>
<event>
 9    1  0.4067873E-005  0.1022165E+03  0.7546771E-02  0.1287724E+00
         21   -1    0    0  501  502  0.00000000000E+00  0.00000000000E+00  0.35642506673E+02  0.35642506673E+02  0.00000000000E+00 0. -1.
          1   -1    0    0  502    0 -0.00000000000E+00 -0.00000000000E+00 -0.79228168185E+03  0.79228168185E+03  0.00000000000E+00 0. -1.
         23    2    1    2    0    0  0.62948781147E+01  0.11829808309E+02 -0.19333131610E+03  0.21868738069E+03  0.10132918056E+03 0.  0.
        -24    2    1    2    0    0  0.19744887914E+02  0.52709289289E+02 -0.97480115671E+02  0.13823908909E+03  0.80246763332E+02 0.  0.
         11    1    4    4    0    0 -0.30923267923E+02  0.12846358751E+02 -0.30978249894E+02  0.45617205074E+02  0.00000000000E+00 0. -1.
        -12    1    4    4    0    0  0.50668155837E+02  0.39862930538E+02 -0.66501865776E+02  0.92621884016E+02  0.00000000000E+00 0.  1.
        -11    1    3    3    0    0  0.25408390264E+02  0.27755396380E+02 -0.18987736748E+03  0.19357004677E+03  0.00000000000E+00 0. -1.
         11    1    3    3    0    0 -0.19113512149E+02 -0.15925588071E+02 -0.34539486124E+01  0.25117333917E+02  0.00000000000E+00 0.  1.
          2    1    1    2  501    0 -0.26039766028E+02 -0.64539097598E+02 -0.46582774341E+03  0.47099771874E+03  0.00000000000E+00 0. -1.
<scales pt_clust_5="13000.00000" pt_clust_6="13000.00000" pt_clust_7="13000.00000" pt_clust_8="13000.00000" pt_clust_9="69.59432"></scales>
<clustering>
<clus scale="   69.594">  1  9  2 -1</clus>
<clus scale="   80.247">  5  6 -1 -1</clus>
<clus scale="   81.364">  1  5  2 -1</clus>
<clus scale="  101.329">  7  8 -1 -1</clus>
<clus scale="   69.594">  1  5  2 -1</clus>
</clustering>
</event>
<event>
 9    1  0.4067873E-005  0.1439163E+03  0.7546771E-02  0.1231177E+00
         21   -1    0    0  501  502  0.00000000000E+00  0.00000000000E+00  0.11847230800E+03  0.11847230800E+03  0.00000000000E+00 0. -1.
          1   -1    0    0  502    0 -0.00000000000E+00 -0.00000000000E+00 -0.51690422643E+03  0.51690422643E+03  0.00000000000E+00 0. -1.
        -24    2    1    2    0    0  0.86820274608E+01  0.33910550303E+02 -0.31158255495E+02  0.94034404217E+02  0.81525022344E+02 0.  0.
         23    2    1    2    0    0  0.11182485841E+03  0.98060197857E+00  0.10590879362E+02  0.14319527995E+03  0.88808563404E+02 0.  0.
         13    1    3    3    0    0  0.17200681938E+02  0.54840004528E+02 -0.39726704074E+02  0.69867736276E+02  0.00000000000E+00 0. -1.
        -14    1    3    3    0    0 -0.85186544775E+01 -0.20929454226E+02  0.85684485788E+01  0.24166667940E+02  0.00000000000E+00 0.  1.
        -13    1    4    4    0    0  0.29117503089E+02 -0.10494671897E+02  0.43548310532E+02  0.53426795474E+02  0.00000000000E+00 0.  1.
         13    1    4    4    0    0  0.82707355322E+02  0.11475273875E+02 -0.32957431170E+02  0.89768484471E+02  0.00000000000E+00 0. -1.
          2    1    1    2  501    0 -0.12050688587E+03 -0.34891152281E+02 -0.37786454230E+03  0.39814685027E+03  0.00000000000E+00 0. -1.
<scales pt_clust_5="13000.00000" pt_clust_6="13000.00000" pt_clust_7="13000.00000" pt_clust_8="13000.00000" pt_clust_9="113.24732"></scales>
<clustering>
<clus scale="   81.525">  5  6 -1 -1</clus>
<clus scale="   88.722">  2  5  1 -1</clus>
<clus scale="   88.809">  7  8 -1 -1</clus>
<clus scale="  113.247">  1  9  2 -1</clus>
<clus scale="  113.247">  1  5  2 -1</clus>
</clustering>
</event>
<event>
 9    1  0.4067873E-005  0.1067971E+03  0.7546771E-02  0.1276746E+00
         -2   -1    0    0    0  501 -0.00000000000E+00  0.00000000000E+00  0.25242188664E+03  0.25242188664E+03  0.00000000000E+00 0.  1.
         21   -1    0    0  501  502  0.00000000000E+00 -0.00000000000E+00 -0.29485606967E+03  0.29485606967E+03  0.00000000000E+00 0. -1.
         23    2    1    2    0    0 -0.36460255497E+02  0.28142771056E+01  0.21594778551E+03  0.24163519967E+03  0.10206298675E+03 0.  0.
        -24    2    1    2    0    0 -0.55972876952E+01  0.28279544524E+02 -0.74599357533E+02  0.11456237881E+03  0.82026899401E+02 0.  0.
         11    1    4    4    0    0 -0.37301494294E+02  0.18696821434E+02 -0.69483369146E+02  0.81048819833E+02  0.00000000000E+00 0. -1.
        -12    1    4    4    0    0  0.31704206599E+02  0.95827230892E+01 -0.51159883870E+01  0.33513558973E+02  0.00000000000E+00 0.  1.
        -11    1    3    3    0    0 -0.10737100275E+02 -0.37160407759E+02  0.27953170614E+02  0.47723798827E+02  0.00000000000E+00 0. -1.
         11    1    3    3    0    0 -0.25723155221E+02  0.39974684864E+02  0.18799461490E+03  0.19391140084E+03  0.00000000000E+00 0.  1.
         -1    1    1    2    0  502  0.42057543192E+02 -0.31093821629E+02 -0.18378261101E+03  0.19108037783E+03  0.00000000000E+00 0.  1.
<scales pt_clust_5="13000.00000" pt_clust_6="13000.00000" pt_clust_7="13000.00000" pt_clust_8="13000.00000" pt_clust_9="52.30356"></scales>
<clustering>
<clus scale="   52.304">  2  9  1 -1</clus>
<clus scale="   82.027">  5  6 -1 -1</clus>
<clus scale="   87.848">  2  5  1 -1</clus>
<clus scale="  102.063">  7  8 -1 -1</clus>
<clus scale="   52.304">  2  5  1 -1</clus>
</clustering>
</event>
<event>
 9    1  0.4067873E-005  0.1070348E+03  0.7546771E-02  0.1270455E+00
         21   -1    0    0  501  502  0.00000000000E+00  0.00000000000E+00  0.12432231356E+03  0.12432231356E+03  0.00000000000E+00 0.  1.
         -2   -1    0    0    0  501 -0.00000000000E+00 -0.00000000000E+00 -0.20734584293E+03  0.20734584293E+03  0.00000000000E+00 0.  1.
         23    2    1    2    0    0 -0.34595758051E+02  0.54147087323E+02 -0.14906700472E+03  0.18636075977E+03  0.91545547936E+02 0.  0.
        -24    2    1    2    0    0  0.22462190013E+02 -0.18918601434E+02  0.25402819046E+02  0.90171812600E+02  0.81382978022E+02 0.  0.
         13    1    4    4    0    0  0.29174920121E+02 -0.48064636960E+02  0.12503547474E+02  0.57599687408E+02  0.00000000000E+00 0. -1.
        -14    1    4    4    0    0 -0.67127301079E+01  0.29146035526E+02  0.12899271572E+02  0.32572125191E+02  0.00000000000E+00 0.  1.
        -11    1    3    3    0    0 -0.45099462264E+02  0.27687453026E+02 -0.14875807708E+03  0.15789085486E+03  0.00000000000E+00 0.  1.
         11    1    3    3    0    0  0.10503704213E+02  0.26459634297E+02 -0.30892763413E+00  0.28469904911E+02  0.00000000000E+00 0. -1.
         -1    1    1    2    0  502  0.12133568038E+02 -0.35228485890E+02  0.40640656302E+02  0.55135584119E+02  0.00000000000E+00 0.  1.
<scales pt_clust_5="13000.00000" pt_clust_6="13000.00000" pt_clust_7="13000.00000" pt_clust_8="13000.00000" pt_clust_9="37.25949"></scales>
<clustering>
<clus scale="   37.259">  1  9  2 -1</clus>
<clus scale="   81.383">  5  6 -1 -1</clus>
<clus scale="   91.546">  7  8 -1 -1</clus>
<clus scale="   98.484">  1  5  2 -1</clus>
<clus scale="   37.259">  1  5  2 -1</clus>
</clustering>
</event>
<event>
 9    1  0.4067873E-005  0.2777433E+03  0.7546771E-02  0.1102109E+00
         -2   -1    0    0    0  501 -0.00000000000E+00  0.00000000000E+00  0.18596184196E+03  0.18596184196E+03  0.00000000000E+00 0.  1.
         21   -1    0    0  501  502  0.00000000000E+00 -0.00000000000E+00 -0.11218785523E+04  0.11218785523E+04  0.00000000000E+00 0.  1.
        -24    2    1    2    0    0  0.11072097738E+03 -0.20054406330E+03 -0.48205062871E+03  0.53973386255E+03  0.80391402423E+02 0.  0.
         23    2    1    2    0    0  0.20219518774E+03  0.17663650421E+03 -0.31976344252E+03  0.42682715116E+03  0.88596891769E+02 0.  0.
         13    1    3    3    0    0  0.48254187982E+02 -0.14334625438E+03 -0.36635575146E+03  0.39634978482E+03  0.00000000000E+00 0. -1.
        -14    1    3    3    0    0  0.62466789395E+02 -0.57197808920E+02 -0.11569487726E+03  0.14338407773E+03  0.00000000000E+00 0.  1.
        -13    1    4    4    0    0  0.82371445976E+02  0.39337507237E+02 -0.58971663960E+02  0.10867452203E+03  0.00000000000E+00 0. -1.
         13    1    4    4    0    0  0.11982374177E+03  0.13729899697E+03 -0.26079177856E+03  0.31815262913E+03  0.00000000000E+00 0.  1.
         -1    1    1    2    0  502 -0.31291616512E+03  0.23907559094E+02 -0.13410263910E+03  0.34127938055E+03  0.00000000000E+00 0.  1.
<scales pt_clust_5="13000.00000" pt_clust_6="13000.00000" pt_clust_7="13000.00000" pt_clust_8="13000.00000" pt_clust_9="263.23373"></scales>
<clustering>
<clus scale="   80.391">  5  6 -1 -1</clus>
<clus scale="   88.597">  7  8 -1 -1</clus>
<clus scale="  242.775">  1  5  2 -1</clus>
<clus scale="  263.234">  2  9  1 -1</clus>
<clus scale="  263.234">  2  5  1 -1</clus>
</clustering>
</event>
<event>
 9    1  0.4067873E-005  0.1536903E+03  0.7546771E-02  0.1218519E+00
         -2   -1    0    0    0  501 -0.00000000000E+00  0.00000000000E+00  0.11596186339E+03  0.11596186339E+03  0.00000000000E+00 0.  1.
         21   -1    0    0  501  502  0.00000000000E+00 -0.00000000000E+00 -0.35569500078E+03  0.35569500078E+03  0.00000000000E+00 0.  1.
        -24    2    1    2    0    0  0.12440779479E+02 -0.47561838129E+02 -0.14954628578E+03  0.17707528925E+03  0.81084308167E+02 0.  0.
         23    2    1    2    0    0 -0.11863916512E+03  0.75808007897E+02 -0.70863983398E+02  0.18300506998E+03  0.92989493676E+02 0.  0.
         11    1    3    3    0    0  0.36104128678E+02  0.15893738831E+01 -0.86252517105E+02  0.93517543401E+02  0.00000000000E+00 0. -1.
        -12    1    3    3    0    0 -0.23663349199E+02 -0.49151212012E+02 -0.63293768675E+02  0.83557745845E+02  0.00000000000E+00 0.  1.
        -11    1    4    4    0    0 -0.36263565955E+02 -0.12400400557E+02  0.75710289092E+01  0.39065798705E+02  0.00000000000E+00 0. -1.
         11    1    4    4    0    0 -0.82375599168E+02  0.88208408454E+02 -0.78435012307E+02  0.14393927128E+03  0.00000000000E+00 0.  1.
         -1    1    1    2    0  502  0.10619838564E+03 -0.28246169768E+02 -0.19322868208E+02  0.11157650494E+03  0.00000000000E+00 0.  1.
<scales pt_clust_5="13000.00000" pt_clust_6="13000.00000" pt_clust_7="13000.00000" pt_clust_8="13000.00000" pt_clust_9="122.36702"></scales>
<clustering>
<clus scale="   81.084">  5  6 -1 -1</clus>
<clus scale="   92.989">  7  8 -1 -1</clus>
<clus scale="   94.824">  1  5  2 -1</clus>
<clus scale="  122.367">  2  9  1 -1</clus>
<clus scale="  122.367">  2  5  1 -1</clus>
</clustering>
</event>
<event>
 9    1  0.4067873E-005  0.9430756E+02  0.7546771E-02  0.1299705E+00
         -4   -1    0    0    0  501 -0.00000000000E+00  0.00000000000E+00  0.34274210541E+03  0.34274210541E+03  0.00000000000E+00 0.  1.
         21   -1    0    0  501  502  0.00000000000E+00 -0.00000000000E+00 -0.41135989286E+02  0.41135989286E+02  0.00000000000E+00 0.  1.
        -24    2    1    2    0    0 -0.26968734158E+02 -0.19293586341E+02  0.19072637315E+03  0.20938425274E+03  0.79785091241E+02 0.  0.
         23    2    1    2    0    0 -0.82309602085E+01  0.11805800259E+02  0.10114784417E+03  0.13721388383E+03  0.91594966617E+02 0.  0.
         13    1    3    3    0    0  0.24981850696E+02  0.20647843550E+01  0.29823227192E+02  0.38958709922E+02  0.00000000000E+00 0. -1.
        -14    1    3    3    0    0 -0.51950584854E+02 -0.21358370696E+02  0.16090314595E+03  0.17042554281E+03  0.00000000000E+00 0.  1.
        -11    1    4    4    0    0 -0.45683215282E+02  0.26168970129E+01  0.25698318761E+02  0.52480547783E+02  0.00000000000E+00 0.  1.
         11    1    4    4    0    0  0.37452255073E+02  0.91889032459E+01  0.75449525414E+02  0.84733336050E+02  0.00000000000E+00 0. -1.
         -3    1    1    2    0  502  0.35199694367E+02  0.74877860824E+01  0.97318988081E+01  0.37279958132E+02  0.00000000000E+00 0.  1.
<scales pt_clust_5="13000.00000" pt_clust_6="13000.00000" pt_clust_7="13000.00000" pt_clust_8="13000.00000" pt_clust_9="35.98730"></scales>
<clustering>
<clus scale="   35.987">  2  9  1 -1</clus>
<clus scale="   79.785">  5  6 -1 -1</clus>
<clus scale="   82.885">  1  5  2 -1</clus>
<clus scale="   91.595">  7  8 -1 -1</clus>
<clus scale="   35.987">  2  5  1 -1</clus>
</clustering>
</event>
<event>
 9    1  0.4067873E-005  0.1269005E+03  0.7546771E-02  0.1234745E+00
         -2   -1    0    0    0  501 -0.00000000000E+00  0.00000000000E+00  0.42439991489E+03  0.42439991489E+03  0.00000000000E+00 0.  1.
         21   -1    0    0  501  502  0.00000000000E+00 -0.00000000000E+00 -0.11320978673E+03  0.11320978673E+03  0.00000000000E+00 0. -1.
        -24    2    1    2    0    0 -0.64394867252E+02  0.64021716848E+02  0.33588950762E+03  0.35754720556E+03  0.82296802613E+02 0.  0.
         23    2    1    2    0    0  0.26561399059E+02 -0.74671597423E+02  0.17406476074E+02  0.12246306601E+03  0.91721653633E+02 0.  0.
         11    1    3    3    0    0 -0.43829721263E+02 -0.10099015194E+02  0.10664913404E+03  0.11574572288E+03  0.00000000000E+00 0. -1.
        -12    1    3    3    0    0 -0.20565145989E+02  0.74120732042E+02  0.22924037358E+03  0.24180148268E+03  0.00000000000E+00 0.  1.
        -13    1    4    4    0    0  0.11377012682E+02 -0.45908048618E+02  0.55140257124E+02  0.72645944837E+02  0.00000000000E+00 0.  1.
         13    1    4    4    0    0  0.15184386377E+02 -0.28763548805E+02 -0.37733781050E+02  0.49817121172E+02  0.00000000000E+00 0. -1.
         -1    1    1    2    0  502  0.37833468193E+02  0.10649880575E+02 -0.42105855533E+02  0.57599430049E+02  0.00000000000E+00 0.  1.
<scales pt_clust_5="13000.00000" pt_clust_6="13000.00000" pt_clust_7="13000.00000" pt_clust_8="13000.00000" pt_clust_9="39.30383"></scales>
<clustering>
<clus scale="   39.304">  2  9  1 -1</clus>
<clus scale="   82.297">  5  6 -1 -1</clus>
<clus scale="   91.722">  7  8 -1 -1</clus>
<clus scale="  120.265">  1  5  2 -1</clus>
<clus scale="   39.304">  2  5  1 -1</clus>
</clustering>
</event>
<event>
 9    1  0.4067873E-005  0.9921788E+02  0.7546771E-02  0.1287049E+00
         21   -1    0    0  501  502  0.00000000000E+00  0.00000000000E+00  0.51588909034E+02  0.51588909034E+02  0.00000000000E+00 0. -1.
          1   -1    0    0  502    0 -0.00000000000E+00 -0.00000000000E+00 -0.39898049215E+03  0.39898049215E+03  0.00000000000E+00 0. -1.
        -24    2    1    2    0    0  0.32339312530E+02  0.10244599654E+02 -0.25203992745E+03  0.26682053353E+03  0.80735922158E+02 0.  0.
         23    2    1    2    0    0 -0.48299228582E+02 -0.42993100226E+02 -0.96302155736E+02  0.14730594433E+03  0.90794900109E+02 0.  0.
         13    1    3    3    0    0  0.52238779878E+02  0.18407600841E+02 -0.22769719551E+03  0.23433681472E+03  0.00000000000E+00 0. -1.
        -14    1    3    3    0    0 -0.19899467348E+02 -0.81630011873E+01 -0.24342731942E+02  0.32483718807E+02  0.00000000000E+00 0.  1.
        -13    1    4    4    0    0  0.24877667184E+02 -0.18201705180E+02 -0.12337106147E+02  0.33202478583E+02  0.00000000000E+00 0. -1.
         13    1    4    4    0    0 -0.73176895765E+02 -0.24791395046E+02 -0.83965049589E+02  0.11410346574E+03  0.00000000000E+00 0.  1.
          2    1    1    2  501    0  0.15959916052E+02  0.32748500572E+02  0.95050007392E+00  0.36442923325E+02  0.00000000000E+00 0. -1.
<scales pt_clust_5="13000.00000" pt_clust_6="13000.00000" pt_clust_7="13000.00000" pt_clust_8="13000.00000" pt_clust_9="36.43053"></scales>
<clustering>
<clus scale="   36.431">  1  9  2 -1</clus>
<clus scale="   80.736">  5  6 -1 -1</clus>
<clus scale="   90.104">  2  5  1 -1</clus>
<clus scale="   90.795">  7  8 -1 -1</clus>
<clus scale="   36.431">  1  5  2 -1</clus>
</clustering>
</event>
<event>
 9    1  0.4067873E-005  0.1057977E+03  0.7546771E-02  0.1272581E+00
         21   -1    0    0  501  502  0.00000000000E+00  0.00000000000E+00  0.16830196232E+03  0.16830196232E+03  0.00000000000E+00 0.  1.
          3   -1    0    0  502    0 -0.00000000000E+00 -0.00000000000E+00 -0.96390957734E+02  0.96390957734E+02  0.00000000000E+00 0. -1.
        -24    2    1    2    0    0 -0.41957322143E+02  0.22870500347E+01  0.28340130183E+02  0.94915822321E+02  0.80250874568E+02 0.  0.
         23    2    1    2    0    0  0.77402287593E+02 -0.45595116980E+01  0.57283341928E+02  0.13170425408E+03  0.89736982394E+02 0.  0.
         11    1    3    3    0    0 -0.29025131380E+02 -0.21377550201E+02 -0.18763282338E+02  0.40638881238E+02  0.00000000000E+00 0. -1.
        -12    1    3    3    0    0 -0.12932190763E+02  0.23664600235E+02  0.47103412521E+02  0.54276941083E+02  0.00000000000E+00 0.  1.
        -13    1    4    4    0    0 -0.42868663152E+01 -0.32032366071E+02  0.17944091038E+02  0.36965390598E+02  0.00000000000E+00 0. -1.
         13    1    4    4    0    0  0.81689153908E+02  0.27472854373E+02  0.39339250890E+02  0.94738863484E+02  0.00000000000E+00 0.  1.
          4    1    1    2  501    0 -0.35444965450E+02  0.22724616632E+01 -0.13712467528E+02  0.38072843648E+02  0.00000000000E+00 0. -1.
<scales pt_clust_5="13000.00000" pt_clust_6="13000.00000" pt_clust_7="13000.00000" pt_clust_8="13000.00000" pt_clust_9="35.51775"></scales>
<clustering>
<clus scale="   35.518">  1  9  2 -1</clus>
<clus scale="   80.251">  5  6 -1 -1</clus>
<clus scale="   89.737">  7  8 -1 -1</clus>
<clus scale="   97.881">  2  5  1 -1</clus>
<clus scale="   35.518">  1  5  2 -1</clus>
</clustering>
</event>
<event>
 9    1  0.4067873E-005  0.1257915E+03  0.7546771E-02  0.1255365E+00
          1   -1    0    0  502    0 -0.00000000000E+00  0.00000000000E+00  0.57858328514E+02  0.57858328514E+02  0.00000000000E+00 0. -1.
         21   -1    0    0  501  502  0.00000000000E+00 -0.00000000000E+00 -0.56641406797E+03  0.56641406797E+03  0.00000000000E+00 0. -1.
        -24    2    1    2    0    0  0.20628210378E+02 -0.96043772851E+01 -0.51865139369E+02  0.96609179343E+02  0.78266044522E+02 0.  0.
         23    2    1    2    0    0 -0.66155032370E+02  0.80478543404E+02 -0.12793376174E+03  0.18828599677E+03  0.90726429067E+02 0.  0.
         13    1    3    3    0    0 -0.10185287390E+02 -0.33936212578E+02 -0.55039652697E+01  0.35856662380E+02  0.00000000000E+00 0. -1.
        -14    1    3    3    0    0  0.30813497768E+02  0.24331835293E+02 -0.46361174100E+02  0.60752516963E+02  0.00000000000E+00 0.  1.
        -13    1    4    4    0    0 -0.21009261308E+02  0.13644299644E+01  0.97472552905E+01  0.23200424900E+02  0.00000000000E+00 0.  1.
         13    1    4    4    0    0 -0.45145771062E+02  0.79114113440E+02 -0.13768101703E+03  0.16508557187E+03  0.00000000000E+00 0. -1.
          2    1    1    2  501    0  0.45526821993E+02 -0.70874166119E+02 -0.32875683836E+03  0.33937722037E+03  0.00000000000E+00 0. -1.
<scales pt_clust_5="13000.00000" pt_clust_6="13000.00000" pt_clust_7="13000.00000" pt_clust_8="13000.00000" pt_clust_9="87.13335"></scales>
<clustering>
<clus scale="   78.266">  5  6 -1 -1</clus>
<clus scale="   81.507">  1  5  2 -1</clus>
<clus scale="   87.133">  2  9  1 -1</clus>
<clus scale="   90.726">  7  8 -1 -1</clus>
<clus scale="   87.133">  2  5  1 -1</clus>
</clustering>
</event>
<event>
 9    1  0.4067873E-005  0.1297272E+03  0.7546771E-02  0.1232006E+00
         21   -1    0    0  501  502  0.00000000000E+00  0.00000000000E+00  0.29756902378E+03  0.29756902378E+03  0.00000000000E+00 0.  1.
          3   -1    0    0  502    0 -0.00000000000E+00 -0.00000000000E+00 -0.77392266099E+02  0.77392266099E+02  0.00000000000E+00 0. -1.
         23    2    1    2    0    0 -0.12296904583E+01 -0.92160013930E+02  0.29877661852E+02  0.13594862652E+03  0.95364427693E+02 0.  0.
        -24    2    1    2    0    0 -0.22826535605E+02  0.79168077388E+02  0.13534192719E+03  0.17763039546E+03  0.80290005169E+02 0.  0.
         13    1    4    4    0    0  0.14111249197E+02  0.42824791583E+02  0.16555364442E+02  0.48033011771E+02  0.00000000000E+00 0. -1.
        -14    1    4    4    0    0 -0.36937784802E+02  0.36343285805E+02  0.11878656274E+03  0.12959738368E+03  0.00000000000E+00 0.  1.
        -13    1    3    3    0    0 -0.45399360365E+02 -0.39389600237E+02  0.29901719824E+02  0.67132372048E+02  0.00000000000E+00 0.  1.
         13    1    3    3    0    0  0.44169669907E+02 -0.52770413693E+02 -0.24057972173E-01  0.68816254474E+02  0.00000000000E+00 0. -1.
          4    1    1    2  501    0  0.24056226063E+02  0.12991936542E+02  0.54957168647E+02  0.61382267906E+02  0.00000000000E+00 0. -1.
<scales pt_clust_5="13000.00000" pt_clust_6="13000.00000" pt_clust_7="13000.00000" pt_clust_8="13000.00000" pt_clust_9="27.34031"></scales>
<clustering>
<clus scale="   27.340">  1  9  2 -1</clus>
<clus scale="   80.290">  5  6 -1 -1</clus>
<clus scale="   95.364">  7  8 -1 -1</clus>
<clus scale="  119.085">  1  5  2 -1</clus>
<clus scale="   27.340">  1  5  2 -1</clus>
</clustering>
</event>
<event>
 9    1  0.4067873E-005  0.9268325E+02  0.7546771E-02  0.1303438E+00
         21   -1    0    0  501  502  0.00000000000E+00  0.00000000000E+00  0.78422151909E+02  0.78422151909E+02  0.00000000000E+00 0.  1.
          1   -1    0    0  502    0 -0.00000000000E+00 -0.00000000000E+00 -0.14248526480E+03  0.14248526480E+03  0.00000000000E+00 0. -1.
        -24    2    1    2    0    0  0.54579732000E+01 -0.29411819555E+01 -0.49358344455E+02  0.94798896745E+02  0.80697860158E+02 0.  0.
         23    2    1    2    0    0 -0.19515113435E+02 -0.21871538105E+02 -0.82278830939E+01  0.96864301527E+02  0.91955375149E+02 0.  0.
         11    1    3    3    0    0  0.35959510311E+02 -0.17437473198E+02 -0.69130800665E+01  0.40557891086E+02  0.00000000000E+00 0. -1.
        -12    1    3    3    0    0 -0.30501537111E+02  0.14496291242E+02 -0.42445264388E+02  0.54241005659E+02  0.00000000000E+00 0.  1.
        -11    1    4    4    0    0  0.22138288633E+02  0.19590334046E+02  0.15624847734E+02  0.33436819203E+02  0.00000000000E+00 0.  1.
         11    1    4    4    0    0 -0.41653402068E+02 -0.41461872151E+02 -0.23852730828E+02  0.63427482325E+02  0.00000000000E+00 0. -1.
          2    1    1    2  501    0  0.14057140235E+02  0.24812720060E+02 -0.64768853437E+01  0.29244218439E+02  0.00000000000E+00 0. -1.
<scales pt_clust_5="13000.00000" pt_clust_6="13000.00000" pt_clust_7="13000.00000" pt_clust_8="13000.00000" pt_clust_9="28.51796"></scales>
<clustering>
<clus scale="   28.518">  1  9  2 -1</clus>
<clus scale="   80.698">  5  6 -1 -1</clus>
<clus scale="   81.526">  2  5  1 -1</clus>
<clus scale="   91.955">  7  8 -1 -1</clus>
<clus scale="   28.518">  1  5  2 -1</clus>
</clustering>
</event>
<event>
 9    1  0.4067873E-005  0.1357591E+03  0.7546771E-02  0.1221672E+00
          3   -1    0    0  502    0 -0.00000000000E+00  0.00000000000E+00  0.11469333978E+03  0.11469333978E+03  0.00000000000E+00 0. -1.
         21   -1    0    0  501  502  0.00000000000E+00 -0.00000000000E+00 -0.86581548813E+03  0.86581548813E+03  0.00000000000E+00 0. -1.
         23    2    1    2    0    0  0.26115162087E+02  0.94941208530E+02 -0.52020682936E+01  0.13429021679E+03  0.91164499904E+02 0.  0.
        -24    2    1    2    0    0 -0.80483039882E+02 -0.10577764976E+03 -0.77019294289E+03  0.78570029600E+03  0.80382553900E+02 0.  0.
         11    1    4    4    0    0 -0.68849203300E+02 -0.25091083671E+02 -0.39715719982E+03  0.40386088774E+03  0.00000000000E+00 0. -1.
        -12    1    4    4    0    0 -0.11633836582E+02 -0.80686566086E+02 -0.37303574307E+03  0.38183940827E+03  0.00000000000E+00 0.  1.
        -13    1    3    3    0    0  0.43305885220E+02  0.13297942355E+02  0.16275752198E+02  0.48136629246E+02  0.00000000000E+00 0.  1.
         13    1    3    3    0    0 -0.17190723133E+02  0.81643266175E+02 -0.21477820491E+02  0.86153587543E+02  0.00000000000E+00 0. -1.
          4    1    1    2  501    0  0.54367877795E+02  0.10836441227E+02  0.24272862837E+02  0.60518315118E+02  0.00000000000E+00 0. -1.
<scales pt_clust_5="13000.00000" pt_clust_6="13000.00000" pt_clust_7="13000.00000" pt_clust_8="13000.00000" pt_clust_9="55.43733"></scales>
<clustering>
<clus scale="   55.437">  2  9  1 -1</clus>
<clus scale="   80.383">  5  6 -1 -1</clus>
<clus scale="   91.164">  7  8 -1 -1</clus>
<clus scale="  128.767">  2  5  1 -1</clus>
<clus scale="   55.437">  2  5  1 -1</clus>
</clustering>
</event>
<event>
 9    1  0.4067873E-005  0.2031745E+03  0.7546771E-02  0.1175639E+00
         21   -1    0    0  501  502  0.00000000000E+00  0.00000000000E+00  0.65704057097E+02  0.65704057097E+02  0.00000000000E+00 0. -1.
          1   -1    0    0  502    0 -0.00000000000E+00 -0.00000000000E+00 -0.11480137099E+04  0.11480137099E+04  0.00000000000E+00 0. -1.
        -24    2    1    2    0    0  0.40939954979E+02 -0.51039853475E+02 -0.90035903276E+02  0.13807635168E+03  0.81715778514E+02 0.  0.
         23    2    1    2    0    0  0.16280365818E+03  0.66705937911E+02 -0.34372029746E+03  0.39565724912E+03  0.86291961506E+02 0.  0.
         13    1    3    3    0    0 -0.10057067922E+02 -0.39016443680E+02 -0.72284878524E+02  0.82755852699E+02  0.00000000000E+00 0. -1.
        -14    1    3    3    0    0  0.50997022900E+02 -0.12023409795E+02 -0.17751024752E+02  0.55320498981E+02  0.00000000000E+00 0.  1.
        -13    1    4    4    0    0  0.10897828639E+03  0.81954668362E+02 -0.20634768126E+03  0.24733014400E+03  0.00000000000E+00 0. -1.
         13    1    4    4    0    0  0.53825371783E+02 -0.15248730451E+02 -0.13737261621E+03  0.14832710511E+03  0.00000000000E+00 0.  1.
          2    1    1    2  501    0 -0.20374361316E+03 -0.15666084436E+02 -0.64855345207E+03  0.67998416621E+03  0.00000000000E+00 0. -1.
<scales pt_clust_5="13000.00000" pt_clust_6="13000.00000" pt_clust_7="13000.00000" pt_clust_8="13000.00000" pt_clust_9="183.93919"></scales>
<clustering>
<clus scale="   81.716">  5  6 -1 -1</clus>
<clus scale="   86.292">  7  8 -1 -1</clus>
<clus scale="  104.683">  2  5  1 -1</clus>
<clus scale="  183.939">  1  9  2 -1</clus>
<clus scale="  183.939">  1  5  2 -1</clus>
</clustering>
</event>
<event>
 9    1  0.4067873E-005  0.9398476E+02  0.7546771E-02  0.1300942E+00
         21   -1    0    0  501  502  0.00000000000E+00  0.00000000000E+00  0.21504150683E+03  0.21504150683E+03  0.00000000000E+00 0.  1.
         -2   -1    0    0    0  501 -0.00000000000E+00 -0.00000000000E+00 -0.14139109152E+03  0.14139109152E+03  0.00000000000E+00 0.  1.
         23    2    1    2    0    0  0.27495213763E+01 -0.24495449574E+02 -0.89258249499E+02  0.13071327463E+03  0.92256913801E+02 0.  0.
        -24    2    1    2    0    0  0.37204748402E+02 -0.24352336073E+02  0.11248033885E+03  0.14493896784E+03  0.79863935508E+02 0.  0.
         11    1    4    4    0    0  0.19369739725E+00 -0.23483000324E+02 -0.29952368662E+01  0.23674042046E+02  0.00000000000E+00 0. -1.
        -12    1    4    4    0    0  0.37011051004E+02 -0.86933574858E+00  0.11547557571E+03  0.12126492579E+03  0.00000000000E+00 0.  1.
        -11    1    3    3    0    0  0.20323136841E+02 -0.55181328727E+02 -0.44909837566E+02  0.73992583691E+02  0.00000000000E+00 0.  1.
         11    1    3    3    0    0 -0.17573615464E+02  0.30685879154E+02 -0.44348411933E+02  0.56720690942E+02  0.00000000000E+00 0. -1.
         -1    1    1    2    0  502 -0.39954269778E+02  0.48847785646E+02  0.50428325971E+02  0.80780355881E+02  0.00000000000E+00 0.  1.
<scales pt_clust_5="13000.00000" pt_clust_6="13000.00000" pt_clust_7="13000.00000" pt_clust_8="13000.00000" pt_clust_9="63.10665"></scales>
<clustering>
<clus scale="   63.107">  1  9  2 -1</clus>
<clus scale="   79.864">  5  6 -1 -1</clus>
<clus scale="   81.854">  1  5  2 -1</clus>
<clus scale="   92.257">  7  8 -1 -1</clus>
<clus scale="   63.107">  1  5  2 -1</clus>
</clustering>
</event>
<event>
 9    1  0.4067873E-005  0.1211758E+03  0.7546771E-02  0.1243909E+00
         21   -1    0    0  501  502  0.00000000000E+00  0.00000000000E+00  0.48358912118E+03  0.48358912118E+03  0.00000000000E+00 0. -1.
          3   -1    0    0  502    0 -0.00000000000E+00 -0.00000000000E+00 -0.75690430653E+02  0.75690430653E+02  0.00000000000E+00 0. -1.
        -24    2    1    2    0    0  0.30340920989E+02 -0.87719523220E+02  0.41541253500E+02  0.13032304615E+03  0.81505425426E+02 0.  0.
         23    2    1    2    0    0 -0.84927049010E+02  0.17297287338E+02  0.15303846668E+03  0.19777709530E+03  0.90461081890E+02 0.  0.
         13    1    3    3    0    0  0.82958658167E+01 -0.53366898349E+02 -0.19047007047E+02  0.57268103745E+02  0.00000000000E+00 0. -1.
        -14    1    3    3    0    0  0.22045055173E+02 -0.34352624871E+02  0.60588260547E+02  0.73054942401E+02  0.00000000000E+00 0.  1.
        -13    1    4    4    0    0 -0.80374302627E+02 -0.21921654592E+02  0.12112529004E+03  0.14700994303E+03  0.00000000000E+00 0. -1.
         13    1    4    4    0    0 -0.45527463832E+01  0.39218941930E+02  0.31913176643E+02  0.50767152266E+02  0.00000000000E+00 0.  1.
          4    1    1    2  501    0  0.54586128021E+02  0.70422235882E+02  0.21331897034E+03  0.23117941039E+03  0.00000000000E+00 0. -1.
<scales pt_clust_5="13000.00000" pt_clust_6="13000.00000" pt_clust_7="13000.00000" pt_clust_8="13000.00000" pt_clust_9="89.10071"></scales>
<clustering>
<clus scale="   81.505">  5  6 -1 -1</clus>
<clus scale="   89.101">  1  9  2 -1</clus>
<clus scale="   90.461">  7  8 -1 -1</clus>
<clus scale="  114.645">  2  5  1 -1</clus>
<clus scale="   89.101">  1  5  2 -1</clus>
</clustering>
</event>
<event>
 9    1  0.4067873E-005  0.9146667E+02  0.7546771E-02  0.1303511E+00
         21   -1    0    0  501  502  0.00000000000E+00  0.00000000000E+00  0.69074674487E+02  0.69074674487E+02  0.00000000000E+00 0. -1.
          1   -1    0    0  502    0 -0.00000000000E+00 -0.00000000000E+00 -0.32200748502E+03  0.32200748502E+03  0.00000000000E+00 0. -1.
         23    2    1    2    0    0 -0.72402168255E+01 -0.33549180793E+01 -0.20786526446E+03  0.22686284222E+03  0.90526818098E+02 0.  0.
        -24    2    1    2    0    0 -0.19052363479E+02  0.37630253937E+02 -0.67543045242E+02  0.11552387098E+03  0.83693925950E+02 0.  0.
         11    1    4    4    0    0 -0.49906848765E+02  0.28759098098E+02 -0.26466710736E+02  0.63389794559E+02  0.00000000000E+00 0. -1.
        -12    1    4    4    0    0  0.30854485285E+02  0.88711558388E+01 -0.41076334507E+02  0.52134076424E+02  0.00000000000E+00 0.  1.
        -13    1    3    3    0    0 -0.33804688610E+02 -0.29226098339E+02 -0.16108663891E+03  0.16717005424E+03  0.00000000000E+00 0. -1.
         13    1    3    3    0    0  0.26564471785E+02  0.25871180260E+02 -0.46778625548E+02  0.59692787985E+02  0.00000000000E+00 0.  1.
          2    1    1    2  501    0  0.26292580305E+02 -0.34275335857E+02  0.22475499175E+02  0.48695446300E+02  0.00000000000E+00 0. -1.
<scales pt_clust_5="13000.00000" pt_clust_6="13000.00000" pt_clust_7="13000.00000" pt_clust_8="13000.00000" pt_clust_9="43.19836"></scales>
<clustering>
<clus scale="   43.198">  1  9  2 -1</clus>
<clus scale="   83.694">  5  6 -1 -1</clus>
<clus scale="   84.710">  1  5  2 -1</clus>
<clus scale="   90.527">  7  8 -1 -1</clus>
<clus scale="   43.198">  1  5  2 -1</clus>
</clustering>
</event>
<event>
 9    1  0.4067873E-005  0.9702225E+02  0.7546771E-02  0.1292946E+00
          1   -1    0    0  502    0 -0.00000000000E+00  0.00000000000E+00  0.45675839862E+03  0.45675839862E+03  0.00000000000E+00 0. -1.
         21   -1    0    0  501  502  0.00000000000E+00 -0.00000000000E+00 -0.39852899072E+02  0.39852899072E+02  0.00000000000E+00 0. -1.
         23    2    1    2    0    0  0.45624471993E+02  0.47551612924E+01  0.18705083642E+03  0.21380526396E+03  0.92846494212E+02 0.  0.
        -24    2    1    2    0    0  0.14912657487E+02 -0.41441363546E+02  0.11263072907E+03  0.14586782797E+03  0.81559598699E+02 0.  0.
         11    1    4    4    0    0 -0.21589599368E+02 -0.47148276341E+02  0.44360120248E+02  0.68241417271E+02  0.00000000000E+00 0. -1.
        -12    1    4    4    0    0  0.36502256854E+02  0.57069127949E+01  0.68270608818E+02  0.77626410696E+02  0.00000000000E+00 0.  1.
        -11    1    3    3    0    0 -0.23625648278E+02  0.58583768814E+00  0.14246453108E+02  0.27594852573E+02  0.00000000000E+00 0.  1.
         11    1    3    3    0    0  0.69250120271E+02  0.41693236042E+01  0.17280438331E+03  0.18621041138E+03  0.00000000000E+00 0. -1.
          2    1    1    2  501    0 -0.60537129480E+02  0.36686202254E+02  0.11722393406E+03  0.13693820577E+03  0.00000000000E+00 0. -1.
<scales pt_clust_5="13000.00000" pt_clust_6="13000.00000" pt_clust_7="13000.00000" pt_clust_8="13000.00000" pt_clust_9="70.78578"></scales>
<clustering>
<clus scale="   70.786">  2  9  1 -1</clus>
<clus scale="   81.560">  5  6 -1 -1</clus>
<clus scale="   86.283">  2  5  1 -1</clus>
<clus scale="   92.846">  7  8 -1 -1</clus>
<clus scale="   70.786">  2  5  1 -1</clus>
</clustering>
</event>
<event>
 9    1  0.4067873E-005  0.1053822E+03  0.7546771E-02  0.1275357E+00
         21   -1    0    0  501  502  0.00000000000E+00  0.00000000000E+00  0.25317013781E+02  0.25317013781E+02  0.00000000000E+00 0. -1.
          1   -1    0    0  502    0 -0.00000000000E+00 -0.00000000000E+00 -0.64980367231E+03  0.64980367231E+03  0.00000000000E+00 0. -1.
         23    2    1    2    0    0  0.22714995519E+01  0.32596610877E+02 -0.28801743892E+03  0.30466510770E+03  0.93803432663E+02 0.  0.
        -24    2    1    2    0    0  0.18448109279E+02 -0.62567035470E+02 -0.30549303792E+03  0.32263244202E+03  0.80689093183E+02 0.  0.
         11    1    4    4    0    0  0.31837466181E+02 -0.65002425905E+02 -0.15005354944E+03  0.16659834131E+03  0.00000000000E+00 0. -1.
        -12    1    4    4    0    0 -0.13389356901E+02  0.24353904344E+01 -0.15543948848E+03  0.15603410071E+03  0.00000000000E+00 0.  1.
        -11    1    3    3    0    0 -0.40842026210E+02  0.11695478823E+02 -0.19989436317E+03  0.20435902661E+03  0.00000000000E+00 0.  1.
         11    1    3    3    0    0  0.43113525762E+02  0.20901132053E+02 -0.88123075750E+02  0.10030608109E+03  0.00000000000E+00 0. -1.
          2    1    1    2  501    0 -0.20719608831E+02  0.29970424593E+02 -0.30976181685E+02  0.47823136369E+02  0.00000000000E+00 0. -1.
<scales pt_clust_5="13000.00000" pt_clust_6="13000.00000" pt_clust_7="13000.00000" pt_clust_8="13000.00000" pt_clust_9="36.43527"></scales>
<clustering>
<clus scale="   36.435">  1  9  2 -1</clus>
<clus scale="   80.689">  5  6 -1 -1</clus>
<clus scale="   93.803">  7  8 -1 -1</clus>
<clus scale="   93.899">  1  5  2 -1</clus>
<clus scale="   36.435">  1  5  2 -1</clus>
</clustering>
</event>
<event>
 9    1  0.4836668E-005  0.1108520E+03  0.7546771E-02  0.1264972E+00
         21   -1    0    0  501  502  0.00000000000E+00  0.00000000000E+00  0.37587128076E+03  0.37587128076E+03  0.00000000000E+00 0.  1.
         -2   -1    0    0    0  501 -0.00000000000E+00 -0.00000000000E+00 -0.16305074122E+03  0.16305074122E+03  0.00000000000E+00 0.  1.
        -24    2    1    2    0    0 -0.63903926153E+02 -0.11078768305E+02 -0.11046100354E+03  0.15115005003E+03  0.80238727790E+02 0.  0.
         23    2    1    2    0    0  0.27402327430E+02  0.64328502380E+01  0.47909806354E+02  0.10995270579E+03  0.94878758716E+02 0.  0.
         13    1    3    3    0    0 -0.19385661804E+02 -0.15989365538E+02  0.64584517066E+01  0.25945621834E+02  0.00000000000E+00 0. -1.
        -14    1    3    3    0    0 -0.44518264349E+02  0.49105972338E+01 -0.11691945524E+03  0.12520442820E+03  0.00000000000E+00 0.  1.
        -13    1    4    4    0    0 -0.11154597879E+02  0.27073474229E+02 -0.15339291048E+02  0.33055890708E+02  0.00000000000E+00 0.  1.
         13    1    4    4    0    0  0.38556925309E+02 -0.20640623991E+02  0.63249097402E+02  0.76896815084E+02  0.00000000000E+00 0. -1.
         -1    1    1    2    0  502  0.36501598723E+02  0.46459180667E+01  0.27537173672E+03  0.27781926615E+03  0.00000000000E+00 0.  1.
<scales pt_clust_5="13000.00000" pt_clust_6="13000.00000" pt_clust_7="13000.00000" pt_clust_8="13000.00000" pt_clust_9="36.79608"></scales>
<clustering>
<clus scale="   36.796">  1  9  2 -1</clus>
<clus scale="   80.239">  5  6 -1 -1</clus>
<clus scale="   94.879">  7  8 -1 -1</clus>
<clus scale="   98.613">  2  5  1 -1</clus>
<clus scale="   36.796">  1  5  2 -1</clus>
</clustering>
</event>
<event>
 9    1  0.4067873E-005  0.1301030E+03  0.7546771E-02  0.1232934E+00
         -4   -1    0    0    0  501 -0.00000000000E+00  0.00000000000E+00  0.91358603951E+02  0.91358603951E+02  0.00000000000E+00 0.  1.
         21   -1    0    0  501  502  0.00000000000E+00 -0.00000000000E+00 -0.27272595185E+03  0.27272595185E+03  0.00000000000E+00 0.  1.
        -24    2    1    2    0    0  0.12896005887E+02  0.73212447299E+02 -0.50742313684E+02  0.12116752272E+03  0.81119767972E+02 0.  0.
         23    2    1    2    0    0  0.42215471453E+02 -0.94776521991E+02 -0.80356079093E+02  0.16526877425E+03  0.10045861408E+03 0.  0.
         13    1    3    3    0    0 -0.33011609967E+02  0.32503857847E+02 -0.34306340522E+02  0.57647134947E+02  0.00000000000E+00 0. -1.
        -14    1    3    3    0    0  0.45907615854E+02  0.40708589452E+02 -0.16435973163E+02  0.63520387770E+02  0.00000000000E+00 0.  1.
        -11    1    4    4    0    0  0.44104135473E+02  0.51918434480E+01 -0.23342573259E+02  0.50169769090E+02  0.00000000000E+00 0.  1.
         11    1    4    4    0    0 -0.18886640200E+01 -0.99968365439E+02 -0.57013505834E+02  0.11509900516E+03  0.00000000000E+00 0. -1.
         -3    1    1    2    0  502 -0.55111477340E+02  0.21564074691E+02 -0.50268955122E+02  0.77648258840E+02  0.00000000000E+00 0.  1.
<scales pt_clust_5="13000.00000" pt_clust_6="13000.00000" pt_clust_7="13000.00000" pt_clust_8="13000.00000" pt_clust_9="59.18010"></scales>
<clustering>
<clus scale="   59.180">  2  9  1 -1</clus>
<clus scale="   81.120">  5  6 -1 -1</clus>
<clus scale="  100.459">  7  8 -1 -1</clus>
<clus scale="  115.824">  1  5  2 -1</clus>
<clus scale="   59.180">  2  5  1 -1</clus>
</clustering>
</event>
<event>
 9    1  0.4067873E-005  0.1273050E+03  0.7546771E-02  0.1233554E+00
         21   -1    0    0  501  502  0.00000000000E+00  0.00000000000E+00  0.36055100085E+03  0.36055100085E+03  0.00000000000E+00 0. -1.
          3   -1    0    0  502    0 -0.00000000000E+00 -0.00000000000E+00 -0.31584532577E+03  0.31584532577E+03  0.00000000000E+00 0. -1.
        -24    2    1    2    0    0 -0.63974611446E+02 -0.59878190248E+02 -0.25542923181E+03  0.28216756139E+03  0.81830872312E+02 0.  0.
         23    2    1    2    0    0  0.98415903908E+02  0.66089190838E+02  0.74973966893E+02  0.16636427029E+03  0.89456712597E+02 0.  0.
         13    1    3    3    0    0 -0.81517925274E+02 -0.41679810417E+02 -0.22290868256E+03  0.24097854572E+03  0.00000000000E+00 0. -1.
        -14    1    3    3    0    0  0.17543313828E+02 -0.18198379831E+02 -0.32520549244E+02  0.41189015668E+02  0.00000000000E+00 0.  1.
        -11    1    4    4    0    0  0.53761157908E+02  0.39975731953E+02  0.90275649340E+02  0.11241892238E+03  0.00000000000E+00 0.  1.
         11    1    4    4    0    0  0.44654746001E+02  0.26113458885E+02 -0.15301682447E+02  0.53945347909E+02  0.00000000000E+00 0. -1.
          4    1    1    2  501    0 -0.34441292462E+02 -0.62110005898E+01  0.22516093999E+03  0.22786449494E+03  0.00000000000E+00 0. -1.
<scales pt_clust_5="13000.00000" pt_clust_6="13000.00000" pt_clust_7="13000.00000" pt_clust_8="13000.00000" pt_clust_9="34.99684"></scales>
<clustering>
<clus scale="   34.997">  1  9  2 -1</clus>
<clus scale="   81.831">  5  6 -1 -1</clus>
<clus scale="   89.457">  7  8 -1 -1</clus>
<clus scale="  122.067">  2  5  1 -1</clus>
<clus scale="   34.997">  1  5  2 -1</clus>
</clustering>
</event>
<event>
 9    1  0.4067873E-005  0.9536215E+02  0.7546771E-02  0.1297221E+00
         21   -1    0    0  501  502  0.00000000000E+00  0.00000000000E+00  0.26763857367E+03  0.26763857367E+03  0.00000000000E+00 0.  1.
         -4   -1    0    0    0  501 -0.00000000000E+00 -0.00000000000E+00 -0.74798430671E+02  0.74798430671E+02  0.00000000000E+00 0.  1.
         23    2    1    2    0    0  0.16714617348E+01 -0.29264981771E+02  0.46990454771E+02  0.10745716284E+03  0.92085319479E+02 0.  0.
        -24    2    1    2    0    0 -0.56674420325E+02 -0.16338184919E+02  0.12647459247E+03  0.16095032981E+03  0.80188901475E+02 0.  0.
         13    1    4    4    0    0 -0.16205444544E+02 -0.45268984590E+02  0.77074353009E+02  0.90842464137E+02  0.00000000000E+00 0. -1.
        -14    1    4    4    0    0 -0.40468975781E+02  0.28930799671E+02  0.49400239462E+02  0.70107865674E+02  0.00000000000E+00 0.  1.
        -11    1    3    3    0    0  0.26910827602E+02 -0.53125660686E+02  0.40771033145E+02  0.72172055598E+02  0.00000000000E+00 0.  1.
         11    1    3    3    0    0 -0.25239365867E+02  0.23860678915E+02  0.62194216259E+01  0.35285107241E+02  0.00000000000E+00 0. -1.
         -3    1    1    2    0  502  0.55002958590E+02  0.45603166690E+02  0.19375095759E+02  0.74029511693E+02  0.00000000000E+00 0.  1.
<scales pt_clust_5="13000.00000" pt_clust_6="13000.00000" pt_clust_7="13000.00000" pt_clust_8="13000.00000" pt_clust_9="71.44914"></scales>
<clustering>
<clus scale="   71.449">  1  9  2 -1</clus>
<clus scale="   80.189">  5  6 -1 -1</clus>
<clus scale="   83.931">  1  5  2 -1</clus>
<clus scale="   92.085">  7  8 -1 -1</clus>
<clus scale="   71.449">  1  5  2 -1</clus>
</clustering>
</event>
<event>
 9    1  0.4067873E-005  0.9635704E+02  0.7546771E-02  0.1292753E+00
         21   -1    0    0  501  502  0.00000000000E+00  0.00000000000E+00  0.10591896520E+03  0.10591896520E+03  0.00000000000E+00 0.  1.
          3   -1    0    0  502    0 -0.00000000000E+00 -0.00000000000E+00 -0.18905938779E+03  0.18905938779E+03  0.00000000000E+00 0. -1.
         23    2    1    2    0    0  0.36042584740E+02  0.40139463781E+01 -0.84098905866E+02  0.12973216357E+03  0.91883777764E+02 0.  0.
        -24    2    1    2    0    0 -0.20402388904E+02  0.16140377794E+02 -0.55297571824E+02  0.10347600047E+03  0.83502646394E+02 0.  0.
         13    1    4    4    0    0 -0.33574986312E+02 -0.22565570698E+02 -0.46537270337E+02  0.61661999783E+02  0.00000000000E+00 0. -1.
        -14    1    4    4    0    0  0.13172597408E+02  0.38705948492E+02 -0.87603014870E+01  0.41814000685E+02  0.00000000000E+00 0.  1.
        -11    1    3    3    0    0  0.83994676988E+01  0.39292599073E+02 -0.73381302644E+01  0.40844920802E+02  0.00000000000E+00 0.  1.
         11    1    3    3    0    0  0.27643117041E+02 -0.35278652695E+02 -0.76760775602E+02  0.88887242767E+02  0.00000000000E+00 0. -1.
          4    1    1    2  501    0 -0.15640195836E+02 -0.20154324172E+02  0.56256055098E+02  0.61770188957E+02  0.00000000000E+00 0. -1.
<scales pt_clust_5="13000.00000" pt_clust_6="13000.00000" pt_clust_7="13000.00000" pt_clust_8="13000.00000" pt_clust_9="25.51103"></scales>
<clustering>
<clus scale="   25.511">  1  9  2 -1</clus>
<clus scale="   83.503">  5  6 -1 -1</clus>
<clus scale="   88.401">  1  5  2 -1</clus>
<clus scale="   91.884">  7  8 -1 -1</clus>
<clus scale="   25.511">  1  5  2 -1</clus>
</clustering>
</event>
<event>
 9    1  0.4067873E-005  0.1404145E+03  0.7546771E-02  0.1234285E+00
         -2   -1    0    0    0  501 -0.00000000000E+00  0.00000000000E+00  0.16434421924E+03  0.16434421924E+03  0.00000000000E+00 0.  1.
         21   -1    0    0  501  502  0.00000000000E+00 -0.00000000000E+00 -0.32703010488E+03  0.32703010488E+03  0.00000000000E+00 0.  1.
        -24    2    1    2    0    0  0.22812708714E+02 -0.34367414513E+02 -0.70844545749E+02  0.11423571657E+03  0.79556963355E+02 0.  0.
         23    2    1    2    0    0 -0.92973896145E+02 -0.48346329153E+02 -0.18615896819E+03  0.23340284087E+03  0.94022400420E+02 0.  0.
         11    1    3    3    0    0  0.39031690599E+02  0.63298801052E+01 -0.12898354244E+02  0.41592160263E+02  0.00000000000E+00 0. -1.
        -12    1    3    3    0    0 -0.16218981885E+02 -0.40697294619E+02 -0.57946191505E+02  0.72643556305E+02  0.00000000000E+00 0.  1.
        -13    1    4    4    0    0 -0.55708282085E+02 -0.63696160856E+02 -0.67992381995E+02  0.10855218842E+03  0.00000000000E+00 0. -1.
         13    1    4    4    0    0 -0.37265614060E+02  0.15349831702E+02 -0.11816658620E+03  0.12485065245E+03  0.00000000000E+00 0.  1.
         -1    1    1    2    0  502  0.70161187431E+02  0.82713743667E+02  0.94317628303E+02  0.14373576668E+03  0.00000000000E+00 0.  1.
<scales pt_clust_5="13000.00000" pt_clust_6="13000.00000" pt_clust_7="13000.00000" pt_clust_8="13000.00000" pt_clust_9="104.28815"></scales>
<clustering>
<clus scale="   79.557">  5  6 -1 -1</clus>
<clus scale="   89.615">  1  5  2 -1</clus>
<clus scale="   94.022">  7  8 -1 -1</clus>
<clus scale="  104.288">  2  9  1 -1</clus>
<clus scale="  104.288">  2  5  1 -1</clus>
</clustering>
</event>
<event>
 9    1  0.4067873E-005  0.9584510E+02  0.7546771E-02  0.1297166E+00
         -2   -1    0    0    0  501 -0.00000000000E+00  0.00000000000E+00  0.14438291054E+03  0.14438291054E+03  0.00000000000E+00 0.  1.
         21   -1    0    0  501  502  0.00000000000E+00 -0.00000000000E+00 -0.12226656636E+03  0.12226656636E+03  0.00000000000E+00 0. -1.
        -24    2    1    2    0    0  0.22532048441E+02 -0.11629121463E+02  0.62328289157E+02  0.10448791664E+03  0.79937346850E+02 0.  0.
         23    2    1    2    0    0  0.91082655854E+01  0.21046971005E+02 -0.68979376191E+02  0.11837377132E+03  0.93425156709E+02 0.  0.
         13    1    3    3    0    0  0.23493785080E+02  0.32236624928E+02  0.32191298356E+02  0.51258536986E+02  0.00000000000E+00 0. -1.
        -14    1    3    3    0    0 -0.96173663882E+00 -0.43865746390E+02  0.30136990801E+02  0.53229379653E+02  0.00000000000E+00 0.  1.
        -13    1    4    4    0    0  0.41774451311E+02  0.40484194517E+02 -0.40719773188E+02  0.71008272170E+02  0.00000000000E+00 0. -1.
         13    1    4    4    0    0 -0.32666185725E+02 -0.19437223513E+02 -0.28259603002E+02  0.47365499148E+02  0.00000000000E+00 0.  1.
         -1    1    1    2    0  502 -0.31640314027E+02 -0.94178495419E+01  0.28767431211E+02  0.43787788939E+02  0.00000000000E+00 0.  1.
<scales pt_clust_5="13000.00000" pt_clust_6="13000.00000" pt_clust_7="13000.00000" pt_clust_8="13000.00000" pt_clust_9="33.01222"></scales>
<clustering>
<clus scale="   33.012">  2  9  1 -1</clus>
<clus scale="   79.937">  5  6 -1 -1</clus>
<clus scale="   82.753">  1  5  2 -1</clus>
<clus scale="   93.425">  7  8 -1 -1</clus>
<clus scale="   33.012">  2  5  1 -1</clus>
</clustering>
</event>
<event>
 9    1  0.4067873E-005  0.1290540E+03  0.7546771E-02  0.1238191E+00
          3   -1    0    0  502    0 -0.00000000000E+00  0.00000000000E+00  0.74361041834E+03  0.74361041834E+03  0.00000000000E+00 0. -1.
         21   -1    0    0  501  502  0.00000000000E+00 -0.00000000000E+00 -0.60161039159E+02  0.60161039159E+02  0.00000000000E+00 0. -1.
         23    2    1    2    0    0  0.38960621310E+02 -0.42641595341E+02  0.23822210001E+03  0.26097346359E+03  0.89560840194E+02 0.  0.
        -24    2    1    2    0    0  0.85437919849E+02 -0.27847418405E+02  0.66683126126E+02  0.13815077237E+03  0.81017774197E+02 0.  0.
         13    1    4    4    0    0  0.93034311065E+02 -0.44169312704E+02  0.56496780768E+02  0.11746572886E+03  0.00000000000E+00 0. -1.
        -14    1    4    4    0    0 -0.75963912166E+01  0.16321894299E+02  0.10186345359E+02  0.20685043505E+02  0.00000000000E+00 0.  1.
        -13    1    3    3    0    0  0.10219092063E+02  0.26988794710E+02  0.43639077882E+02  0.52318199518E+02  0.00000000000E+00 0.  1.
         13    1    3    3    0    0  0.28741529248E+02 -0.69630390051E+02  0.19458302213E+03  0.20865526407E+03  0.00000000000E+00 0. -1.
          4    1    1    2  501    0 -0.12439854116E+03  0.70489013746E+02  0.37854415304E+03  0.40464722154E+03  0.00000000000E+00 0. -1.
<scales pt_clust_5="13000.00000" pt_clust_6="13000.00000" pt_clust_7="13000.00000" pt_clust_8="13000.00000" pt_clust_9="100.45433"></scales>
<clustering>
<clus scale="   81.018">  5  6 -1 -1</clus>
<clus scale="   89.561">  7  8 -1 -1</clus>
<clus scale="  106.571">  1  7  2 -1</clus>
<clus scale="  100.454">  2  9  1 -1</clus>
<clus scale="  100.454">  2  5  1 -1</clus>
</clustering>
</event>
<event>
 9    1  0.4067873E-005  0.1429099E+03  0.7546771E-02  0.1209796E+00
         21   -1    0    0  501  502  0.00000000000E+00  0.00000000000E+00  0.79023215588E+02  0.79023215588E+02  0.00000000000E+00 0.  1.
          1   -1    0    0  502    0 -0.00000000000E+00 -0.00000000000E+00 -0.40872303068E+03  0.40872303068E+03  0.00000000000E+00 0. -1.
         23    2    1    2    0    0  0.99005581334E+02  0.26393155944E+02 -0.26162180630E+03  0.29616367651E+03  0.93638933878E+02 0.  0.
        -24    2    1    2    0    0 -0.11917532707E+03 -0.38585872315E+02 -0.57895167983E+02  0.16590823973E+03  0.92098129245E+02 0.  0.
         13    1    4    4    0    0 -0.73367745265E+02 -0.51579613361E+02 -0.73337456493E+02  0.11585191015E+03  0.00000000000E+00 0. -1.
        -14    1    4    4    0    0 -0.45807581800E+02  0.12993741046E+02  0.15442288510E+02  0.50056329582E+02  0.00000000000E+00 0.  1.
        -11    1    3    3    0    0  0.10595086736E+03  0.17871473124E+01 -0.24116862907E+03  0.26342188185E+03  0.00000000000E+00 0. -1.
         11    1    3    3    0    0 -0.69452860299E+01  0.24606008632E+02 -0.20453177230E+02  0.32741794661E+02  0.00000000000E+00 0.  1.
          2    1    1    2  501    0  0.20169745732E+02  0.12192716371E+02 -0.10182840811E+02  0.25674330028E+02  0.00000000000E+00 0. -1.
<scales pt_clust_5="13000.00000" pt_clust_6="13000.00000" pt_clust_7="13000.00000" pt_clust_8="13000.00000" pt_clust_9="23.56864"></scales>
<clustering>
<clus scale="   23.569">  1  9  2 -1</clus>
<clus scale="   92.098">  5  6 -1 -1</clus>
<clus scale="   93.639">  7  8 -1 -1</clus>
<clus scale="  141.905">  1  5  2 -1</clus>
<clus scale="   23.569">  1  5  2 -1</clus>
</clustering>
</event>
<event>
 9    1  0.4067873E-005  0.2123928E+03  0.7546771E-02  0.1175602E+00
          1   -1    0    0  502    0 -0.00000000000E+00  0.00000000000E+00  0.38792693189E+03  0.38792693189E+03  0.00000000000E+00 0. -1.
         21   -1    0    0  501  502  0.00000000000E+00 -0.00000000000E+00 -0.18620302680E+03  0.18620302680E+03  0.00000000000E+00 0. -1.
        -24    2    1    2    0    0  0.31030279994E+02  0.28787657292E+02  0.56288701147E+02  0.10760790273E+03  0.81359912518E+02 0.  0.
         23    2    1    2    0    0 -0.87170228237E+02  0.16622071866E+03 -0.12822812582E+02  0.20917878273E+03  0.91451422179E+02 0.  0.
         13    1    3    3    0    0  0.40857210237E+00  0.51132417857E+02  0.19331296013E+02  0.54666169543E+02  0.00000000000E+00 0. -1.
        -14    1    3    3    0    0  0.30621707891E+02 -0.22344760564E+02  0.36957405135E+02  0.52941733190E+02  0.00000000000E+00 0.  1.
        -13    1    4    4    0    0 -0.28644156255E+02  0.73874589460E+02 -0.50011389476E+02  0.93696754121E+02  0.00000000000E+00 0. -1.
         13    1    4    4    0    0 -0.58526071983E+02  0.92346129198E+02  0.37188576894E+02  0.11548202861E+03  0.00000000000E+00 0.  1.
          2    1    1    2  501    0  0.56139948244E+02 -0.19500837595E+03  0.15825801653E+03  0.25734327323E+03  0.00000000000E+00 0. -1.
<scales pt_clust_5="13000.00000" pt_clust_6="13000.00000" pt_clust_7="13000.00000" pt_clust_8="13000.00000" pt_clust_9="191.69608"></scales>
<clustering>
<clus scale="   81.360">  5  6 -1 -1</clus>
<clus scale="   91.451">  7  8 -1 -1</clus>
<clus scale="   91.712">  1  5  2 -1</clus>
<clus scale="  191.696">  2  9  1 -1</clus>
<clus scale="  191.696">  2  5  1 -1</clus>
</clustering>
</event>
<event>
 9    1  0.4067873E-005  0.1049848E+03  0.7546771E-02  0.1274730E+00
          1   -1    0    0  502    0 -0.00000000000E+00  0.00000000000E+00  0.68170649446E+03  0.68170649446E+03  0.00000000000E+00 0. -1.
         21   -1    0    0  501  502  0.00000000000E+00 -0.00000000000E+00 -0.33813320667E+02  0.33813320667E+02  0.00000000000E+00 0.  1.
         23    2    1    2    0    0  0.34009682719E+01 -0.55748250757E+02  0.55747207625E+03  0.56756662099E+03  0.90759679466E+02 0.  0.
        -24    2    1    2    0    0  0.10832498882E+02  0.41500683671E+02  0.89660011982E+02  0.12779968312E+03  0.80337982791E+02 0.  0.
         13    1    4    4    0    0 -0.15925790404E+02  0.55569787307E+02  0.73536006570E+02  0.93537031831E+02  0.00000000000E+00 0. -1.
        -14    1    4    4    0    0  0.26758289286E+02 -0.14069103636E+02  0.16124005412E+02  0.34262651286E+02  0.00000000000E+00 0.  1.
        -13    1    3    3    0    0  0.30636187806E+00 -0.80991843039E+02  0.43640596443E+03  0.44385801591E+03  0.00000000000E+00 0. -1.
         13    1    3    3    0    0  0.30946063939E+01  0.25243592283E+02  0.12106611182E+03  0.12370860508E+03  0.00000000000E+00 0.  1.
          2    1    1    2  501    0 -0.14233467154E+02  0.14247567086E+02  0.76108555834E+00  0.20153511017E+02  0.00000000000E+00 0. -1.
<scales pt_clust_5="13000.00000" pt_clust_6="13000.00000" pt_clust_7="13000.00000" pt_clust_8="13000.00000" pt_clust_9="20.13913"></scales>
<clustering>
<clus scale="   20.139">  2  9  1 -1</clus>
<clus scale="   80.338">  5  6 -1 -1</clus>
<clus scale="   90.760">  7  8 -1 -1</clus>
<clus scale="   96.118">  2  5  1 -1</clus>
<clus scale="   20.139">  2  5  1 -1</clus>
</clustering>
</event>
<event>
 9    1  0.4067873E-005  0.1479247E+03  0.7546771E-02  0.1207077E+00
         21   -1    0    0  501  502  0.00000000000E+00  0.00000000000E+00  0.13416438368E+03  0.13416438368E+03  0.00000000000E+00 0.  1.
         -2   -1    0    0    0  501 -0.00000000000E+00 -0.00000000000E+00 -0.35238660307E+03  0.35238660307E+03  0.00000000000E+00 0.  1.
         23    2    1    2    0    0 -0.95200204826E+02 -0.13647633866E+02 -0.77047383895E+02  0.15599379439E+03  0.95647412997E+02 0.  0.
        -24    2    1    2    0    0  0.86385069996E+02  0.13400664914E+03 -0.10197344092E+03  0.20366846751E+03  0.75246924676E+02 0.  0.
         13    1    4    4    0    0  0.43242757715E+02  0.56616413671E+02 -0.36819657738E+01  0.71336605356E+02  0.00000000000E+00 0. -1.
        -14    1    4    4    0    0  0.43142312281E+02  0.77390235466E+02 -0.98291475146E+02  0.13233186215E+03  0.00000000000E+00 0.  1.
        -13    1    3    3    0    0 -0.49157766182E+02  0.30143652586E+02 -0.72009612585E+02  0.92252425832E+02  0.00000000000E+00 0.  1.
         13    1    3    3    0    0 -0.46042438644E+02 -0.43791286453E+02 -0.50377713101E+01  0.63741368555E+02  0.00000000000E+00 0. -1.
         -1    1    1    2    0  502  0.88151348299E+01 -0.12035901527E+03 -0.39201394582E+02  0.12688872486E+03  0.00000000000E+00 0.  1.
<scales pt_clust_5="13000.00000" pt_clust_6="13000.00000" pt_clust_7="13000.00000" pt_clust_8="13000.00000" pt_clust_9="120.68140"></scales>
<clustering>
<clus scale="   75.247">  5  6 -1 -1</clus>
<clus scale="   95.647">  7  8 -1 -1</clus>
<clus scale="  120.681">  1  9  2 -1</clus>
<clus scale="  135.630">  1  5  2 -1</clus>
<clus scale="  120.681">  1  5  2 -1</clus>
</clustering>
</event>
<event>
 9    1  0.4067873E-005  0.1164052E+03  0.7546771E-02  0.1253058E+00
         21   -1    0    0  501  502  0.00000000000E+00  0.00000000000E+00  0.12639115894E+03  0.12639115894E+03  0.00000000000E+00 0.  1.
         -4   -1    0    0    0  501 -0.00000000000E+00 -0.00000000000E+00 -0.18212963903E+03  0.18212963903E+03  0.00000000000E+00 0.  1.
        -24    2    1    2    0    0 -0.18431594554E+02  0.45470728309E+02 -0.21759531155E+02  0.96540200725E+02  0.80244765245E+02 0.  0.
         23    2    1    2    0    0  0.57929122110E+01 -0.10013845139E+03 -0.61916853936E+02  0.14930027518E+03  0.91627550931E+02 0.  0.
         13    1    3    3    0    0 -0.17295246078E+02  0.11094327158E+02 -0.48695342774E+02  0.52853060838E+02  0.00000000000E+00 0. -1.
        -14    1    3    3    0    0 -0.11363484753E+01  0.34376401151E+02  0.26935811619E+02  0.43687139887E+02  0.00000000000E+00 0.  1.
        -11    1    4    4    0    0  0.36113385699E+02 -0.18572153790E+02 -0.45067587761E+02  0.60664561233E+02  0.00000000000E+00 0. -1.
         11    1    4    4    0    0 -0.30320473488E+02 -0.81566297600E+02 -0.16849266175E+02  0.88635713950E+02  0.00000000000E+00 0.  1.
         -3    1    1    2    0  502  0.12638682343E+02  0.54667723081E+02  0.27937904994E+02  0.62680322061E+02  0.00000000000E+00 0.  1.
<scales pt_clust_5="13000.00000" pt_clust_6="13000.00000" pt_clust_7="13000.00000" pt_clust_8="13000.00000" pt_clust_9="56.10968"></scales>
<clustering>
<clus scale="   56.110">  1  9  2 -1</clus>
<clus scale="   80.245">  5  6 -1 -1</clus>
<clus scale="   91.628">  7  8 -1 -1</clus>
<clus scale="  107.674">  2  5  1 -1</clus>
<clus scale="   56.110">  1  5  2 -1</clus>
</clustering>
</event>
<event>
 9    1  0.4067873E-005  0.1159498E+03  0.7546771E-02  0.1253013E+00
          1   -1    0    0  502    0 -0.00000000000E+00  0.00000000000E+00  0.17854736206E+03  0.17854736206E+03  0.00000000000E+00 0. -1.
         21   -1    0    0  501  502  0.00000000000E+00 -0.00000000000E+00 -0.24077325236E+03  0.24077325236E+03  0.00000000000E+00 0. -1.
         23    2    1    2    0    0 -0.46039639048E+02 -0.54519246203E+02  0.10053711633E+03  0.15253295638E+03  0.89814221893E+02 0.  0.
        -24    2    1    2    0    0  0.32016197012E+02  0.73875996063E+02 -0.12553747722E+02  0.11468847279E+03  0.80704086291E+02 0.  0.
         13    1    4    4    0    0  0.40191324372E+02  0.37319392060E+02  0.26206262557E+02  0.60785259526E+02  0.00000000000E+00 0. -1.
        -14    1    4    4    0    0 -0.81751273598E+01  0.36556604003E+02 -0.38760010279E+02  0.53903213266E+02  0.00000000000E+00 0.  1.
        -11    1    3    3    0    0 -0.70656787093E+02 -0.22491414779E+02  0.61126675315E+02  0.96097428353E+02  0.00000000000E+00 0.  1.
         11    1    3    3    0    0  0.24617148045E+02 -0.32027831424E+02  0.39410441010E+02  0.56435528031E+02  0.00000000000E+00 0. -1.
          2    1    1    2  501    0  0.14023442036E+02 -0.19356749860E+02 -0.15020925890E+03  0.15209918525E+03  0.00000000000E+00 0. -1.
<scales pt_clust_5="13000.00000" pt_clust_6="13000.00000" pt_clust_7="13000.00000" pt_clust_8="13000.00000" pt_clust_9="23.90273"></scales>
<clustering>
<clus scale="   23.903">  2  9  1 -1</clus>
<clus scale="   80.704">  5  6 -1 -1</clus>
<clus scale="   89.814">  7  8 -1 -1</clus>
<clus scale="  109.045">  2  5  1 -1</clus>
<clus scale="   23.903">  2  5  1 -1</clus>
</clustering>
</event>
<event>
 9    1  0.4067873E-005  0.9198970E+02  0.7546771E-02  0.1307057E+00
         21   -1    0    0  501  502  0.00000000000E+00  0.00000000000E+00  0.14984521565E+03  0.14984521565E+03  0.00000000000E+00 0.  1.
         -4   -1    0    0    0  501 -0.00000000000E+00 -0.00000000000E+00 -0.18433077603E+03  0.18433077603E+03  0.00000000000E+00 0.  1.
         23    2    1    2    0    0 -0.27422104843E+02  0.88777466126E+01 -0.12806368605E+03  0.15903445098E+03  0.89782307240E+02 0.  0.
        -24    2    1    2    0    0 -0.20737829182E+02 -0.22438836796E+02  0.16174572758E+02  0.82975427542E+02  0.75430403789E+02 0.  0.
         11    1    4    4    0    0  0.18629517337E+02 -0.31748947100E+02  0.20762720304E+02  0.42262810041E+02  0.00000000000E+00 0. -1.
        -12    1    4    4    0    0 -0.39367346519E+02  0.93101103035E+01 -0.45881475461E+01  0.40712617500E+02  0.00000000000E+00 0.  1.
        -11    1    3    3    0    0 -0.57169102000E+02  0.20006305341E+02 -0.98568330347E+02  0.11569042408E+03  0.00000000000E+00 0.  1.
         11    1    3    3    0    0  0.29746997157E+02 -0.11128558729E+02 -0.29495355704E+02  0.43344026894E+02  0.00000000000E+00 0. -1.
         -3    1    1    2    0  502  0.48159934025E+02  0.13561090184E+02  0.77403552914E+02  0.92166113165E+02  0.00000000000E+00 0.  1.
<scales pt_clust_5="13000.00000" pt_clust_6="13000.00000" pt_clust_7="13000.00000" pt_clust_8="13000.00000" pt_clust_9="50.03281"></scales>
<clustering>
<clus scale="   50.033">  1  9  2 -1</clus>
<clus scale="   75.430">  5  6 -1 -1</clus>
<clus scale="   78.045">  1  5  2 -1</clus>
<clus scale="   89.782">  7  8 -1 -1</clus>
<clus scale="   50.033">  1  5  2 -1</clus>
</clustering>
</event>
<event>
 9    1  0.4067873E-005  0.1208488E+03  0.7546771E-02  0.1258855E+00
         21   -1    0    0  501  502  0.00000000000E+00  0.00000000000E+00  0.28076151843E+03  0.28076151843E+03  0.00000000000E+00 0. -1.
         -2   -1    0    0    0  501 -0.00000000000E+00 -0.00000000000E+00 -0.59360087565E+02  0.59360087565E+02  0.00000000000E+00 0.  1.
        -24    2    1    2    0    0 -0.28851243701E+02  0.11123918163E+02  0.11833322780E+02  0.88064672897E+02  0.81604064029E+02 0.  0.
         23    2    1    2    0    0  0.96632830440E+01 -0.92072114331E+00  0.17580125821E+03  0.21190119609E+03  0.11790592755E+03 0.  0.
         13    1    3    3    0    0 -0.98721246830E+01  0.39192262176E+02 -0.16736306306E+02  0.43744670635E+02  0.00000000000E+00 0. -1.
        -14    1    3    3    0    0 -0.18979119018E+02 -0.28068344013E+02  0.28569629086E+02  0.44320002262E+02  0.00000000000E+00 0.  1.
        -13    1    4    4    0    0  0.25861474642E+02  0.24559513493E+02  0.22420592467E+01  0.35735310316E+02  0.00000000000E+00 0.  1.
         13    1    4    4    0    0 -0.16198191598E+02 -0.25480234637E+02  0.17355919896E+03  0.17616588578E+03  0.00000000000E+00 0. -1.
         -1    1    1    2    0  502  0.19187960657E+02 -0.10203197020E+02  0.33766849880E+02  0.40155737005E+02  0.00000000000E+00 0.  1.
<scales pt_clust_5="13000.00000" pt_clust_6="13000.00000" pt_clust_7="13000.00000" pt_clust_8="13000.00000" pt_clust_9="21.73207"></scales>
<clustering>
<clus scale="   21.732">  1  9  2 -1</clus>
<clus scale="   81.604">  5  6 -1 -1</clus>
<clus scale="   85.801">  2  5  1 -1</clus>
<clus scale="  117.906">  7  8 -1 -1</clus>
<clus scale="   21.732">  1  5  2 -1</clus>
</clustering>
</event>
<event>
 9    1  0.4067873E-005  0.1424136E+03  0.7546771E-02  0.1228190E+00
         -4   -1    0    0    0  501 -0.00000000000E+00  0.00000000000E+00  0.16289783417E+03  0.16289783417E+03  0.00000000000E+00 0.  1.
         21   -1    0    0  501  502  0.00000000000E+00 -0.00000000000E+00 -0.24880343083E+03  0.24880343083E+03  0.00000000000E+00 0.  1.
        -24    2    1    2    0    0 -0.60305986680E+01  0.51764281078E+02  0.59105178523E+02  0.11392048737E+03  0.82271175989E+02 0.  0.
         23    2    1    2    0    0  0.11153102219E+03 -0.46959996661E+00 -0.67982918835E+02  0.15744270608E+03  0.87904146712E+02 0.  0.
         11    1    3    3    0    0 -0.43171768286E+02  0.17366426600E+02  0.32236008696E+02  0.56608785594E+02  0.00000000000E+00 0. -1.
        -12    1    3    3    0    0  0.37141169618E+02  0.34397854478E+02  0.26869169827E+02  0.57311701776E+02  0.00000000000E+00 0.  1.
        -11    1    4    4    0    0  0.54072864602E+02  0.11402032882E+02  0.13640283266E+02  0.56920456496E+02  0.00000000000E+00 0. -1.
         11    1    4    4    0    0  0.57458157589E+02 -0.11871632849E+02 -0.81623202101E+02  0.10052224958E+03  0.00000000000E+00 0.  1.
         -3    1    1    2    0  502 -0.10550042352E+03 -0.51294681112E+02 -0.77027856348E+02  0.14033807155E+03  0.00000000000E+00 0.  1.
<scales pt_clust_5="13000.00000" pt_clust_6="13000.00000" pt_clust_7="13000.00000" pt_clust_8="13000.00000" pt_clust_9="112.04688"></scales>
<clustering>
<clus scale="   82.271">  5  6 -1 -1</clus>
<clus scale="   87.904">  7  8 -1 -1</clus>
<clus scale="   97.388">  1  5  2 -1</clus>
<clus scale="  112.047">  2  9  1 -1</clus>
<clus scale="  112.047">  2  5  1 -1</clus>
</clustering>
</event>
<event>
 9    1  0.4067873E-005  0.9755104E+02  0.7546771E-02  0.1291907E+00
          1   -1    0    0  502    0 -0.00000000000E+00  0.00000000000E+00  0.13527398546E+03  0.13527398546E+03  0.00000000000E+00 0. -1.
         21   -1    0    0  501  502  0.00000000000E+00 -0.00000000000E+00 -0.11929942140E+03  0.11929942140E+03  0.00000000000E+00 0. -1.
         23    2    1    2    0    0 -0.42641881003E+02 -0.11741470075E+02 -0.61858296706E+01  0.10308039444E+03  0.92903773306E+02 0.  0.
        -24    2    1    2    0    0  0.93242616467E+01  0.14455333964E+02 -0.31020625087E+02  0.88678606596E+02  0.81275565527E+02 0.  0.
         11    1    4    4    0    0  0.30139733418E+02  0.32361564762E+02 -0.40163075300E+02  0.59738990801E+02  0.00000000000E+00 0. -1.
        -12    1    4    4    0    0 -0.20815471772E+02 -0.17906230799E+02  0.91424502126E+01  0.28939615795E+02  0.00000000000E+00 0.  1.
        -11    1    3    3    0    0  0.18410129348E+02 -0.25169459818E+02  0.18055008922E+02  0.36033566536E+02  0.00000000000E+00 0.  1.
         11    1    3    3    0    0 -0.61052010351E+02  0.13427989744E+02 -0.24240838593E+02  0.67046827905E+02  0.00000000000E+00 0. -1.
          2    1    1    2  501    0  0.33317619356E+02 -0.27138638891E+01  0.53181018818E+02  0.62814405826E+02  0.00000000000E+00 0. -1.
<scales pt_clust_5="13000.00000" pt_clust_6="13000.00000" pt_clust_7="13000.00000" pt_clust_8="13000.00000" pt_clust_9="33.42798"></scales>
<clustering>
<clus scale="   33.428">  2  9  1 -1</clus>
<clus scale="   81.276">  5  6 -1 -1</clus>
<clus scale="   86.549">  2  5  1 -1</clus>
<clus scale="   92.904">  7  8 -1 -1</clus>
<clus scale="   33.428">  2  5  1 -1</clus>
</clustering>
</event>
<event>
 9    1  0.4067873E-005  0.8598961E+02  0.7546771E-02  0.1313350E+00
         21   -1    0    0  501  502  0.00000000000E+00  0.00000000000E+00  0.50567811423E+02  0.50567811423E+02  0.00000000000E+00 0.  1.
          1   -1    0    0  502    0 -0.00000000000E+00 -0.00000000000E+00 -0.36826473961E+03  0.36826473961E+03  0.00000000000E+00 0. -1.
        -24    2    1    2    0    0 -0.12338043181E+02  0.13733110929E+02 -0.21563641770E+03  0.23105251668E+03  0.80903493022E+02 0.  0.
         23    2    1    2    0    0  0.30432468736E+01 -0.65669795365E+02 -0.67517549870E+02  0.12471634783E+03  0.81693111715E+02 0.  0.
         11    1    3    3    0    0 -0.46777546665E+02  0.29075695756E+01 -0.12394323772E+03  0.13250856202E+03  0.00000000000E+00 0. -1.
        -12    1    3    3    0    0  0.34439503484E+02  0.10825541353E+02 -0.91693179982E+02  0.98543954665E+02  0.00000000000E+00 0.  1.
        -13    1    4    4    0    0 -0.31146133232E+02 -0.55941904162E+02 -0.61278912466E+02  0.88626651576E+02  0.00000000000E+00 0. -1.
         13    1    4    4    0    0  0.34189380106E+02 -0.97278912028E+01 -0.62386374036E+01  0.36089696257E+02  0.00000000000E+00 0.  1.
          2    1    1    2  501    0  0.92947963071E+01  0.51936684436E+02 -0.34542960620E+02  0.63063686516E+02  0.00000000000E+00 0. -1.
<scales pt_clust_5="13000.00000" pt_clust_6="13000.00000" pt_clust_7="13000.00000" pt_clust_8="13000.00000" pt_clust_9="52.76185"></scales>
<clustering>
<clus scale="   52.762">  1  9  2 -1</clus>
<clus scale="   80.903">  5  6 -1 -1</clus>
<clus scale="   81.693">  7  8 -1 -1</clus>
<clus scale="   85.240">  2  5  1 -1</clus>
<clus scale="   52.762">  1  5  2 -1</clus>
</clustering>
</event>
<event>
 9    1  0.4067873E-005  0.1127748E+03  0.7546771E-02  0.1259064E+00
         -4   -1    0    0    0  501 -0.00000000000E+00  0.00000000000E+00  0.16659047534E+04  0.16659047534E+04  0.00000000000E+00 0.  1.
         21   -1    0    0  501  502  0.00000000000E+00 -0.00000000000E+00 -0.52616802743E+02  0.52616802743E+02  0.00000000000E+00 0.  1.
        -24    2    1    2    0    0  0.41884656539E+02  0.53533237582E+02  0.14764479324E+04  0.14802443974E+04  0.81270208930E+02 0.  0.
         23    2    1    2    0    0 -0.74331188153E+02  0.75375169634E+01  0.51560358459E+02  0.12848173605E+03  0.90923848580E+02 0.  0.
         11    1    3    3    0    0  0.63812553536E+01  0.29656904684E+02  0.14647024847E+03  0.14957869535E+03  0.00000000000E+00 0. -1.
        -12    1    3    3    0    0  0.35503401186E+02  0.23876332898E+02  0.13299776839E+04  0.13306657020E+04  0.00000000000E+00 0.  1.
        -11    1    4    4    0    0 -0.90337156384E+02  0.25252198070E+02  0.41671424806E+02  0.10264006516E+03  0.00000000000E+00 0.  1.
         11    1    4    4    0    0  0.16005968231E+02 -0.17714681106E+02  0.98889336528E+01  0.25841670892E+02  0.00000000000E+00 0. -1.
         -3    1    1    2    0  502  0.32446531613E+02 -0.61070754545E+02  0.85279659764E+02  0.10979542269E+03  0.00000000000E+00 0.  1.
<scales pt_clust_5="13000.00000" pt_clust_6="13000.00000" pt_clust_7="13000.00000" pt_clust_8="13000.00000" pt_clust_9="69.15500"></scales>
<clustering>
<clus scale="   69.155">  2  9  1 -1</clus>
<clus scale="   81.270">  5  6 -1 -1</clus>
<clus scale="   90.924">  7  8 -1 -1</clus>
<clus scale="  105.147">  1  5  2 -1</clus>
<clus scale="   69.155">  2  5  1 -1</clus>
</clustering>
</event>
<event>
 9    1  0.4067873E-005  0.9535633E+02  0.7546771E-02  0.1291027E+00
         21   -1    0    0  501  502  0.00000000000E+00  0.00000000000E+00  0.66675574163E+02  0.66675574163E+02  0.00000000000E+00 0. -1.
          1   -1    0    0  502    0 -0.00000000000E+00 -0.00000000000E+00 -0.50574762661E+03  0.50574762661E+03  0.00000000000E+00 0. -1.
         23    2    1    2    0    0  0.20258957682E+02  0.43706197648E+02 -0.28457280858E+03  0.30306050043E+03  0.92430116605E+02 0.  0.
        -24    2    1    2    0    0 -0.19082936115E+02  0.52225841455E+02 -0.14310686557E+03  0.17274942260E+03  0.79190220789E+02 0.  0.
         13    1    4    4    0    0 -0.44570924958E+02  0.18610063217E+02 -0.10631970956E+03  0.11677663484E+03  0.00000000000E+00 0. -1.
        -14    1    4    4    0    0  0.25487988843E+02  0.33615778238E+02 -0.36787156014E+02  0.55972787758E+02  0.00000000000E+00 0.  1.
        -13    1    3    3    0    0  0.32440137664E+01 -0.29175773196E+02 -0.76776523872E+02  0.82197226137E+02  0.00000000000E+00 0.  1.
         13    1    3    3    0    0  0.17014943915E+02  0.72881970844E+02 -0.20779628471E+03  0.22086327429E+03  0.00000000000E+00 0. -1.
          2    1    1    2  501    0 -0.11760215672E+01 -0.95932039103E+02 -0.11392378290E+02  0.96613277744E+02  0.00000000000E+00 0. -1.
<scales pt_clust_5="13000.00000" pt_clust_6="13000.00000" pt_clust_7="13000.00000" pt_clust_8="13000.00000" pt_clust_9="95.93925"></scales>
<clustering>
<clus scale="   79.190">  5  6 -1 -1</clus>
<clus scale="   92.430">  7  8 -1 -1</clus>
<clus scale="   95.939">  1  9  2 -1</clus>
<clus scale="   95.939">  1  5  2 -1</clus>
<clus scale="   95.356">  1  5  2 -1</clus>
</clustering>
</event>
<event>
 9    1  0.4067873E-005  0.1089067E+03  0.7546771E-02  0.1265676E+00
         21   -1    0    0  501  502  0.00000000000E+00  0.00000000000E+00  0.27733999711E+02  0.27733999711E+02  0.00000000000E+00 0.  1.
          1   -1    0    0  502    0 -0.00000000000E+00 -0.00000000000E+00 -0.73038029377E+03  0.73038029377E+03  0.00000000000E+00 0. -1.
         23    2    1    2    0    0  0.41736996061E+02  0.23875957573E+02 -0.24511042168E+03  0.26624319699E+03  0.92164434233E+02 0.  0.
        -24    2    1    2    0    0 -0.75064404895E+02 -0.10298220970E+02 -0.18574868240E+03  0.21771174913E+03  0.84587909637E+02 0.  0.
         13    1    4    4    0    0  0.15948873562E+02 -0.14350173577E+02 -0.25019006552E+02  0.32958227174E+02  0.00000000000E+00 0. -1.
        -14    1    4    4    0    0 -0.91013278457E+02  0.40519526069E+01 -0.16072967585E+03  0.18475352195E+03  0.00000000000E+00 0.  1.
        -13    1    3    3    0    0  0.62235659646E+02 -0.42505142783E+01 -0.10739042581E+03  0.12419358985E+03  0.00000000000E+00 0. -1.
         13    1    3    3    0    0 -0.20498663585E+02  0.28126471851E+02 -0.13771999586E+03  0.14204960714E+03  0.00000000000E+00 0.  1.
          2    1    1    2  501    0  0.33327408834E+02 -0.13577736603E+02 -0.27178718998E+03  0.27415934736E+03  0.00000000000E+00 0. -1.
<scales pt_clust_5="13000.00000" pt_clust_6="13000.00000" pt_clust_7="13000.00000" pt_clust_8="13000.00000" pt_clust_9="35.98711"></scales>
<clustering>
<clus scale="   35.987">  1  9  2 -1</clus>
<clus scale="   84.588">  5  6 -1 -1</clus>
<clus scale="   92.164">  7  8 -1 -1</clus>
<clus scale="  102.574">  1  5  2 -1</clus>
<clus scale="   35.987">  1  5  2 -1</clus>
</clustering>
</event>
<event>
 9    1  0.4067873E-005  0.1061135E+03  0.7546771E-02  0.1273145E+00
         21   -1    0    0  501  502  0.00000000000E+00  0.00000000000E+00  0.22066800981E+02  0.22066800981E+02  0.00000000000E+00 0.  1.
          1   -1    0    0  502    0 -0.00000000000E+00 -0.00000000000E+00 -0.10055836721E+04  0.10055836721E+04  0.00000000000E+00 0. -1.
         23    2    1    2    0    0  0.42540782969E+02 -0.92239755187E+01 -0.50922966621E+03  0.51935190171E+03  0.92286212013E+02 0.  0.
        -24    2    1    2    0    0 -0.69168020098E+02 -0.49981688122E+02 -0.32515495425E+03  0.34564941351E+03  0.80407640407E+02 0.  0.
         11    1    4    4    0    0 -0.56933957537E+02  0.82453718644E+01 -0.17053974202E+03  0.17998129149E+03  0.00000000000E+00 0. -1.
        -12    1    4    4    0    0 -0.12234062561E+02 -0.58227059986E+02 -0.15461521223E+03  0.16566812202E+03  0.00000000000E+00 0.  1.
        -11    1    3    3    0    0  0.71523076594E+02 -0.13218547103E+02 -0.35597450245E+03  0.36332922655E+03  0.00000000000E+00 0. -1.
         11    1    3    3    0    0 -0.28982293626E+02  0.39945715843E+01 -0.15325516376E+03  0.15602267516E+03  0.00000000000E+00 0.  1.
          2    1    1    2  501    0  0.26627237129E+02  0.59205663640E+02 -0.14913225069E+03  0.16264915788E+03  0.00000000000E+00 0. -1.
<scales pt_clust_5="13000.00000" pt_clust_6="13000.00000" pt_clust_7="13000.00000" pt_clust_8="13000.00000" pt_clust_9="64.91780"></scales>
<clustering>
<clus scale="   64.918">  1  9  2 -1</clus>
<clus scale="   80.408">  5  6 -1 -1</clus>
<clus scale="   92.286">  7  8 -1 -1</clus>
<clus scale="   95.962">  1  5  2 -1</clus>
<clus scale="   64.918">  1  5  2 -1</clus>
</clustering>
</event>
<event>
 9    1  0.4067873E-005  0.1477947E+03  0.7546771E-02  0.1205557E+00
         -4   -1    0    0    0  501 -0.00000000000E+00  0.00000000000E+00  0.20008012426E+03  0.20008012426E+03  0.00000000000E+00 0.  1.
         21   -1    0    0  501  502  0.00000000000E+00 -0.00000000000E+00 -0.19516556846E+03  0.19516556846E+03  0.00000000000E+00 0. -1.
        -24    2    1    2    0    0 -0.97709097709E+02  0.39971601040E+02  0.83542478667E+02  0.15704964114E+03  0.80873032433E+02 0.  0.
         23    2    1    2    0    0  0.11884827851E+03 -0.78639346309E+02 -0.30366174167E+02  0.17284120573E+03  0.92967294107E+02 0.  0.
         13    1    3    3    0    0 -0.59389375260E+02 -0.19263885450E+02  0.38956645643E+02  0.73592223884E+02  0.00000000000E+00 0. -1.
        -14    1    3    3    0    0 -0.38319722449E+02  0.59235486490E+02  0.44585833023E+02  0.83457417254E+02  0.00000000000E+00 0.  1.
        -11    1    4    4    0    0  0.21245252310E+02 -0.16526361973E+02  0.31673538303E+02  0.41565543596E+02  0.00000000000E+00 0.  1.
         11    1    4    4    0    0  0.97603026197E+02 -0.62112984336E+02 -0.62039712470E+02  0.13127566214E+03  0.00000000000E+00 0. -1.
         -3    1    1    2    0  502 -0.21139180797E+02  0.38667745269E+02 -0.48261748694E+02  0.65354845849E+02  0.00000000000E+00 0.  1.
<scales pt_clust_5="13000.00000" pt_clust_6="13000.00000" pt_clust_7="13000.00000" pt_clust_8="13000.00000" pt_clust_9="44.06880"></scales>
<clustering>
<clus scale="   44.069">  2  9  1 -1</clus>
<clus scale="   80.873">  5  6 -1 -1</clus>
<clus scale="   92.967">  7  8 -1 -1</clus>
<clus scale="  140.502">  1  5  2 -1</clus>
<clus scale="   44.069">  2  5  1 -1</clus>
</clustering>
</event>
<event>
 9    1  0.4067873E-005  0.1767074E+03  0.7546771E-02  0.1172188E+00
          1   -1    0    0  502    0 -0.00000000000E+00  0.00000000000E+00  0.16227454922E+03  0.16227454922E+03  0.00000000000E+00 0. -1.
         21   -1    0    0  501  502  0.00000000000E+00 -0.00000000000E+00 -0.30485314889E+03  0.30485314889E+03  0.00000000000E+00 0. -1.
        -24    2    1    2    0    0 -0.16720313343E+03 -0.36794476133E+02  0.37289539856E+02  0.19299253647E+03  0.80900482386E+02 0.  0.
         23    2    1    2    0    0  0.11399354315E+03  0.65701063255E+01 -0.12253979119E+03  0.19028223951E+03  0.90297486504E+02 0.  0.
         13    1    3    3    0    0 -0.15720900931E+03 -0.33188754138E+02  0.57095280078E+02  0.17051696988E+03  0.00000000000E+00 0. -1.
        -14    1    3    3    0    0 -0.99941241146E+01 -0.36057219953E+01 -0.19805740222E+02  0.22475566593E+02  0.00000000000E+00 0.  1.
        -13    1    4    4    0    0  0.44072593848E+02 -0.41604915346E+02 -0.53594710487E+02  0.80905843433E+02  0.00000000000E+00 0. -1.
         13    1    4    4    0    0  0.69920949306E+02  0.48175021672E+02 -0.68945080706E+02  0.10937639608E+03  0.00000000000E+00 0.  1.
          2    1    1    2  501    0  0.53209590272E+02  0.30224369807E+02 -0.57328348328E+02  0.83852922127E+02  0.00000000000E+00 0. -1.
<scales pt_clust_5="13000.00000" pt_clust_6="13000.00000" pt_clust_7="13000.00000" pt_clust_8="13000.00000" pt_clust_9="61.19455"></scales>
<clustering>
<clus scale="   61.195">  2  9  1 -1</clus>
<clus scale="   80.900">  5  6 -1 -1</clus>
<clus scale="   90.297">  7  8 -1 -1</clus>
<clus scale="  172.095">  1  5  2 -1</clus>
<clus scale="   61.195">  2  5  1 -1</clus>
</clustering>
</event>
<event>
 9    1  0.4067873E-005  0.1065479E+03  0.7546771E-02  0.1272090E+00
         21   -1    0    0  501  502  0.00000000000E+00  0.00000000000E+00  0.71954429996E+02  0.71954429996E+02  0.00000000000E+00 0.  1.
         -2   -1    0    0    0  501 -0.00000000000E+00 -0.00000000000E+00 -0.48606515834E+03  0.48606515834E+03  0.00000000000E+00 0.  1.
        -24    2    1    2    0    0 -0.48236843072E+02 -0.17393214014E+02 -0.29749651553E+03  0.31223900926E+03  0.79747760000E+02 0.  0.
         23    2    1    2    0    0  0.72193702871E+02  0.46098259878E+02 -0.20593238695E+01  0.12527857341E+03  0.91397482695E+02 0.  0.
         13    1    3    3    0    0 -0.50118630888E+02 -0.40594456593E+02 -0.26176958378E+03  0.26959803794E+03  0.00000000000E+00 0. -1.
        -14    1    3    3    0    0  0.18817878162E+01  0.23201242579E+02 -0.35726931754E+02  0.42640971321E+02  0.00000000000E+00 0.  1.
        -11    1    4    4    0    0  0.32575565452E+02  0.70905787188E+02  0.40563452028E+01  0.78136112379E+02  0.00000000000E+00 0.  1.
         11    1    4    4    0    0  0.39618137420E+02 -0.24807527311E+02 -0.61156690723E+01  0.47142461031E+02  0.00000000000E+00 0. -1.
         -1    1    1    2    0  502 -0.23956859799E+02 -0.28705045864E+02 -0.11455488894E+03  0.12050200567E+03  0.00000000000E+00 0.  1.
<scales pt_clust_5="13000.00000" pt_clust_6="13000.00000" pt_clust_7="13000.00000" pt_clust_8="13000.00000" pt_clust_9="37.38866"></scales>
<clustering>
<clus scale="   37.389">  1  9  2 -1</clus>
<clus scale="   79.748">  5  6 -1 -1</clus>
<clus scale="   91.397">  7  8 -1 -1</clus>
<clus scale="   96.740">  2  5  1 -1</clus>
<clus scale="   37.389">  1  5  2 -1</clus>
</clustering>
</event>
<event>
 9    1  0.4067873E-005  0.1259808E+03  0.7546771E-02  0.1234483E+00
         21   -1    0    0  501  502  0.00000000000E+00  0.00000000000E+00  0.27028166844E+03  0.27028166844E+03  0.00000000000E+00 0.  1.
         -4   -1    0    0    0  501 -0.00000000000E+00 -0.00000000000E+00 -0.13937179254E+03  0.13937179254E+03  0.00000000000E+00 0.  1.
         23    2    1    2    0    0  0.19163527724E+02  0.10305139990E+03 -0.72691160598E+02  0.15010016199E+03  0.79115244944E+02 0.  0.
        -24    2    1    2    0    0 -0.71816699906E+01 -0.65691302985E+02  0.88835674756E+02  0.13826673745E+03  0.82819018970E+02 0.  0.
         13    1    4    4    0    0 -0.38430692822E+02 -0.64007060889E+02  0.62594610277E+02  0.97426419570E+02  0.00000000000E+00 0. -1.
        -14    1    4    4    0    0  0.31249022831E+02 -0.16842420960E+01  0.26241064478E+02  0.40840317877E+02  0.00000000000E+00 0.  1.
        -13    1    3    3    0    0  0.47424246626E+02  0.41456449038E+02 -0.28073994068E+02  0.68962638275E+02  0.00000000000E+00 0. -1.
         13    1    3    3    0    0 -0.28260718902E+02  0.61594950865E+02 -0.44617166530E+02  0.81137523712E+02  0.00000000000E+00 0.  1.
         -3    1    1    2    0  502 -0.11981857734E+02 -0.37360096918E+02  0.11476536175E+03  0.12128656155E+03  0.00000000000E+00 0.  1.
<scales pt_clust_5="13000.00000" pt_clust_6="13000.00000" pt_clust_7="13000.00000" pt_clust_8="13000.00000" pt_clust_9="39.23445"></scales>
<clustering>
<clus scale="   39.234">  1  9  2 -1</clus>
<clus scale="   79.115">  7  8 -1 -1</clus>
<clus scale="   82.819">  5  6 -1 -1</clus>
<clus scale="  123.577">  2  7  1 -1</clus>
<clus scale="   39.234">  1  5  2 -1</clus>
</clustering>
</event>
<event>
 9    1  0.4067873E-005  0.9310426E+02  0.7546771E-02  0.1302268E+00
         21   -1    0    0  501  502  0.00000000000E+00  0.00000000000E+00  0.28427672078E+02  0.28427672078E+02  0.00000000000E+00 0.  1.
         -2   -1    0    0    0  501 -0.00000000000E+00 -0.00000000000E+00 -0.37595948634E+03  0.37595948634E+03  0.00000000000E+00 0.  1.
         23    2    1    2    0    0  0.93605380874E+01 -0.12055440982E+02 -0.20261623497E+03  0.22328820948E+03  0.92581491078E+02 0.  0.
        -24    2    1    2    0    0 -0.10174855283E+02 -0.10954572752E+02 -0.12803211895E+03  0.15254767790E+03  0.81578429781E+02 0.  0.
         13    1    4    4    0    0  0.15063653777E+02  0.22110327290E+02 -0.97079277335E+02  0.10069839287E+03  0.00000000000E+00 0. -1.
        -14    1    4    4    0    0 -0.25238509061E+02 -0.33064900042E+02 -0.30952841617E+02  0.51849285034E+02  0.00000000000E+00 0.  1.
        -13    1    3    3    0    0 -0.37163520496E+02 -0.21957905648E+02 -0.12513945697E+03  0.13237507532E+03  0.00000000000E+00 0. -1.
         13    1    3    3    0    0  0.46524058583E+02  0.99024646657E+01 -0.77476778001E+02  0.90913134161E+02  0.00000000000E+00 0.  1.
         -1    1    1    2    0  502  0.81431719607E+00  0.23010013734E+02 -0.16883460340E+02  0.28551271033E+02  0.00000000000E+00 0.  1.
<scales pt_clust_5="13000.00000" pt_clust_6="13000.00000" pt_clust_7="13000.00000" pt_clust_8="13000.00000" pt_clust_9="23.02442"></scales>
<clustering>
<clus scale="   23.024">  1  9  2 -1</clus>
<clus scale="   81.578">  5  6 -1 -1</clus>
<clus scale="   82.171">  1  5  2 -1</clus>
<clus scale="   92.581">  7  8 -1 -1</clus>
<clus scale="   23.024">  1  5  2 -1</clus>
</clustering>
</event>
<event>
 9    1  0.4067873E-005  0.2136418E+03  0.7546771E-02  0.1138714E+00
         21   -1    0    0  501  502  0.00000000000E+00  0.00000000000E+00  0.49861032318E+03  0.49861032318E+03  0.00000000000E+00 0. -1.
          1   -1    0    0  502    0 -0.00000000000E+00 -0.00000000000E+00 -0.24069095656E+03  0.24069095656E+03  0.00000000000E+00 0. -1.
        -24    2    1    2    0    0  0.37389681869E+02  0.42439135774E+02 -0.13205474331E+03  0.16522444665E+03  0.81618588486E+02 0.  0.
         23    2    1    2    0    0  0.17066522055E+02  0.48033252226E+02 -0.53780006331E+02  0.11793162942E+03  0.91744867115E+02 0.  0.
         13    1    3    3    0    0  0.32417750187E+02  0.12984096921E+02 -0.13074035709E+03  0.13532382744E+03  0.00000000000E+00 0. -1.
        -14    1    3    3    0    0  0.49719316817E+01  0.29455038854E+02 -0.13143862192E+01  0.29900619218E+02  0.00000000000E+00 0.  1.
        -11    1    4    4    0    0  0.23241653553E+02 -0.18199221286E+02  0.40410104890E+01  0.29794561266E+02  0.00000000000E+00 0.  1.
         11    1    4    4    0    0 -0.61751314981E+01  0.66232473512E+02 -0.57821016820E+02  0.88137068153E+02  0.00000000000E+00 0. -1.
          2    1    1    2  501    0 -0.54456203924E+02 -0.90472388000E+02  0.44375411626E+03  0.45614520367E+03  0.00000000000E+00 0. -1.
<scales pt_clust_5="13000.00000" pt_clust_6="13000.00000" pt_clust_7="13000.00000" pt_clust_8="13000.00000" pt_clust_9="105.59702"></scales>
<clustering>
<clus scale="   81.619">  5  6 -1 -1</clus>
<clus scale="   91.745">  7  8 -1 -1</clus>
<clus scale="   97.946">  5  7 -1 -1</clus>
<clus scale="  105.597">  1  9  2 -1</clus>
<clus scale="  105.597">  1  5  2 -1</clus>
</clustering>
</event>
<event>
 9    1  0.4067873E-005  0.9881550E+02  0.7546771E-02  0.1290340E+00
         21   -1    0    0  501  502  0.00000000000E+00  0.00000000000E+00  0.21135507195E+03  0.21135507195E+03  0.00000000000E+00 0.  1.
          1   -1    0    0  502    0 -0.00000000000E+00 -0.00000000000E+00 -0.32828709199E+03  0.32828709199E+03  0.00000000000E+00 0. -1.
         23    2    1    2    0    0  0.57730632078E+02 -0.90901151082E+01 -0.29493610805E+03  0.30706487141E+03  0.62338361767E+02 0.  0.
        -24    2    1    2    0    0 -0.69524750588E+02 -0.13916669960E+02  0.85456692063E+02  0.13648653394E+03  0.79362227048E+02 0.  0.
         11    1    4    4    0    0 -0.20792915539E+02  0.30114509458E+02  0.13355300961E+02  0.38956297056E+02  0.00000000000E+00 0. -1.
        -12    1    4    4    0    0 -0.48731835049E+02 -0.44031179418E+02  0.72101391103E+02  0.97530236887E+02  0.00000000000E+00 0.  1.
        -13    1    3    3    0    0  0.30249269096E+02 -0.34252599357E+02 -0.12498525171E+03  0.13307731583E+03  0.00000000000E+00 0. -1.
         13    1    3    3    0    0  0.27481362982E+02  0.25162484249E+02 -0.16995085634E+03  0.17398755557E+03  0.00000000000E+00 0.  1.
          2    1    1    2  501    0  0.11794118510E+02  0.23006785068E+02  0.92547395942E+02  0.96090758589E+02  0.00000000000E+00 0. -1.
<scales pt_clust_5="13000.00000" pt_clust_6="13000.00000" pt_clust_7="13000.00000" pt_clust_8="13000.00000" pt_clust_9="25.85369"></scales>
<clustering>
<clus scale="   25.854">  1  9  2 -1</clus>
<clus scale="   62.338">  7  8 -1 -1</clus>
<clus scale="   79.362">  5  6 -1 -1</clus>
<clus scale="   85.745">  2  7  1 -1</clus>
<clus scale="   25.854">  1  5  2 -1</clus>
</clustering>
</event>
<event>
 9    1  0.4067873E-005  0.1132634E+03  0.7546771E-02  0.1256695E+00
         21   -1    0    0  501  502  0.00000000000E+00  0.00000000000E+00  0.38567690446E+02  0.38567690446E+02  0.00000000000E+00 0. -1.
          1   -1    0    0  502    0 -0.00000000000E+00 -0.00000000000E+00 -0.43082788849E+03  0.43082788849E+03  0.00000000000E+00 0. -1.
        -24    2    1    2    0    0  0.52516704493E+02 -0.43126595331E+02 -0.24354533890E+03  0.26969998690E+03  0.93839455221E+02 0.  0.
         23    2    1    2    0    0 -0.55366243668E+02  0.18331886252E+02 -0.10349818919E+03  0.14804828123E+03  0.88345568191E+02 0.  0.
         11    1    3    3    0    0  0.40677086815E+02 -0.64031181028E+02 -0.10762599333E+03  0.13167373305E+03  0.00000000000E+00 0. -1.
        -12    1    3    3    0    0  0.11839617678E+02  0.20904585697E+02 -0.13591934557E+03  0.13802625385E+03  0.00000000000E+00 0.  1.
        -13    1    4    4    0    0  0.20727030667E+02 -0.11324253048E+02 -0.29960564902E+02  0.38150805452E+02  0.00000000000E+00 0.  1.
         13    1    4    4    0    0 -0.76093274335E+02  0.29656139300E+02 -0.73537624289E+02  0.10989747578E+03  0.00000000000E+00 0. -1.
          2    1    1    2  501    0  0.28495391752E+01  0.24794709078E+02 -0.45216669955E+02  0.51647310807E+02  0.00000000000E+00 0. -1.
<scales pt_clust_5="13000.00000" pt_clust_6="13000.00000" pt_clust_7="13000.00000" pt_clust_8="13000.00000" pt_clust_9="24.95793"></scales>
<clustering>
<clus scale="   24.958">  1  9  2 -1</clus>
<clus scale="   88.346">  7  8 -1 -1</clus>
<clus scale="   93.839">  5  6 -1 -1</clus>
<clus scale="  108.755">  1  7  2 -1</clus>
<clus scale="   24.958">  1  5  2 -1</clus>
</clustering>
</event>
<event>
 9    1  0.4067873E-005  0.2279175E+03  0.7546771E-02  0.1128822E+00
         21   -1    0    0  501  502  0.00000000000E+00  0.00000000000E+00  0.80753304459E+02  0.80753304459E+02  0.00000000000E+00 0. -1.
          1   -1    0    0  502    0 -0.00000000000E+00 -0.00000000000E+00 -0.83246416704E+03  0.83246416704E+03  0.00000000000E+00 0. -1.
         23    2    1    2    0    0 -0.20772558152E+03  0.10864227769E+03 -0.44955871536E+03  0.51504980354E+03  0.90665317799E+02 0.  0.
        -24    2    1    2    0    0  0.16392757193E+03 -0.69715267255E+02 -0.19498503505E+03  0.27602689788E+03  0.80244732727E+02 0.  0.
         11    1    4    4    0    0  0.15902888809E+03 -0.48164451894E+02 -0.19168846786E+03  0.25368182904E+03  0.00000000000E+00 0. -1.
        -12    1    4    4    0    0  0.48986838364E+01 -0.21550815361E+02 -0.32965671899E+01  0.22345068836E+02  0.00000000000E+00 0.  1.
        -11    1    3    3    0    0 -0.59105385552E+02  0.68403758917E+02 -0.22777247424E+03  0.24505677068E+03  0.00000000000E+00 0.  1.
         11    1    3    3    0    0 -0.14862019597E+03  0.40238518771E+02 -0.22178624112E+03  0.26999303286E+03  0.00000000000E+00 0. -1.
          2    1    1    2  501    0  0.43798009588E+02 -0.38927010433E+02 -0.10716711218E+03  0.12214077009E+03  0.00000000000E+00 0. -1.
<scales pt_clust_5="13000.00000" pt_clust_6="13000.00000" pt_clust_7="13000.00000" pt_clust_8="13000.00000" pt_clust_9="58.59677"></scales>
<clustering>
<clus scale="   58.597">  1  9  2 -1</clus>
<clus scale="   80.245">  5  6 -1 -1</clus>
<clus scale="   90.665">  7  8 -1 -1</clus>
<clus scale="  223.976">  1  5  2 -1</clus>
<clus scale="   58.597">  1  5  2 -1</clus>
</clustering>
</event>
<event>
 9    1  0.4067873E-005  0.9528226E+02  0.7546771E-02  0.1294341E+00
          1   -1    0    0  502    0 -0.00000000000E+00  0.00000000000E+00  0.24177644252E+03  0.24177644252E+03  0.00000000000E+00 0. -1.
         21   -1    0    0  501  502  0.00000000000E+00 -0.00000000000E+00 -0.55081868353E+02  0.55081868353E+02  0.00000000000E+00 0.  1.
        -24    2    1    2    0    0  0.23062600724E+02  0.13024158937E+02  0.75344987163E+02  0.11433082297E+03  0.81811721175E+02 0.  0.
         23    2    1    2    0    0 -0.89684350520E+01 -0.49749264041E+02  0.96219659649E+02  0.14038139019E+03  0.88844187821E+02 0.  0.
         11    1    3    3    0    0 -0.59505284876E+01  0.25858880513E+02  0.78101571837E+02  0.82486035267E+02  0.00000000000E+00 0. -1.
        -12    1    3    3    0    0  0.29013129211E+02 -0.12834721576E+02 -0.27565846740E+01  0.31844787700E+02  0.00000000000E+00 0.  1.
        -13    1    4    4    0    0  0.26486342149E+02 -0.57423100378E+02  0.75938916334E+02  0.98821342793E+02  0.00000000000E+00 0.  1.
         13    1    4    4    0    0 -0.35454777201E+02  0.76738363370E+01  0.20280743315E+02  0.41560047400E+02  0.00000000000E+00 0. -1.
          2    1    1    2  501    0 -0.14094165672E+02  0.36725105104E+02  0.15129927359E+02  0.42146097717E+02  0.00000000000E+00 0. -1.
<scales pt_clust_5="13000.00000" pt_clust_6="13000.00000" pt_clust_7="13000.00000" pt_clust_8="13000.00000" pt_clust_9="39.33674"></scales>
<clustering>
<clus scale="   39.337">  2  9  1 -1</clus>
<clus scale="   81.812">  5  6 -1 -1</clus>
<clus scale="   88.761">  1  5  2 -1</clus>
<clus scale="   88.844">  7  8 -1 -1</clus>
<clus scale="   39.337">  2  5  1 -1</clus>
</clustering>
</event>
<event>
 9    1  0.4067873E-005  0.1206732E+03  0.7546771E-02  0.1251813E+00
         21   -1    0    0  501  502  0.00000000000E+00  0.00000000000E+00  0.83924611875E+02  0.83924611875E+02  0.00000000000E+00 0.  1.
         -2   -1    0    0    0  501 -0.00000000000E+00 -0.00000000000E+00 -0.30218211224E+03  0.30218211224E+03  0.00000000000E+00 0.  1.
         23    2    1    2    0    0 -0.24073504750E+02  0.22267436473E+02 -0.36777511252E+02  0.10567847190E+03  0.93487869432E+02 0.  0.
        -24    2    1    2    0    0 -0.73111179981E+02  0.49977133069E+01 -0.12086964259E+03  0.16269182860E+03  0.80553949739E+02 0.  0.
         13    1    4    4    0    0  0.94701804231E+01 -0.19411851574E+02 -0.15369853991E+02  0.26509181626E+02  0.00000000000E+00 0. -1.
        -14    1    4    4    0    0 -0.82581360404E+02  0.24409564881E+02 -0.10549978859E+03  0.13618264698E+03  0.00000000000E+00 0.  1.
        -11    1    3    3    0    0 -0.14838203505E+02 -0.19432996776E+02 -0.54270652450E+02  0.59524090621E+02  0.00000000000E+00 0.  1.
         11    1    3    3    0    0 -0.92353012457E+01  0.41700433249E+02  0.17493141197E+02  0.46154381278E+02  0.00000000000E+00 0. -1.
         -1    1    1    2    0  502  0.97184684731E+02 -0.27265149780E+02 -0.60610346522E+02  0.11773642361E+03  0.00000000000E+00 0.  1.
<scales pt_clust_5="13000.00000" pt_clust_6="13000.00000" pt_clust_7="13000.00000" pt_clust_8="13000.00000" pt_clust_9="89.85029"></scales>
<clustering>
<clus scale="   80.554">  5  6 -1 -1</clus>
<clus scale="   93.488">  7  8 -1 -1</clus>
<clus scale="   99.073">  2  7  1 -1</clus>
<clus scale="   89.850">  1  9  2 -1</clus>
<clus scale="   89.850">  1  5  2 -1</clus>
</clustering>
</event>
<event>
 9    1  0.4067873E-005  0.1172202E+03  0.7546771E-02  0.1251550E+00
          3   -1    0    0  502    0 -0.00000000000E+00  0.00000000000E+00  0.44235521071E+03  0.44235521071E+03  0.00000000000E+00 0. -1.
         21   -1    0    0  501  502  0.00000000000E+00 -0.00000000000E+00 -0.88817358750E+02  0.88817358750E+02  0.00000000000E+00 0. -1.
        -24    2    1    2    0    0  0.21207343185E+02 -0.74910020820E+02  0.35829523369E+03  0.37511545792E+03  0.79214074894E+02 0.  0.
         23    2    1    2    0    0 -0.20956114283E+02  0.54254360012E+02  0.33348290042E+02  0.11271242720E+03  0.90605123978E+02 0.  0.
         11    1    3    3    0    0  0.23483695512E+02 -0.58282675791E+02  0.35139653778E+03  0.35697042037E+03  0.00000000000E+00 0. -1.
        -12    1    3    3    0    0 -0.22763523270E+01 -0.16627345029E+02  0.68986959122E+01  0.18145037557E+02  0.00000000000E+00 0.  1.
        -11    1    4    4    0    0 -0.36521217486E+02  0.13993013444E+01  0.43362676068E+02  0.56710484451E+02  0.00000000000E+00 0. -1.
         11    1    4    4    0    0  0.15565103203E+02  0.52855058668E+02 -0.10014386026E+02  0.56001942752E+02  0.00000000000E+00 0.  1.
          4    1    1    2  501    0 -0.25122890181E+00  0.20655660808E+02 -0.38105671770E+02  0.43344684339E+02  0.00000000000E+00 0. -1.
<scales pt_clust_5="13000.00000" pt_clust_6="13000.00000" pt_clust_7="13000.00000" pt_clust_8="13000.00000" pt_clust_9="20.65719"></scales>
<clustering>
<clus scale="   20.657">  2  9  1 -1</clus>
<clus scale="   79.214">  5  6 -1 -1</clus>
<clus scale="   90.605">  7  8 -1 -1</clus>
<clus scale="  108.656">  1  5  2 -1</clus>
<clus scale="   20.657">  2  5  1 -1</clus>
</clustering>
</event>
<event>
 9    1  0.4067873E-005  0.1308525E+03  0.7546771E-02  0.1227572E+00
         21   -1    0    0  501  502  0.00000000000E+00  0.00000000000E+00  0.14411271999E+03  0.14411271999E+03  0.00000000000E+00 0. -1.
          3   -1    0    0  502    0 -0.00000000000E+00 -0.00000000000E+00 -0.27691707901E+03  0.27691707901E+03  0.00000000000E+00 0. -1.
        -24    2    1    2    0    0 -0.29367449353E+02  0.94522132890E+02 -0.14543001676E+03  0.19651322618E+03  0.87582404621E+02 0.  0.
         23    2    1    2    0    0  0.93117716006E+02 -0.37006111900E+02  0.21138465818E+02  0.13823414663E+03  0.92851942391E+02 0.  0.
         11    1    3    3    0    0 -0.35165451212E+02  0.60858157667E+02 -0.14633680312E+03  0.16234156665E+03  0.00000000000E+00 0. -1.
        -12    1    3    3    0    0  0.57980018591E+01  0.33663975222E+02  0.90678636150E+00  0.34171659527E+02  0.00000000000E+00 0.  1.
        -11    1    4    4    0    0  0.81905699117E+02 -0.58640434858E+02 -0.70424256201E+01  0.10097940338E+03  0.00000000000E+00 0.  1.
         11    1    4    4    0    0  0.11212016890E+02  0.21634322959E+02  0.28180891438E+02  0.37254743253E+02  0.00000000000E+00 0. -1.
          4    1    1    2  501    0 -0.63750266653E+02 -0.57516020990E+02 -0.85128080817E+01  0.86282426196E+02  0.00000000000E+00 0. -1.
<scales pt_clust_5="13000.00000" pt_clust_6="13000.00000" pt_clust_7="13000.00000" pt_clust_8="13000.00000" pt_clust_9="85.86145"></scales>
<clustering>
<clus scale="   85.861">  1  9  2 -1</clus>
<clus scale="   87.582">  5  6 -1 -1</clus>
<clus scale="   92.852">  7  8 -1 -1</clus>
<clus scale="  127.167">  2  5  1 -1</clus>
<clus scale="   85.861">  1  5  2 -1</clus>
</clustering>
</event>
<event>
 9    1  0.4067873E-005  0.9164157E+02  0.7546771E-02  0.1303956E+00
         -2   -1    0    0    0  501 -0.00000000000E+00  0.00000000000E+00  0.12496658053E+03  0.12496658053E+03  0.00000000000E+00 0.  1.
         21   -1    0    0  501  502  0.00000000000E+00 -0.00000000000E+00 -0.11582493568E+03  0.11582493568E+03  0.00000000000E+00 0.  1.
         23    2    1    2    0    0 -0.10284278354E+02 -0.59041790983E+01  0.28415899318E+02  0.95654203764E+02  0.90562893348E+02 0.  0.
        -24    2    1    2    0    0 -0.27258358387E+02  0.17689242642E+02  0.18661493622E+02  0.90479666320E+02  0.82355274670E+02 0.  0.
         13    1    4    4    0    0  0.80211723909E+01  0.29783101525E+02 -0.20000556225E+02  0.36761319240E+02  0.00000000000E+00 0. -1.
        -14    1    4    4    0    0 -0.35279530778E+02 -0.12093858882E+02  0.38662049847E+02  0.53718347080E+02  0.00000000000E+00 0.  1.
        -13    1    3    3    0    0  0.10662903701E+02  0.21975630391E+02  0.49291160332E+02  0.55011310958E+02  0.00000000000E+00 0.  1.
         13    1    3    3    0    0 -0.20947182055E+02 -0.27879809489E+02 -0.20875261014E+02  0.40642892806E+02  0.00000000000E+00 0. -1.
         -1    1    1    2    0  502  0.37542636741E+02 -0.11785063544E+02 -0.37935748095E+02  0.54657646123E+02  0.00000000000E+00 0.  1.
<scales pt_clust_5="13000.00000" pt_clust_6="13000.00000" pt_clust_7="13000.00000" pt_clust_8="13000.00000" pt_clust_9="39.34892"></scales>
<clustering>
<clus scale="   39.349">  2  9  1 -1</clus>
<clus scale="   82.355">  5  6 -1 -1</clus>
<clus scale="   83.540">  2  5  1 -1</clus>
<clus scale="   90.563">  7  8 -1 -1</clus>
<clus scale="   39.349">  2  5  1 -1</clus>
</clustering>
</event>
<event>
 9    1  0.4067873E-005  0.9838857E+02  0.7546771E-02  0.1288746E+00
          3   -1    0    0  502    0 -0.00000000000E+00  0.00000000000E+00  0.98033274864E+03  0.98033274864E+03  0.00000000000E+00 0. -1.
         21   -1    0    0  501  502  0.00000000000E+00 -0.00000000000E+00 -0.12803038135E+02  0.12803038135E+02  0.00000000000E+00 0.  1.
        -24    2    1    2    0    0 -0.46451374497E+02  0.14456471739E+02  0.52633358632E+03  0.53473835474E+03  0.80940374175E+02 0.  0.
         23    2    1    2    0    0  0.21696917997E+02  0.14932095073E+01  0.29972364728E+03  0.31389263222E+03  0.90671571607E+02 0.  0.
         11    1    3    3    0    0 -0.68909326690E+02  0.17169704170E+02  0.42667674996E+03  0.43254634781E+03  0.00000000000E+00 0. -1.
        -12    1    3    3    0    0  0.22457952193E+02 -0.27132324310E+01  0.99656836353E+02  0.10219200692E+03  0.00000000000E+00 0.  1.
        -13    1    4    4    0    0 -0.86908221613E+01 -0.38820592606E+02  0.17229829351E+03  0.17683119280E+03  0.00000000000E+00 0. -1.
         13    1    4    4    0    0  0.30387740158E+02  0.40313802113E+02  0.12742535377E+03  0.13706143942E+03  0.00000000000E+00 0.  1.
          4    1    1    2  501    0  0.24754456500E+02 -0.15949681246E+02  0.14147247690E+03  0.14450479982E+03  0.00000000000E+00 0. -1.
<scales pt_clust_5="13000.00000" pt_clust_6="13000.00000" pt_clust_7="13000.00000" pt_clust_8="13000.00000" pt_clust_9="29.44786"></scales>
<clustering>
<clus scale="   29.448">  2  9  1 -1</clus>
<clus scale="   80.940">  5  6 -1 -1</clus>
<clus scale="   89.500">  1  5  2 -1</clus>
<clus scale="   90.672">  7  8 -1 -1</clus>
<clus scale="   29.448">  2  5  1 -1</clus>
</clustering>
</event>
<event>
 9    1  0.4067873E-005  0.9077123E+02  0.7546771E-02  0.1307985E+00
         -4   -1    0    0    0  501 -0.00000000000E+00  0.00000000000E+00  0.86514943902E+02  0.86514943902E+02  0.00000000000E+00 0.  1.
         21   -1    0    0  501  502  0.00000000000E+00 -0.00000000000E+00 -0.42312647686E+03  0.42312647686E+03  0.00000000000E+00 0. -1.
         23    2    1    2    0    0  0.11560736158E+02  0.34048370675E+01  0.46316852698E+02  0.10147327815E+03  0.89478107926E+02 0.  0.
        -24    2    1    2    0    0 -0.23725731799E+02 -0.43880189231E+02 -0.20166731834E+03  0.22204502268E+03  0.78395812718E+02 0.  0.
         13    1    4    4    0    0 -0.32757990895E+02 -0.54011011761E+02 -0.19821936281E+03  0.20804132078E+03  0.00000000000E+00 0. -1.
        -14    1    4    4    0    0  0.90322590958E+01  0.10130822530E+02 -0.34479555341E+01  0.14003701899E+02  0.00000000000E+00 0.  1.
        -13    1    3    3    0    0  0.43411829179E+02  0.19620053206E+02  0.45267689499E+02  0.65716794756E+02  0.00000000000E+00 0.  1.
         13    1    3    3    0    0 -0.31851093021E+02 -0.16215216138E+02  0.10491631986E+01  0.35756483390E+02  0.00000000000E+00 0. -1.
         -3    1    1    2    0  502  0.12164995641E+02  0.40475352164E+02 -0.18126106731E+03  0.18612311993E+03  0.00000000000E+00 0.  1.
<scales pt_clust_5="13000.00000" pt_clust_6="13000.00000" pt_clust_7="13000.00000" pt_clust_8="13000.00000" pt_clust_9="42.26395"></scales>
<clustering>
<clus scale="   42.264">  2  9  1 -1</clus>
<clus scale="   78.396">  5  6 -1 -1</clus>
<clus scale="   79.869">  2  5  1 -1</clus>
<clus scale="   89.478">  7  8 -1 -1</clus>
<clus scale="   42.264">  2  5  1 -1</clus>
</clustering>
</event>
<event>
 9    1  0.4067873E-005  0.1672597E+03  0.7546771E-02  0.1181376E+00
         -4   -1    0    0    0  501 -0.00000000000E+00  0.00000000000E+00  0.54893284092E+03  0.54893284092E+03  0.00000000000E+00 0.  1.
         21   -1    0    0  501  502  0.00000000000E+00 -0.00000000000E+00 -0.25578665513E+03  0.25578665513E+03  0.00000000000E+00 0.  1.
        -24    2    1    2    0    0  0.16233807565E+03 -0.18944611471E+02  0.40505592326E+03  0.44439752859E+03  0.81892083502E+02 0.  0.
         23    2    1    2    0    0 -0.55895026947E+02  0.11437847585E+03  0.32240906208E+02  0.15730188677E+03  0.86589362936E+02 0.  0.
         13    1    3    3    0    0  0.36388875537E+02  0.16548825117E+02  0.39801730958E+02  0.56410917940E+02  0.00000000000E+00 0. -1.
        -14    1    3    3    0    0  0.12594920011E+03 -0.35493436588E+02  0.36525419230E+03  0.38798661065E+03  0.00000000000E+00 0.  1.
        -13    1    4    4    0    0 -0.18801939734E+02  0.73773350320E+01  0.38928775105E+02  0.43856442413E+02  0.00000000000E+00 0. -1.
         13    1    4    4    0    0 -0.37093087212E+02  0.10700114082E+03 -0.66878688969E+01  0.11344544436E+03  0.00000000000E+00 0.  1.
         -3    1    1    2    0  502 -0.10644304870E+03 -0.95433864380E+02 -0.14415064368E+03  0.20302008068E+03  0.00000000000E+00 0.  1.
<scales pt_clust_5="13000.00000" pt_clust_6="13000.00000" pt_clust_7="13000.00000" pt_clust_8="13000.00000" pt_clust_9="142.96064"></scales>
<clustering>
<clus scale="   81.892">  5  6 -1 -1</clus>
<clus scale="   86.589">  7  8 -1 -1</clus>
<clus scale="  142.961">  2  9  1 -1</clus>
<clus scale="  164.877">  1  5  2 -1</clus>
<clus scale="  142.961">  2  5  1 -1</clus>
</clustering>
</event>
<event>
 9    1  0.4067873E-005  0.9757063E+02  0.7546771E-02  0.1294169E+00
         21   -1    0    0  501  502  0.00000000000E+00  0.00000000000E+00  0.19915060355E+03  0.19915060355E+03  0.00000000000E+00 0.  1.
         -2   -1    0    0    0  501 -0.00000000000E+00 -0.00000000000E+00 -0.10713705630E+03  0.10713705630E+03  0.00000000000E+00 0.  1.
        -24    2    1    2    0    0 -0.24103147683E+02 -0.12023158079E+02 -0.46575156625E+02  0.96140452470E+02  0.79675738642E+02 0.  0.
         23    2    1    2    0    0  0.20024665694E+01  0.19606517080E+02  0.33480984998E+02  0.10247371944E+03  0.94823316932E+02 0.  0.
         11    1    3    3    0    0  0.28099363920E+02 -0.13019404714E+02 -0.24347771688E+02  0.39394074910E+02  0.00000000000E+00 0. -1.
        -12    1    3    3    0    0 -0.52202511604E+02  0.99624663474E+00 -0.22227384936E+02  0.56746377560E+02  0.00000000000E+00 0.  1.
        -13    1    4    4    0    0 -0.26248645074E+02  0.47721591635E+02  0.77008636410E+01  0.55005863116E+02  0.00000000000E+00 0.  1.
         13    1    4    4    0    0  0.28251111643E+02 -0.28115074555E+02  0.25780121357E+02  0.47467856319E+02  0.00000000000E+00 0. -1.
         -1    1    1    2    0  502  0.22100681114E+02 -0.75833590004E+01  0.10510771887E+03  0.10767348795E+03  0.00000000000E+00 0.  1.
<scales pt_clust_5="13000.00000" pt_clust_6="13000.00000" pt_clust_7="13000.00000" pt_clust_8="13000.00000" pt_clust_9="23.36552"></scales>
<clustering>
<clus scale="   23.366">  1  9  2 -1</clus>
<clus scale="   79.676">  5  6 -1 -1</clus>
<clus scale="   82.926">  2  5  1 -1</clus>
<clus scale="   94.823">  7  8 -1 -1</clus>
<clus scale="   23.366">  1  5  2 -1</clus>
</clustering>
</event>
<event>
 9    1  0.4067873E-005  0.1556671E+03  0.7546771E-02  0.1206167E+00
         21   -1    0    0  501  502  0.00000000000E+00  0.00000000000E+00  0.19293310825E+04  0.19293310825E+04  0.00000000000E+00 0. -1.
          3   -1    0    0  502    0 -0.00000000000E+00 -0.00000000000E+00 -0.23793384960E+02  0.23793384960E+02  0.00000000000E+00 0. -1.
         23    2    1    2    0    0  0.57087895831E+01 -0.75468652653E+02  0.52389459293E+03  0.53716820301E+03  0.91411301361E+02 0.  0.
        -24    2    1    2    0    0  0.65868643470E+02 -0.58229923755E+02  0.30246081263E+03  0.32617047927E+03  0.84706765699E+02 0.  0.
         13    1    4    4    0    0  0.81737752773E+02 -0.41820818980E+02  0.18522015872E+03  0.20672819915E+03  0.00000000000E+00 0. -1.
        -14    1    4    4    0    0 -0.15869109303E+02 -0.16409104775E+02  0.11724065392E+03  0.11944228012E+03  0.00000000000E+00 0.  1.
        -11    1    3    3    0    0  0.47842671170E+02 -0.49788577123E+02  0.32365787378E+03  0.33094144929E+03  0.00000000000E+00 0.  1.
         11    1    3    3    0    0 -0.42133881587E+02 -0.25680075530E+02  0.20023671915E+03  0.20622675373E+03  0.00000000000E+00 0. -1.
          4    1    1    2  501    0 -0.71577433054E+02  0.13369857641E+03  0.10791822920E+04  0.10897857852E+04  0.00000000000E+00 0. -1.
<scales pt_clust_5="13000.00000" pt_clust_6="13000.00000" pt_clust_7="13000.00000" pt_clust_8="13000.00000" pt_clust_9="130.60251"></scales>
<clustering>
<clus scale="   84.707">  5  6 -1 -1</clus>
<clus scale="   91.411">  7  8 -1 -1</clus>
<clus scale="  118.677">  2  7  1 -1</clus>
<clus scale="  130.603">  1  9  2 -1</clus>
<clus scale="  130.603">  1  5  2 -1</clus>
</clustering>
</event>
<event>
 9    1  0.4067873E-005  0.1194334E+03  0.7546771E-02  0.1247822E+00
         -4   -1    0    0    0  501 -0.00000000000E+00  0.00000000000E+00  0.36144077425E+03  0.36144077425E+03  0.00000000000E+00 0.  1.
         21   -1    0    0  501  502  0.00000000000E+00 -0.00000000000E+00 -0.90129239378E+02  0.90129239378E+02  0.00000000000E+00 0. -1.
        -24    2    1    2    0    0  0.77203909368E+02 -0.63366543824E+02  0.19866624586E+03  0.23651185280E+03  0.80584221599E+02 0.  0.
         23    2    1    2    0    0 -0.45685556901E+01  0.10885873704E+02 -0.95121611037E+01  0.93485294002E+02  0.92247737307E+02 0.  0.
         13    1    3    3    0    0  0.66891515369E+02 -0.39151840980E+02  0.67649105466E+02  0.10287731991E+03  0.00000000000E+00 0. -1.
        -14    1    3    3    0    0  0.10312393999E+02 -0.24214702843E+02  0.13101714040E+03  0.13363453289E+03  0.00000000000E+00 0.  1.
        -13    1    4    4    0    0  0.26535907458E+02  0.10940087901E+02  0.31106184922E+02  0.42325342861E+02  0.00000000000E+00 0.  1.
         13    1    4    4    0    0 -0.31104463148E+02 -0.54214196878E-01 -0.40618346026E+02  0.51159951141E+02  0.00000000000E+00 0. -1.
         -3    1    1    2    0  502 -0.72635353678E+02  0.52480670119E+02  0.82157450115E+02  0.12157286683E+03  0.00000000000E+00 0.  1.
<scales pt_clust_5="13000.00000" pt_clust_6="13000.00000" pt_clust_7="13000.00000" pt_clust_8="13000.00000" pt_clust_9="89.61096"></scales>
<clustering>
<clus scale="   80.584">  5  6 -1 -1</clus>
<clus scale="   89.611">  2  9  1 -1</clus>
<clus scale="   92.248">  7  8 -1 -1</clus>
<clus scale="  110.673">  1  5  2 -1</clus>
<clus scale="   89.611">  2  5  1 -1</clus>
</clustering>
</event>
<event>
 9    1  0.4067873E-005  0.1890840E+03  0.7546771E-02  0.1176195E+00
          1   -1    0    0  502    0 -0.00000000000E+00  0.00000000000E+00  0.10092236228E+04  0.10092236228E+04  0.00000000000E+00 0. -1.
         21   -1    0    0  501  502  0.00000000000E+00 -0.00000000000E+00 -0.71072222201E+02  0.71072222201E+02  0.00000000000E+00 0. -1.
        -24    2    1    2    0    0  0.16667749286E+02  0.99058406719E+02  0.19432605787E+03  0.23283106477E+03  0.79732716928E+02 0.  0.
         23    2    1    2    0    0 -0.15633579273E+03  0.91106035567E+01  0.57621178145E+03  0.60394475420E+03  0.90583474528E+02 0.  0.
         11    1    3    3    0    0  0.22109056301E+00  0.57357810474E+02  0.34716811609E+02  0.67046433997E+02  0.00000000000E+00 0. -1.
        -12    1    3    3    0    0  0.16446658723E+02  0.41700596245E+02  0.15960924626E+03  0.16578463077E+03  0.00000000000E+00 0.  1.
        -11    1    4    4    0    0 -0.42644575978E+02  0.37604184756E+02  0.11804844929E+03  0.13102698559E+03  0.00000000000E+00 0.  1.
         11    1    4    4    0    0 -0.11369121676E+03 -0.28493581200E+02  0.45816333215E+03  0.47291776861E+03  0.00000000000E+00 0. -1.
          2    1    1    2  501    0  0.13966804345E+03 -0.10816901028E+03  0.16761356124E+03  0.24352002599E+03  0.00000000000E+00 0. -1.
<scales pt_clust_5="13000.00000" pt_clust_6="13000.00000" pt_clust_7="13000.00000" pt_clust_8="13000.00000" pt_clust_9="165.97407"></scales>
<clustering>
<clus scale="   79.733">  5  6 -1 -1</clus>
<clus scale="   90.583">  7  8 -1 -1</clus>
<clus scale="  128.249">  1  5  2 -1</clus>
<clus scale="  165.974">  2  9  1 -1</clus>
<clus scale="  165.974">  2  5  1 -1</clus>
</clustering>
</event>
<event>
 9    1  0.4067873E-005  0.9450984E+02  0.7546771E-02  0.1297528E+00
          1   -1    0    0  502    0 -0.00000000000E+00  0.00000000000E+00  0.20198181545E+03  0.20198181545E+03  0.00000000000E+00 0. -1.
         21   -1    0    0  501  502  0.00000000000E+00 -0.00000000000E+00 -0.10915009803E+03  0.10915009803E+03  0.00000000000E+00 0. -1.
         23    2    1    2    0    0 -0.17333950077E+02 -0.85945926834E+01  0.85653113667E+02  0.12667990647E+03  0.91307228491E+02 0.  0.
        -24    2    1    2    0    0 -0.35603675711E+02  0.53058014149E+02  0.35142984648E+02  0.10987724806E+03  0.82190058292E+02 0.  0.
         13    1    4    4    0    0 -0.52444350260E+02  0.40533169946E+02  0.50950954806E+02  0.83602317765E+02  0.00000000000E+00 0. -1.
        -14    1    4    4    0    0  0.16840674549E+02  0.12524844202E+02 -0.15807970158E+02  0.26274930296E+02  0.00000000000E+00 0.  1.
        -11    1    3    3    0    0  0.32388968843E+02  0.13150779306E+02  0.16173098609E+02  0.38516975708E+02  0.00000000000E+00 0. -1.
         11    1    3    3    0    0 -0.49722918919E+02 -0.21745371990E+02  0.69480015058E+02  0.88162930766E+02  0.00000000000E+00 0.  1.
          2    1    1    2  501    0  0.52937625788E+02 -0.44463421465E+02 -0.27964380891E+02  0.74574758941E+02  0.00000000000E+00 0. -1.
<scales pt_clust_5="13000.00000" pt_clust_6="13000.00000" pt_clust_7="13000.00000" pt_clust_8="13000.00000" pt_clust_9="69.13312"></scales>
<clustering>
<clus scale="   69.133">  2  9  1 -1</clus>
<clus scale="   82.190">  5  6 -1 -1</clus>
<clus scale="   85.734">  2  5  1 -1</clus>
<clus scale="   91.307">  7  8 -1 -1</clus>
<clus scale="   69.133">  2  5  1 -1</clus>
</clustering>
</event>
<event>
 9    1  0.4067873E-005  0.1281922E+03  0.7546771E-02  0.1247455E+00
          1   -1    0    0  502    0 -0.00000000000E+00  0.00000000000E+00  0.34968237454E+03  0.34968237454E+03  0.00000000000E+00 0. -1.
         21   -1    0    0  501  502  0.00000000000E+00 -0.00000000000E+00 -0.10034506656E+03  0.10034506656E+03  0.00000000000E+00 0. -1.
         23    2    1    2    0    0  0.15321114532E+02  0.16758876303E+02  0.44356480251E+02  0.10048471572E+03  0.87258720296E+02 0.  0.
        -24    2    1    2    0    0  0.43348175436E+02  0.72629565081E+02  0.21377435075E+03  0.24225943178E+03  0.76393986756E+02 0.  0.
         13    1    4    4    0    0  0.17189519360E+02  0.70937450857E+02  0.19945304316E+03  0.21238907207E+03  0.00000000000E+00 0. -1.
        -14    1    4    4    0    0  0.26158656076E+02  0.16921142243E+01  0.14321307590E+02  0.29870359712E+02  0.00000000000E+00 0.  1.
        -13    1    3    3    0    0 -0.23397168954E+02  0.37372053050E+02  0.11179149616E+02  0.45487044863E+02  0.00000000000E+00 0. -1.
         13    1    3    3    0    0  0.38718283486E+02 -0.20613176747E+02  0.33177330635E+02  0.54997670857E+02  0.00000000000E+00 0.  1.
          2    1    1    2  501    0 -0.58669289968E+02 -0.89388441384E+02 -0.87935230226E+01  0.10728329360E+03  0.00000000000E+00 0. -1.
<scales pt_clust_5="13000.00000" pt_clust_6="13000.00000" pt_clust_7="13000.00000" pt_clust_8="13000.00000" pt_clust_9="102.94270"></scales>
<clustering>
<clus scale="   76.394">  5  6 -1 -1</clus>
<clus scale="   87.259">  7  8 -1 -1</clus>
<clus scale="   90.165">  1  7  2 -1</clus>
<clus scale="  102.943">  2  9  1 -1</clus>
<clus scale="  102.943">  2  5  1 -1</clus>
</clustering>
</event>
<event>
 9    1  0.4067873E-005  0.1041763E+03  0.7546771E-02  0.1277011E+00
         21   -1    0    0  501  502  0.00000000000E+00  0.00000000000E+00  0.31555210594E+03  0.31555210594E+03  0.00000000000E+00 0. -1.
          3   -1    0    0  502    0 -0.00000000000E+00 -0.00000000000E+00 -0.13200679261E+03  0.13200679261E+03  0.00000000000E+00 0. -1.
        -24    2    1    2    0    0 -0.49607260335E+02 -0.77316452434E+01 -0.78208814938E+02  0.12280841066E+03  0.80278442807E+02 0.  0.
         23    2    1    2    0    0  0.47514647820E+02 -0.29032726008E+02  0.67048398932E+02  0.12659317902E+03  0.91813965375E+02 0.  0.
         11    1    3    3    0    0 -0.29688616689E+02 -0.23499559897E+02 -0.87829492495E+02  0.95643416022E+02  0.00000000000E+00 0. -1.
        -12    1    3    3    0    0 -0.19918643646E+02  0.15767914654E+02  0.96206775576E+01  0.27164994642E+02  0.00000000000E+00 0.  1.
        -11    1    4    4    0    0  0.98164431405E+01 -0.33401511589E+02  0.79388707066E+02  0.86686736828E+02  0.00000000000E+00 0.  1.
         11    1    4    4    0    0  0.37698204679E+02  0.43687855811E+01 -0.12340308133E+02  0.39906442191E+02  0.00000000000E+00 0. -1.
          4    1    1    2  501    0  0.20926125152E+01  0.36764371251E+02  0.19470572934E+03  0.19815730887E+03  0.00000000000E+00 0. -1.
<scales pt_clust_5="13000.00000" pt_clust_6="13000.00000" pt_clust_7="13000.00000" pt_clust_8="13000.00000" pt_clust_9="36.82388"></scales>
<clustering>
<clus scale="   36.824">  1  9  2 -1</clus>
<clus scale="   80.278">  5  6 -1 -1</clus>
<clus scale="   91.814">  7  8 -1 -1</clus>
<clus scale="   94.167">  2  5  1 -1</clus>
<clus scale="   36.824">  1  5  2 -1</clus>
</clustering>
</event>
<event>
 9    1  0.4067873E-005  0.1897074E+03  0.7546771E-02  0.1168619E+00
         21   -1    0    0  501  502  0.00000000000E+00  0.00000000000E+00  0.22969846811E+03  0.22969846811E+03  0.00000000000E+00 0. -1.
         -2   -1    0    0    0  501 -0.00000000000E+00 -0.00000000000E+00 -0.55278058434E+03  0.55278058434E+03  0.00000000000E+00 0.  1.
         23    2    1    2    0    0 -0.12007906495E+03 -0.14771506116E+02  0.80534683384E+02  0.17105084743E+03  0.90196330006E+02 0.  0.
        -24    2    1    2    0    0 -0.20893253360E+02 -0.16103814527E+03 -0.43838261777E+02  0.18690161653E+03  0.81489930652E+02 0.  0.
         13    1    4    4    0    0 -0.47408255829E+02 -0.72906471496E+02 -0.37328458750E+02  0.94637783889E+02  0.00000000000E+00 0. -1.
        -14    1    4    4    0    0  0.26515002469E+02 -0.88131673773E+02 -0.65098030273E+01  0.92263832640E+02  0.00000000000E+00 0.  1.
        -13    1    3    3    0    0  0.37710442602E+01 -0.24235732029E+02  0.32069692196E+01  0.24736130121E+02  0.00000000000E+00 0.  1.
         13    1    3    3    0    0 -0.12385010921E+03  0.94642259120E+01  0.77327714164E+02  0.14631471731E+03  0.00000000000E+00 0. -1.
         -1    1    1    2    0  502  0.14097231831E+03  0.17580965139E+03 -0.35977853783E+03  0.42452658849E+03  0.00000000000E+00 0.  1.
<scales pt_clust_5="13000.00000" pt_clust_6="13000.00000" pt_clust_7="13000.00000" pt_clust_8="13000.00000" pt_clust_9="171.31349"></scales>
<clustering>
<clus scale="   81.490">  5  6 -1 -1</clus>
<clus scale="   90.196">  7  8 -1 -1</clus>
<clus scale="  150.906">  2  7  1 -1</clus>
<clus scale="  171.313">  1  9  2 -1</clus>
<clus scale="  171.313">  1  5  2 -1</clus>
</clustering>
</event>
<event>
 9    1  0.4067873E-005  0.1030804E+03  0.7546771E-02  0.1279007E+00
         21   -1    0    0  501  502  0.00000000000E+00  0.00000000000E+00  0.22503149038E+03  0.22503149038E+03  0.00000000000E+00 0.  1.
          1   -1    0    0  502    0 -0.00000000000E+00 -0.00000000000E+00 -0.66760776826E+02  0.66760776826E+02  0.00000000000E+00 0. -1.
         23    2    1    2    0    0 -0.17700519622E+02 -0.43246298474E+02  0.26806561715E+02  0.10568314334E+03  0.90921858251E+02 0.  0.
        -24    2    1    2    0    0  0.41026159952E+02  0.38124236479E+02  0.12945089502E+03  0.16214301824E+03  0.79976377346E+02 0.  0.
         11    1    4    4    0    0  0.36579880227E+02  0.62186592459E+02  0.85807669217E+02  0.11210805509E+03  0.00000000000E+00 0. -1.
        -12    1    4    4    0    0  0.44462797252E+01 -0.24062355979E+02  0.43643225808E+02  0.50034963151E+02  0.00000000000E+00 0.  1.
        -13    1    3    3    0    0  0.26084486547E+02 -0.16433884486E+02  0.42036091777E+02  0.52129703717E+02  0.00000000000E+00 0.  1.
         13    1    3    3    0    0 -0.43785006169E+02 -0.26812413988E+02 -0.15229530062E+02  0.53553439619E+02  0.00000000000E+00 0. -1.
          2    1    1    2  501    0 -0.23325640330E+02  0.51220619948E+01  0.20132568094E+01  0.23966105626E+02  0.00000000000E+00 0. -1.
<scales pt_clust_5="13000.00000" pt_clust_6="13000.00000" pt_clust_7="13000.00000" pt_clust_8="13000.00000" pt_clust_9="23.88141"></scales>
<clustering>
<clus scale="   23.881">  1  9  2 -1</clus>
<clus scale="   79.976">  5  6 -1 -1</clus>
<clus scale="   90.922">  7  8 -1 -1</clus>
<clus scale="   93.568">  1  5  2 -1</clus>
<clus scale="   23.881">  1  5  2 -1</clus>
</clustering>
</event>
<event>
 9    1  0.4067873E-005  0.9535231E+02  0.7546771E-02  0.1296601E+00
          1   -1    0    0  502    0 -0.00000000000E+00  0.00000000000E+00  0.53137285754E+03  0.53137285754E+03  0.00000000000E+00 0. -1.
         21   -1    0    0  501  502  0.00000000000E+00 -0.00000000000E+00 -0.40537845271E+02  0.40537845271E+02  0.00000000000E+00 0. -1.
        -24    2    1    2    0    0 -0.40504643971E+02  0.86844120684E-01  0.13348981871E+03  0.16152828029E+03  0.81432302607E+02 0.  0.
         23    2    1    2    0    0 -0.33330466242E+02  0.50526589598E+02  0.16876237637E+03  0.20163180071E+03  0.92253927504E+02 0.  0.
         13    1    3    3    0    0 -0.58773130043E+02  0.21114704198E+02  0.83082809344E+02  0.10393683061E+03  0.00000000000E+00 0. -1.
        -14    1    3    3    0    0  0.18268486071E+02 -0.21027860077E+02  0.50407009365E+02  0.57591449677E+02  0.00000000000E+00 0.  1.
        -11    1    4    4    0    0 -0.50237672247E+01 -0.20371343434E+02  0.88133760440E+02  0.90596852041E+02  0.00000000000E+00 0.  1.
         11    1    4    4    0    0 -0.28306699017E+02  0.70897933032E+02  0.80628615935E+02  0.11103494866E+03  0.00000000000E+00 0. -1.
          2    1    1    2  501    0  0.73835110213E+02 -0.50613433719E+02  0.18858281719E+03  0.20875062182E+03  0.00000000000E+00 0. -1.
<scales pt_clust_5="13000.00000" pt_clust_6="13000.00000" pt_clust_7="13000.00000" pt_clust_8="13000.00000" pt_clust_9="89.51732"></scales>
<clustering>
<clus scale="   81.432">  5  6 -1 -1</clus>
<clus scale="   89.517">  2  9  1 -1</clus>
<clus scale="   84.926">  1  5  2 -1</clus>
<clus scale="   92.254">  7  8 -1 -1</clus>
<clus scale="   89.517">  2  5  1 -1</clus>
</clustering>
</event>
<event>
 9    1  0.4067873E-005  0.1415169E+03  0.7546771E-02  0.1214294E+00
         21   -1    0    0  501  502  0.00000000000E+00  0.00000000000E+00  0.12386048744E+03  0.12386048744E+03  0.00000000000E+00 0.  1.
          1   -1    0    0  502    0 -0.00000000000E+00 -0.00000000000E+00 -0.37619524519E+03  0.37619524519E+03  0.00000000000E+00 0. -1.
        -24    2    1    2    0    0  0.81030739100E+02 -0.72527677577E+02 -0.26699202973E+03  0.29923269074E+03  0.80182383196E+02 0.  0.
         23    2    1    2    0    0 -0.10354595444E+03  0.18088145926E+02  0.16225160810E+02  0.14189040404E+03  0.93918503025E+02 0.  0.
         11    1    3    3    0    0  0.42174486440E+02 -0.71470897378E+02 -0.23389399332E+03  0.24817972639E+03  0.00000000000E+00 0. -1.
        -12    1    3    3    0    0  0.38856252659E+02 -0.10567801987E+01 -0.33098036412E+02  0.51052964355E+02  0.00000000000E+00 0.  1.
        -13    1    4    4    0    0 -0.23290659585E+02  0.18547494133E+02  0.47248018322E+02  0.55846571944E+02  0.00000000000E+00 0.  1.
         13    1    4    4    0    0 -0.80255294854E+02 -0.45934820643E+00 -0.31022857512E+02  0.86043832092E+02  0.00000000000E+00 0. -1.
          2    1    1    2  501    0  0.22515215338E+02  0.54439531651E+02 -0.15678888221E+01  0.58932637846E+02  0.00000000000E+00 0. -1.
<scales pt_clust_5="13000.00000" pt_clust_6="13000.00000" pt_clust_7="13000.00000" pt_clust_8="13000.00000" pt_clust_9="58.91178"></scales>
<clustering>
<clus scale="   58.912">  1  9  2 -1</clus>
<clus scale="   80.182">  5  6 -1 -1</clus>
<clus scale="   93.919">  7  8 -1 -1</clus>
<clus scale="  132.799">  2  5  1 -1</clus>
<clus scale="   58.912">  1  5  2 -1</clus>
</clustering>
</event>
<event>
 9    1  0.4067873E-005  0.9187679E+02  0.7546771E-02  0.1306254E+00
         21   -1    0    0  501  502  0.00000000000E+00  0.00000000000E+00  0.29810744311E+02  0.29810744311E+02  0.00000000000E+00 0. -1.
         -2   -1    0    0    0  501 -0.00000000000E+00 -0.00000000000E+00 -0.45829951714E+03  0.45829951714E+03  0.00000000000E+00 0.  1.
        -24    2    1    2    0    0  0.75800269160E+01  0.37001822507E+02 -0.19530298680E+03  0.21296317518E+03  0.76049100277E+02 0.  0.
         23    2    1    2    0    0  0.14572761136E+02  0.35917768707E+01 -0.10250068930E+03  0.13652103953E+03  0.88917583741E+02 0.  0.
         11    1    3    3    0    0  0.35688033451E+02  0.18758176361E+02 -0.52024724179E+02  0.65818514401E+02  0.00000000000E+00 0. -1.
        -12    1    3    3    0    0 -0.28108006535E+02  0.18243646145E+02 -0.14327826263E+03  0.14714466078E+03  0.00000000000E+00 0.  1.
        -13    1    4    4    0    0  0.83013296260E-01 -0.42095917100E+02 -0.44025006151E+02  0.60912020934E+02  0.00000000000E+00 0. -1.
         13    1    4    4    0    0  0.14489747840E+02  0.45687693970E+02 -0.58475683151E+02  0.75609018594E+02  0.00000000000E+00 0.  1.
         -1    1    1    2    0  502 -0.22152788052E+02 -0.40593599377E+02 -0.13068509672E+03  0.13862604674E+03  0.00000000000E+00 0.  1.
<scales pt_clust_5="13000.00000" pt_clust_6="13000.00000" pt_clust_7="13000.00000" pt_clust_8="13000.00000" pt_clust_9="46.24488"></scales>
<clustering>
<clus scale="   46.245">  1  9  2 -1</clus>
<clus scale="   76.049">  5  6 -1 -1</clus>
<clus scale="   79.489">  2  5  1 -1</clus>
<clus scale="   88.918">  7  8 -1 -1</clus>
<clus scale="   46.245">  1  5  2 -1</clus>
</clustering>
</event>
<event>
 9    1  0.4067873E-005  0.1154939E+03  0.7546771E-02  0.1252743E+00
         -2   -1    0    0    0  501 -0.00000000000E+00  0.00000000000E+00  0.39561097293E+03  0.39561097293E+03  0.00000000000E+00 0.  1.
         21   -1    0    0  501  502  0.00000000000E+00 -0.00000000000E+00 -0.10046646016E+03  0.10046646016E+03  0.00000000000E+00 0.  1.
         23    2    1    2    0    0  0.14235892409E+02  0.22566159110E+02  0.28610703753E+03  0.30624388057E+03  0.10590649315E+03 0.  0.
        -24    2    1    2    0    0 -0.22346986212E+02 -0.56385487270E+02  0.50311247617E+02  0.13586077154E+03  0.11067166141E+03 0.  0.
         13    1    4    4    0    0 -0.64564579693E+02 -0.52507559607E+02  0.27067013635E+02  0.87511439218E+02  0.00000000000E+00 0. -1.
        -14    1    4    4    0    0  0.42217593481E+02 -0.38779276625E+01  0.23244233981E+02  0.48349332319E+02  0.00000000000E+00 0.  1.
        -13    1    3    3    0    0  0.28381179301E+02  0.58916372179E+02  0.21972550284E+03  0.22925079465E+03  0.00000000000E+00 0.  1.
         13    1    3    3    0    0 -0.14145286892E+02 -0.36350213069E+02  0.66381534689E+02  0.76993085917E+02  0.00000000000E+00 0. -1.
         -1    1    1    2    0  502  0.81110938029E+01  0.33819328160E+02 -0.41273772381E+02  0.53972780977E+02  0.00000000000E+00 0.  1.
<scales pt_clust_5="13000.00000" pt_clust_6="13000.00000" pt_clust_7="13000.00000" pt_clust_8="13000.00000" pt_clust_9="34.77840"></scales>
<clustering>
<clus scale="   34.778">  2  9  1 -1</clus>
<clus scale="  105.906">  7  8 -1 -1</clus>
<clus scale="  110.672">  5  6 -1 -1</clus>
<clus scale="  110.936">  1  7  2 -1</clus>
<clus scale="   34.778">  2  5  1 -1</clus>
</clustering>
</event>
<event>
 9    1  0.4067873E-005  0.3510136E+03  0.7546771E-02  0.1115829E+00
         21   -1    0    0  501  502  0.00000000000E+00  0.00000000000E+00  0.74130090008E+03  0.74130090008E+03  0.00000000000E+00 0.  1.
         -2   -1    0    0    0  501 -0.00000000000E+00 -0.00000000000E+00 -0.40675800873E+03  0.40675800873E+03  0.00000000000E+00 0.  1.
        -24    2    1    2    0    0 -0.25916040825E+02 -0.16689123647E+01 -0.12480925362E+03  0.15085911564E+03  0.80664096980E+02 0.  0.
         23    2    1    2    0    0 -0.22833389675E+03  0.23147526274E+03 -0.90625650946E+02  0.34918006705E+03  0.89423402689E+02 0.  0.
         11    1    3    3    0    0  0.10351682449E+02  0.32654498349E+02 -0.42493701243E+02  0.54581940578E+02  0.00000000000E+00 0. -1.
        -12    1    3    3    0    0 -0.36267723274E+02 -0.34323410714E+02 -0.82315552380E+02  0.96277175063E+02  0.00000000000E+00 0.  1.
        -13    1    4    4    0    0 -0.93943230757E+02  0.14713520377E+03 -0.20700366690E+02  0.17579136490E+03  0.00000000000E+00 0. -1.
         13    1    4    4    0    0 -0.13439066600E+03  0.84340058974E+02 -0.69925284257E+02  0.17338870215E+03  0.00000000000E+00 0.  1.
         -1    1    1    2    0  502  0.25424993758E+03 -0.22980635038E+03  0.54997779592E+03  0.64801972612E+03  0.00000000000E+00 0.  1.
<scales pt_clust_5="13000.00000" pt_clust_6="13000.00000" pt_clust_7="13000.00000" pt_clust_8="13000.00000" pt_clust_9="339.43189"></scales>
<clustering>
<clus scale="   80.664">  5  6 -1 -1</clus>
<clus scale="   84.742">  2  5  1 -1</clus>
<clus scale="   89.423">  7  8 -1 -1</clus>
<clus scale="  339.432">  1  9  2 -1</clus>
<clus scale="  339.432">  1  5  2 -1</clus>
</clustering>
</event>
<event>
 9    1  0.4067873E-005  0.1134877E+03  0.7546771E-02  0.1269289E+00
          1   -1    0    0  502    0 -0.00000000000E+00  0.00000000000E+00  0.65519395376E+03  0.65519395376E+03  0.00000000000E+00 0. -1.
         21   -1    0    0  501  502  0.00000000000E+00 -0.00000000000E+00 -0.19003118866E+02  0.19003118866E+02  0.00000000000E+00 0.  1.
         23    2    1    2    0    0  0.19840484716E+02  0.84919280577E+00  0.32371520676E+03  0.34261431135E+03  0.11044756808E+03 0.  0.
        -24    2    1    2    0    0 -0.24579890785E+02 -0.23653241966E+02  0.23579070652E+03  0.25143874197E+03  0.80377464456E+02 0.  0.
         13    1    4    4    0    0 -0.49029552757E+02 -0.35043184693E+02  0.16773817802E+03  0.17823584994E+03  0.00000000000E+00 0. -1.
        -14    1    4    4    0    0  0.24449661972E+02  0.11389942727E+02  0.68052528503E+02  0.73202892030E+02  0.00000000000E+00 0.  1.
        -13    1    3    3    0    0 -0.80302970715E+01 -0.46518839353E+02  0.80979554712E+02  0.93734606028E+02  0.00000000000E+00 0.  1.
         13    1    3    3    0    0  0.27870781787E+02  0.47368032159E+02  0.24273565204E+03  0.24887970532E+03  0.00000000000E+00 0. -1.
          2    1    1    2  501    0  0.47394060694E+01  0.22804049161E+02  0.76684921618E+02  0.80144019313E+02  0.00000000000E+00 0. -1.
<scales pt_clust_5="13000.00000" pt_clust_6="13000.00000" pt_clust_7="13000.00000" pt_clust_8="13000.00000" pt_clust_9="23.29135"></scales>
<clustering>
<clus scale="   23.291">  2  9  1 -1</clus>
<clus scale="   80.377">  5  6 -1 -1</clus>
<clus scale="   84.506">  2  5  1 -1</clus>
<clus scale="  110.448">  7  8 -1 -1</clus>
<clus scale="   23.291">  2  5  1 -1</clus>
</clustering>
</event>
<event>
 9    1  0.4067873E-005  0.1117053E+03  0.7546771E-02  0.1260527E+00
          1   -1    0    0  502    0 -0.00000000000E+00  0.00000000000E+00  0.12010534661E+04  0.12010534661E+04  0.00000000000E+00 0. -1.
         21   -1    0    0  501  502  0.00000000000E+00 -0.00000000000E+00 -0.13572882009E+02  0.13572882009E+02  0.00000000000E+00 0. -1.
        -24    2    1    2    0    0 -0.46943037530E+02 -0.31652359153E+02  0.58567626429E+03  0.59424964108E+03  0.83128988720E+02 0.  0.
         23    2    1    2    0    0  0.62304655168E+02  0.49900969090E+02  0.42483625984E+03  0.44180827390E+03  0.91305675843E+02 0.  0.
         11    1    3    3    0    0 -0.70556746081E+02 -0.20751781899E+02  0.39255350326E+03  0.39938345458E+03  0.00000000000E+00 0. -1.
        -12    1    3    3    0    0  0.23613708551E+02 -0.10900577254E+02  0.19312276103E+03  0.19486618650E+03  0.00000000000E+00 0.  1.
        -13    1    4    4    0    0  0.76814241173E+02  0.64779500298E+02  0.35455931087E+03  0.36852288427E+03  0.00000000000E+00 0. -1.
         13    1    4    4    0    0 -0.14509586005E+02 -0.14878531208E+02  0.70276948975E+02  0.73285389636E+02  0.00000000000E+00 0.  1.
          2    1    1    2  501    0 -0.15361617638E+02 -0.18248609937E+02  0.17696805993E+03  0.17856843309E+03  0.00000000000E+00 0. -1.
<scales pt_clust_5="13000.00000" pt_clust_6="13000.00000" pt_clust_7="13000.00000" pt_clust_8="13000.00000" pt_clust_9="23.85355"></scales>
<clustering>
<clus scale="   23.854">  2  9  1 -1</clus>
<clus scale="   83.129">  5  6 -1 -1</clus>
<clus scale="   91.306">  7  8 -1 -1</clus>
<clus scale="  105.127">  1  5  2 -1</clus>
<clus scale="   23.854">  2  5  1 -1</clus>
</clustering>
</event>
<event>
 9    1  0.4067873E-005  0.1264840E+03  0.7546771E-02  0.1237291E+00
         21   -1    0    0  501  502  0.00000000000E+00  0.00000000000E+00  0.11072116152E+03  0.11072116152E+03  0.00000000000E+00 0.  1.
          1   -1    0    0  502    0 -0.00000000000E+00 -0.00000000000E+00 -0.23428513343E+03  0.23428513343E+03  0.00000000000E+00 0. -1.
        -24    2    1    2    0    0  0.78037437892E+02  0.25895626833E+02 -0.81935741281E+02  0.14037428441E+03  0.78936992746E+02 0.  0.
         23    2    1    2    0    0 -0.77176008041E+02 -0.47749421624E+02  0.25963479614E+02  0.13358998283E+03  0.94530618083E+02 0.  0.
         11    1    3    3    0    0  0.90391005225E+02  0.35673478458E+02 -0.76613366862E+02  0.12374465190E+03  0.00000000000E+00 0. -1.
        -12    1    3    3    0    0 -0.12353567333E+02 -0.97778516250E+01 -0.53223744181E+01  0.16629632518E+02  0.00000000000E+00 0.  1.
        -13    1    4    4    0    0 -0.34632555847E+02 -0.37320887652E+02  0.59582302514E+02  0.78372912109E+02  0.00000000000E+00 0.  1.
         13    1    4    4    0    0 -0.42543452195E+02 -0.10428533972E+02 -0.33618822899E+02  0.55217070717E+02  0.00000000000E+00 0. -1.
          2    1    1    2  501    0 -0.86142985113E+00  0.21853794791E+02 -0.67591710239E+02  0.71042027710E+02  0.00000000000E+00 0. -1.
<scales pt_clust_5="13000.00000" pt_clust_6="13000.00000" pt_clust_7="13000.00000" pt_clust_8="13000.00000" pt_clust_9="21.87078"></scales>
<clustering>
<clus scale="   21.871">  1  9  2 -1</clus>
<clus scale="   78.937">  5  6 -1 -1</clus>
<clus scale="   94.531">  7  8 -1 -1</clus>
<clus scale="  115.296">  2  5  1 -1</clus>
<clus scale="   21.871">  1  5  2 -1</clus>
</clustering>
</event>
<event>
 9    1  0.4067873E-005  0.9154373E+02  0.7546771E-02  0.1304523E+00
         21   -1    0    0  501  502  0.00000000000E+00  0.00000000000E+00  0.24471723854E+03  0.24471723854E+03  0.00000000000E+00 0. -1.
         -4   -1    0    0    0  501 -0.00000000000E+00 -0.00000000000E+00 -0.15615565084E+03  0.15615565084E+03  0.00000000000E+00 0.  1.
        -24    2    1    2    0    0  0.62989751646E+01  0.15515175236E+02 -0.12122546675E+03  0.14680259176E+03  0.81086308374E+02 0.  0.
         23    2    1    2    0    0  0.14120325651E+02 -0.35989793902E+02  0.20149580169E+03  0.22398869647E+03  0.89865060989E+02 0.  0.
         11    1    3    3    0    0 -0.26654376349E+00 -0.29309991938E+02 -0.18845023956E+02  0.34846543600E+02  0.00000000000E+00 0. -1.
        -12    1    3    3    0    0  0.65655189281E+01  0.44825167174E+02 -0.10238044280E+03  0.11195604816E+03  0.00000000000E+00 0.  1.
        -13    1    4    4    0    0  0.45185865728E+02 -0.16294625116E+02  0.16623195198E+03  0.17303276895E+03  0.00000000000E+00 0. -1.
         13    1    4    4    0    0 -0.31065540077E+02 -0.19695168786E+02  0.35263849710E+02  0.50955927527E+02  0.00000000000E+00 0.  1.
         -3    1    1    2    0  502 -0.20419300816E+02  0.20474618665E+02  0.82912527613E+01  0.30081601148E+02  0.00000000000E+00 0.  1.
<scales pt_clust_5="13000.00000" pt_clust_6="13000.00000" pt_clust_7="13000.00000" pt_clust_8="13000.00000" pt_clust_9="28.91639"></scales>
<clustering>
<clus scale="   28.916">  1  9  2 -1</clus>
<clus scale="   81.086">  5  6 -1 -1</clus>
<clus scale="   82.943">  2  5  1 -1</clus>
<clus scale="   89.865">  7  8 -1 -1</clus>
<clus scale="   28.916">  1  5  2 -1</clus>
</clustering>
</event>
<event>
 9    1  0.4067873E-005  0.1125825E+03  0.7546771E-02  0.1260287E+00
         21   -1    0    0  501  502  0.00000000000E+00  0.00000000000E+00  0.24893062156E+03  0.24893062156E+03  0.00000000000E+00 0. -1.
          1   -1    0    0  502    0 -0.00000000000E+00 -0.00000000000E+00 -0.20151028085E+03  0.20151028085E+03  0.00000000000E+00 0. -1.
        -24    2    1    2    0    0 -0.43830068593E+02 -0.42788081622E+02 -0.15016189196E+03  0.18131574797E+03  0.81085829978E+02 0.  0.
         23    2    1    2    0    0  0.90899561816E+02  0.38096340205E+02  0.14980476835E+03  0.20189245608E+03  0.92763321034E+02 0.  0.
         13    1    3    3    0    0 -0.46278765303E+02 -0.29982798986E+02 -0.15713584079E+03  0.16653037204E+03  0.00000000000E+00 0. -1.
        -14    1    3    3    0    0  0.24486967099E+01 -0.12805282636E+02  0.69739488293E+01  0.14785375925E+02  0.00000000000E+00 0.  1.
        -11    1    4    4    0    0  0.55940837532E+02  0.68031729535E+02  0.84971596345E+02  0.12238409093E+03  0.00000000000E+00 0. -1.
         11    1    4    4    0    0  0.34958724284E+02 -0.29935389329E+02  0.64833172001E+02  0.79508365155E+02  0.00000000000E+00 0.  1.
          2    1    1    2  501    0 -0.47069493223E+02  0.46917414169E+01  0.47777464324E+02  0.67232698347E+02  0.00000000000E+00 0. -1.
<scales pt_clust_5="13000.00000" pt_clust_6="13000.00000" pt_clust_7="13000.00000" pt_clust_8="13000.00000" pt_clust_9="47.30274"></scales>
<clustering>
<clus scale="   47.303">  1  9  2 -1</clus>
<clus scale="   81.086">  5  6 -1 -1</clus>
<clus scale="   92.763">  7  8 -1 -1</clus>
<clus scale="  103.173">  2  5  1 -1</clus>
<clus scale="   47.303">  1  5  2 -1</clus>
</clustering>
</event>
<event>
 9    1  0.4067873E-005  0.1377345E+03  0.7546771E-02  0.1220284E+00
         21   -1    0    0  501  502  0.00000000000E+00  0.00000000000E+00  0.64893553463E+02  0.64893553463E+02  0.00000000000E+00 0. -1.
          1   -1    0    0  502    0 -0.00000000000E+00 -0.00000000000E+00 -0.40807124340E+03  0.40807124340E+03  0.00000000000E+00 0. -1.
         23    2    1    2    0    0 -0.96589001150E+02  0.12567476488E+02 -0.18200954007E+03  0.22677141462E+03  0.93863865276E+02 0.  0.
        -24    2    1    2    0    0  0.10017678066E+03 -0.44451051542E+02 -0.73562493290E+02  0.15289715732E+03  0.77167460319E+02 0.  0.
         11    1    4    4    0    0  0.90797947536E+02 -0.68500769922E+01 -0.33139998121E+02  0.96899175988E+02  0.00000000000E+00 0. -1.
        -12    1    4    4    0    0  0.93788331201E+01 -0.37600974550E+02 -0.40422495169E+02  0.55997981334E+02  0.00000000000E+00 0.  1.
        -13    1    3    3    0    0 -0.71069142767E+01  0.25186711618E+02 -0.31239412366E+01  0.26355979995E+02  0.00000000000E+00 0.  1.
         13    1    3    3    0    0 -0.89482086874E+02 -0.12619235130E+02 -0.17888559883E+03  0.20041543463E+03  0.00000000000E+00 0. -1.
          2    1    1    2  501    0 -0.35877795061E+01  0.31883575054E+02 -0.87605656573E+02  0.93296224916E+02  0.00000000000E+00 0. -1.
<scales pt_clust_5="13000.00000" pt_clust_6="13000.00000" pt_clust_7="13000.00000" pt_clust_8="13000.00000" pt_clust_9="32.08482"></scales>
<clustering>
<clus scale="   32.085">  1  9  2 -1</clus>
<clus scale="   77.167">  5  6 -1 -1</clus>
<clus scale="   93.864">  7  8 -1 -1</clus>
<clus scale="  126.946">  1  5  2 -1</clus>
<clus scale="   32.085">  1  5  2 -1</clus>
</clustering>
</event>
<event>
 9    1  0.4067873E-005  0.1613791E+03  0.7546771E-02  0.1225658E+00
         21   -1    0    0  501  502  0.00000000000E+00  0.00000000000E+00  0.58856592393E+03  0.58856592393E+03  0.00000000000E+00 0.  1.
         -4   -1    0    0    0  501 -0.00000000000E+00 -0.00000000000E+00 -0.19337170545E+03  0.19337170545E+03  0.00000000000E+00 0.  1.
        -24    2    1    2    0    0  0.88946295636E+01  0.13073245135E+02 -0.14613427750E+03  0.16226906186E+03  0.68745888642E+02 0.  0.
         23    2    1    2    0    0  0.12807047119E+03 -0.32452729907E+00  0.34955869206E+03  0.38366512194E+03  0.92765811009E+02 0.  0.
         13    1    3    3    0    0 -0.12752549397E+02 -0.17108166246E+02 -0.15277965998E+02  0.26243725221E+02  0.00000000000E+00 0. -1.
        -14    1    3    3    0    0  0.21647178961E+02  0.30181411381E+02 -0.13085631150E+03  0.13602533664E+03  0.00000000000E+00 0.  1.
        -11    1    4    4    0    0  0.98658618844E+02  0.37392470849E+02  0.28027349961E+03  0.29947446391E+03  0.00000000000E+00 0.  1.
         11    1    4    4    0    0  0.29411852347E+02 -0.37716998148E+02  0.69285192444E+02  0.84190658032E+02  0.00000000000E+00 0. -1.
         -3    1    1    2    0  502 -0.13696510075E+03 -0.12748717836E+02  0.19176980392E+03  0.23600344558E+03  0.00000000000E+00 0.  1.
<scales pt_clust_5="13000.00000" pt_clust_6="13000.00000" pt_clust_7="13000.00000" pt_clust_8="13000.00000" pt_clust_9="132.05205"></scales>
<clustering>
<clus scale="   68.746">  5  6 -1 -1</clus>
<clus scale="   70.541">  2  5  1 -1</clus>
<clus scale="   92.766">  7  8 -1 -1</clus>
<clus scale="  132.052">  1  9  2 -1</clus>
<clus scale="  132.052">  1  5  2 -1</clus>
</clustering>
</event>
<event>
 9    1  0.4067873E-005  0.1138620E+03  0.7546771E-02  0.1257908E+00
         -4   -1    0    0    0  501 -0.00000000000E+00  0.00000000000E+00  0.55557400252E+03  0.55557400252E+03  0.00000000000E+00 0.  1.
         21   -1    0    0  501  502  0.00000000000E+00 -0.00000000000E+00 -0.34575361407E+02  0.34575361407E+02  0.00000000000E+00 0. -1.
        -24    2    1    2    0    0 -0.21031615422E+02  0.52740918140E+02  0.29388502676E+03  0.31003532538E+03  0.80805697413E+02 0.  0.
         23    2    1    2    0    0  0.39767122955E+02 -0.81459390895E+02  0.18357153995E+03  0.22469128002E+03  0.92577559931E+02 0.  0.
         11    1    3    3    0    0 -0.19780729893E+02 -0.14450216151E+02  0.36044130296E+02  0.43580561615E+02  0.00000000000E+00 0. -1.
        -12    1    3    3    0    0 -0.12508855288E+01  0.67191134291E+02  0.25784089647E+03  0.26645476377E+03  0.00000000000E+00 0.  1.
        -13    1    4    4    0    0  0.62312540766E+02 -0.85256520630E+02  0.13863873334E+03  0.17427629049E+03  0.00000000000E+00 0. -1.
         13    1    4    4    0    0 -0.22545417811E+02  0.37971297357E+01  0.44932806616E+02  0.50414989526E+02  0.00000000000E+00 0.  1.
         -3    1    1    2    0  502 -0.18735507534E+02  0.28718472755E+02  0.43542074390E+02  0.55422758521E+02  0.00000000000E+00 0.  1.
<scales pt_clust_5="13000.00000" pt_clust_6="13000.00000" pt_clust_7="13000.00000" pt_clust_8="13000.00000" pt_clust_9="34.28950"></scales>
<clustering>
<clus scale="   34.290">  2  9  1 -1</clus>
<clus scale="   80.806">  5  6 -1 -1</clus>
<clus scale="   92.578">  7  8 -1 -1</clus>
<clus scale="  104.516">  1  5  2 -1</clus>
<clus scale="   34.290">  2  5  1 -1</clus>
</clustering>
</event>
<event>
 9    1  0.4067873E-005  0.2883185E+03  0.7546771E-02  0.1091230E+00
         21   -1    0    0  501  502  0.00000000000E+00  0.00000000000E+00  0.19502092050E+03  0.19502092050E+03  0.00000000000E+00 0. -1.
          1   -1    0    0  502    0 -0.00000000000E+00 -0.00000000000E+00 -0.54507988247E+03  0.54507988247E+03  0.00000000000E+00 0. -1.
        -24    2    1    2    0    0 -0.67467144630E+02  0.19533038367E+02 -0.10720933431E+03  0.15104268168E+03  0.79916801337E+02 0.  0.
         23    2    1    2    0    0 -0.13276283537E+03  0.64122756630E+02 -0.31513675691E+03  0.36033172145E+03  0.93755402807E+02 0.  0.
         11    1    3    3    0    0 -0.46718667935E+02  0.40139854933E+02 -0.10497953299E+03  0.12171501236E+03  0.00000000000E+00 0. -1.
        -12    1    3    3    0    0 -0.20748476695E+02 -0.20606816566E+02 -0.22298013196E+01  0.29327669325E+02  0.00000000000E+00 0.  1.
        -13    1    4    4    0    0 -0.44160335633E+02  0.14892407571E+02 -0.24760852176E+02  0.52773277773E+02  0.00000000000E+00 0.  1.
         13    1    4    4    0    0 -0.88602499738E+02  0.49230349059E+02 -0.29037590473E+03  0.30755844368E+03  0.00000000000E+00 0. -1.
          2    1    1    2  501    0  0.20022998000E+03 -0.83655794997E+02  0.72287129248E+02  0.22872639984E+03  0.00000000000E+00 0. -1.
<scales pt_clust_5="13000.00000" pt_clust_6="13000.00000" pt_clust_7="13000.00000" pt_clust_8="13000.00000" pt_clust_9="217.00308"></scales>
<clustering>
<clus scale="   79.917">  5  6 -1 -1</clus>
<clus scale="   93.755">  7  8 -1 -1</clus>
<clus scale="   98.841">  5  7 -1 -1</clus>
<clus scale="  217.003">  1  9  2 -1</clus>
<clus scale="  217.003">  1  5  2 -1</clus>
</clustering>
</event>
<event>
 9    1  0.4067873E-005  0.9944565E+02  0.7546771E-02  0.1284708E+00
         21   -1    0    0  501  502  0.00000000000E+00  0.00000000000E+00  0.20710272089E+03  0.20710272089E+03  0.00000000000E+00 0. -1.
          1   -1    0    0  502    0 -0.00000000000E+00 -0.00000000000E+00 -0.67945635766E+02  0.67945635766E+02  0.00000000000E+00 0. -1.
         23    2    1    2    0    0  0.27333911712E+02 -0.44218571372E+02  0.42781612285E+02  0.11079031129E+03  0.87987510150E+02 0.  0.
        -24    2    1    2    0    0 -0.32105976902E+02  0.22828694014E+02  0.10691860953E+03  0.13993815246E+03  0.81235179730E+02 0.  0.
         13    1    4    4    0    0 -0.12739850197E+02  0.52854836088E+02  0.60091177788E+02  0.81036332153E+02  0.00000000000E+00 0. -1.
        -14    1    4    4    0    0 -0.19366126705E+02 -0.30026142074E+02  0.46827431746E+02  0.58901820306E+02  0.00000000000E+00 0.  1.
        -11    1    3    3    0    0 -0.92746373161E+01  0.19339225894E+02 -0.65157477713E+01  0.22416055062E+02  0.00000000000E+00 0.  1.
         11    1    3    3    0    0  0.36608549028E+02 -0.63557797266E+02  0.49297360056E+02  0.88374256227E+02  0.00000000000E+00 0. -1.
          2    1    1    2  501    0  0.47720651896E+01  0.21389877357E+02 -0.10543136696E+02  0.24319892905E+02  0.00000000000E+00 0. -1.
<scales pt_clust_5="13000.00000" pt_clust_6="13000.00000" pt_clust_7="13000.00000" pt_clust_8="13000.00000" pt_clust_9="21.91575"></scales>
<clustering>
<clus scale="   21.916">  1  9  2 -1</clus>
<clus scale="   81.235">  5  6 -1 -1</clus>
<clus scale="   87.988">  7  8 -1 -1</clus>
<clus scale="   93.524">  1  5  2 -1</clus>
<clus scale="   21.916">  1  5  2 -1</clus>
</clustering>
</event>
<event>
 9    1  0.4067873E-005  0.1102774E+03  0.7546771E-02  0.1265014E+00
          3   -1    0    0  502    0 -0.00000000000E+00  0.00000000000E+00  0.12047629895E+03  0.12047629895E+03  0.00000000000E+00 0. -1.
         21   -1    0    0  501  502  0.00000000000E+00 -0.00000000000E+00 -0.20075989343E+03  0.20075989343E+03  0.00000000000E+00 0.  1.
         23    2    1    2    0    0  0.31071448359E+02 -0.45995846203E+02  0.59268215142E+02  0.12287217637E+03  0.92216037809E+02 0.  0.
        -24    2    1    2    0    0 -0.45967692617E+02  0.67964347148E+02 -0.11439036797E+03  0.16179064765E+03  0.79742561638E+02 0.  0.
         13    1    4    4    0    0 -0.48578206517E+02  0.79180410858E+02 -0.71062040139E+02  0.11695808292E+03  0.00000000000E+00 0. -1.
        -14    1    4    4    0    0  0.26105139001E+01 -0.11216063710E+02 -0.43328327828E+02  0.44832564731E+02  0.00000000000E+00 0.  1.
        -11    1    3    3    0    0 -0.15403009178E+02 -0.19060228378E+02 -0.16827560561E+02  0.29727290357E+02  0.00000000000E+00 0.  1.
         11    1    3    3    0    0  0.46474457537E+02 -0.26935617825E+02  0.76095775703E+02  0.93144886015E+02  0.00000000000E+00 0. -1.
          4    1    1    2  501    0  0.14896244258E+02 -0.21968500945E+02 -0.25161441660E+02  0.36573368360E+02  0.00000000000E+00 0. -1.
<scales pt_clust_5="13000.00000" pt_clust_6="13000.00000" pt_clust_7="13000.00000" pt_clust_8="13000.00000" pt_clust_9="26.54267"></scales>
<clustering>
<clus scale="   26.543">  2  9  1 -1</clus>
<clus scale="   79.743">  5  6 -1 -1</clus>
<clus scale="   92.216">  7  8 -1 -1</clus>
<clus scale="  100.081">  2  5  1 -1</clus>
<clus scale="   26.543">  2  5  1 -1</clus>
</clustering>
</event>
<event>
 9    1  0.4067873E-005  0.9849297E+02  0.7546771E-02  0.1289137E+00
         -2   -1    0    0    0  501 -0.00000000000E+00  0.00000000000E+00  0.43669404652E+03  0.43669404652E+03  0.00000000000E+00 0.  1.
         21   -1    0    0  501  502  0.00000000000E+00 -0.00000000000E+00 -0.42322257353E+02  0.42322257353E+02  0.00000000000E+00 0. -1.
        -24    2    1    2    0    0  0.40180685879E+02  0.90017604092E+01  0.31687677149E+03  0.32900213558E+03  0.78332609427E+02 0.  0.
         23    2    1    2    0    0 -0.33765046573E+02 -0.34433203724E+02  0.67412041382E+02  0.12191461051E+03  0.89403943106E+02 0.  0.
         13    1    3    3    0    0 -0.15686574760E+02 -0.20030722021E+02  0.98174028821E+02  0.10141715036E+03  0.00000000000E+00 0. -1.
        -14    1    3    3    0    0  0.55867260638E+02  0.29032482430E+02  0.21870274267E+03  0.22758498522E+03  0.00000000000E+00 0.  1.
        -11    1    4    4    0    0 -0.56802996997E+02 -0.35090523409E+02  0.72237458123E+02  0.98367553883E+02  0.00000000000E+00 0.  1.
         11    1    4    4    0    0  0.23037950424E+02  0.65731968536E+00 -0.48254167409E+01  0.23547056623E+02  0.00000000000E+00 0. -1.
         -1    1    1    2    0  502 -0.64156393055E+01  0.25431443314E+02  0.10082976297E+02  0.28099557786E+02  0.00000000000E+00 0.  1.
<scales pt_clust_5="13000.00000" pt_clust_6="13000.00000" pt_clust_7="13000.00000" pt_clust_8="13000.00000" pt_clust_9="26.22820"></scales>
<clustering>
<clus scale="   26.228">  2  9  1 -1</clus>
<clus scale="   78.333">  5  6 -1 -1</clus>
<clus scale="   88.565">  1  5  2 -1</clus>
<clus scale="   89.404">  7  8 -1 -1</clus>
<clus scale="   26.228">  2  5  1 -1</clus>
</clustering>
</event>
<event>
 9    1  0.4067873E-005  0.1546028E+03  0.7546771E-02  0.1213183E+00
          1   -1    0    0  502    0 -0.00000000000E+00  0.00000000000E+00  0.78928977791E+03  0.78928977791E+03  0.00000000000E+00 0. -1.
         21   -1    0    0  501  502  0.00000000000E+00 -0.00000000000E+00 -0.44412499800E+03  0.44412499800E+03  0.00000000000E+00 0. -1.
        -24    2    1    2    0    0  0.63050538668E+02  0.21534195408E+02  0.65348554916E+03  0.66175371083E+03  0.80221685580E+02 0.  0.
         23    2    1    2    0    0 -0.18354648733E+03  0.42606997199E+01  0.35717858114E+02  0.20621992428E+03  0.86852894077E+02 0.  0.
         13    1    3    3    0    0  0.41879386375E+02  0.44718075688E+02  0.26448824407E+03  0.27149147417E+03  0.00000000000E+00 0. -1.
        -14    1    3    3    0    0  0.21171152293E+02 -0.23183880280E+02  0.38899730509E+03  0.39026223666E+03  0.00000000000E+00 0.  1.
        -11    1    4    4    0    0 -0.12744627888E+03 -0.17488033356E+02  0.59229279955E+02  0.14162094801E+03  0.00000000000E+00 0. -1.
         11    1    4    4    0    0 -0.56100208455E+02  0.21748733076E+02 -0.23511421841E+02  0.64598976278E+02  0.00000000000E+00 0.  1.
          2    1    1    2  501    0  0.12049594866E+03 -0.25794895127E+02 -0.34403862737E+03  0.36544114079E+03  0.00000000000E+00 0. -1.
<scales pt_clust_5="13000.00000" pt_clust_6="13000.00000" pt_clust_7="13000.00000" pt_clust_8="13000.00000" pt_clust_9="127.90075"></scales>
<clustering>
<clus scale="   80.222">  5  6 -1 -1</clus>
<clus scale="   86.853">  7  8 -1 -1</clus>
<clus scale="  104.281">  1  5  2 -1</clus>
<clus scale="  127.901">  2  9  1 -1</clus>
<clus scale="  127.901">  2  5  1 -1</clus>
</clustering>
</event>
<event>
 9    1  0.4067873E-005  0.1098043E+03  0.7546771E-02  0.1264443E+00
          1   -1    0    0  502    0 -0.00000000000E+00  0.00000000000E+00  0.94667345151E+02  0.94667345151E+02  0.00000000000E+00 0. -1.
         21   -1    0    0  501  502  0.00000000000E+00 -0.00000000000E+00 -0.29370071481E+03  0.29370071481E+03  0.00000000000E+00 0. -1.
        -24    2    1    2    0    0  0.56914682587E+01 -0.55099696638E+02  0.20722909211E+02  0.99823155527E+02  0.80416752189E+02 0.  0.
         23    2    1    2    0    0 -0.19441536211E+02  0.10232238540E+03 -0.17052030374E+03  0.21895160052E+03  0.89525334388E+02 0.  0.
         11    1    3    3    0    0  0.26250465574E+02 -0.67814866757E+02  0.20854377377E+02  0.75649508603E+02  0.00000000000E+00 0. -1.
        -12    1    3    3    0    0 -0.20558997315E+02  0.12715170118E+02 -0.13146816602E+00  0.24173646924E+02  0.00000000000E+00 0.  1.
        -13    1    4    4    0    0 -0.26654311656E+02  0.26548287103E+02 -0.12437419661E+03  0.12993923449E+03  0.00000000000E+00 0.  1.
         13    1    4    4    0    0  0.72127754446E+01  0.75774098299E+02 -0.46146107135E+02  0.89012366031E+02  0.00000000000E+00 0. -1.
          2    1    1    2  501    0  0.13750067952E+02 -0.47222688764E+02 -0.49235975131E+02  0.69593303916E+02  0.00000000000E+00 0. -1.
<scales pt_clust_5="13000.00000" pt_clust_6="13000.00000" pt_clust_7="13000.00000" pt_clust_8="13000.00000" pt_clust_9="49.18381"></scales>
<clustering>
<clus scale="   49.184">  2  9  1 -1</clus>
<clus scale="   80.417">  5  6 -1 -1</clus>
<clus scale="   89.525">  7  8 -1 -1</clus>
<clus scale="  102.514">  1  5  2 -1</clus>
<clus scale="   49.184">  2  5  1 -1</clus>
</clustering>
</event>
<event>
 9    1  0.4067873E-005  0.1247287E+03  0.7546771E-02  0.1238170E+00
         21   -1    0    0  501  502  0.00000000000E+00  0.00000000000E+00  0.34059160480E+03  0.34059160480E+03  0.00000000000E+00 0.  1.
          1   -1    0    0  502    0 -0.00000000000E+00 -0.00000000000E+00 -0.96035080915E+02  0.96035080915E+02  0.00000000000E+00 0. -1.
         23    2    1    2    0    0  0.49597665155E+02  0.96707051412E+02  0.63057840133E+02  0.15440985273E+03  0.89743686333E+02 0.  0.
        -24    2    1    2    0    0  0.45004023715E+02 -0.75066349869E+02  0.92371133494E+02  0.15045371327E+03  0.80271878650E+02 0.  0.
         11    1    4    4    0    0  0.47682785854E+02 -0.90203527360E+02  0.71749956801E+02  0.12473323822E+03  0.00000000000E+00 0. -1.
        -12    1    4    4    0    0 -0.26787621393E+01  0.15137177492E+02  0.20621176693E+02  0.25720475058E+02  0.00000000000E+00 0.  1.
        -13    1    3    3    0    0  0.23016700105E+02  0.35843569436E+02  0.75643823603E+02  0.86813121145E+02  0.00000000000E+00 0.  1.
         13    1    3    3    0    0  0.26580965050E+02  0.60863481976E+02 -0.12585983470E+02  0.67596731586E+02  0.00000000000E+00 0. -1.
          2    1    1    2  501    0 -0.94601688870E+02 -0.21640701544E+02  0.89127550258E+02  0.13176311971E+03  0.00000000000E+00 0. -1.
<scales pt_clust_5="13000.00000" pt_clust_6="13000.00000" pt_clust_7="13000.00000" pt_clust_8="13000.00000" pt_clust_9="97.04535"></scales>
<clustering>
<clus scale="   80.272">  5  6 -1 -1</clus>
<clus scale="   89.744">  7  8 -1 -1</clus>
<clus scale="   97.045">  1  9  2 -1</clus>
<clus scale="  118.097">  1  5  2 -1</clus>
<clus scale="   97.045">  1  5  2 -1</clus>
</clustering>
</event>
<event>
 9    1  0.4067873E-005  0.2143650E+03  0.7546771E-02  0.1139968E+00
         -2   -1    0    0    0  501 -0.00000000000E+00  0.00000000000E+00  0.58301957777E+03  0.58301957777E+03  0.00000000000E+00 0.  1.
         21   -1    0    0  501  502  0.00000000000E+00 -0.00000000000E+00 -0.13297770604E+03  0.13297770604E+03  0.00000000000E+00 0. -1.
        -24    2    1    2    0    0 -0.13121364739E+02 -0.18639879967E+03  0.14723150161E+03  0.25009792829E+03  0.77169786441E+02 0.  0.
         23    2    1    2    0    0 -0.85436165757E+02  0.18987243775E+03  0.12424278224E+03  0.26190907041E+03  0.99041461969E+02 0.  0.
         13    1    3    3    0    0  0.75386449639E+01 -0.14241118851E+03  0.70038172321E+02  0.15888084644E+03  0.00000000000E+00 0. -1.
        -14    1    3    3    0    0 -0.20660009703E+02 -0.43987611154E+02  0.77193329285E+02  0.91217081854E+02  0.00000000000E+00 0.  1.
        -13    1    4    4    0    0 -0.20829225474E+02 -0.34642481147E+01  0.31583932464E+02  0.37992136539E+02  0.00000000000E+00 0. -1.
         13    1    4    4    0    0 -0.64606940283E+02  0.19333668586E+03  0.92658849777E+02  0.22391693387E+03  0.00000000000E+00 0.  1.
         -1    1    1    2    0  502  0.98557530496E+02 -0.34736380771E+01  0.17856758788E+03  0.20399028511E+03  0.00000000000E+00 0.  1.
<scales pt_clust_5="13000.00000" pt_clust_6="13000.00000" pt_clust_7="13000.00000" pt_clust_8="13000.00000" pt_clust_9="98.61877"></scales>
<clustering>
<clus scale="   77.170">  5  6 -1 -1</clus>
<clus scale="   98.619">  2  9  1 -1</clus>
<clus scale="   99.041">  7  8 -1 -1</clus>
<clus scale="  205.179">  1  5  2 -1</clus>
<clus scale="   98.619">  2  5  1 -1</clus>
</clustering>
</event>
<event>
 9    1  0.4067873E-005  0.1009005E+03  0.7546771E-02  0.1283589E+00
         21   -1    0    0  501  502  0.00000000000E+00  0.00000000000E+00  0.68924291791E+03  0.68924291791E+03  0.00000000000E+00 0.  1.
         -2   -1    0    0    0  501 -0.00000000000E+00 -0.00000000000E+00 -0.23661001383E+02  0.23661001383E+02  0.00000000000E+00 0.  1.
        -24    2    1    2    0    0  0.66092554107E+01  0.24149244542E+02  0.15263550408E+03  0.17617766965E+03  0.84345159366E+02 0.  0.
         23    2    1    2    0    0  0.19613842401E+02 -0.59463403197E+02  0.34702006201E+03  0.36506875802E+03  0.94507542093E+02 0.  0.
         11    1    3    3    0    0  0.13765106007E+02  0.46910975739E+02  0.14176482571E+03  0.14995793942E+03  0.00000000000E+00 0. -1.
        -12    1    3    3    0    0 -0.71558505961E+01 -0.22761731197E+02  0.10870678370E+02  0.26219730225E+02  0.00000000000E+00 0.  1.
        -11    1    4    4    0    0  0.40995704881E+02 -0.65206519193E+02  0.32439412951E+03  0.33341279104E+03  0.00000000000E+00 0.  1.
         11    1    4    4    0    0 -0.21381862480E+02  0.57431159958E+01  0.22625932497E+02  0.31655966985E+02  0.00000000000E+00 0. -1.
         -1    1    1    2    0  502 -0.26223097812E+02  0.35314158655E+02  0.16592635044E+03  0.17165749162E+03  0.00000000000E+00 0.  1.
<scales pt_clust_5="13000.00000" pt_clust_6="13000.00000" pt_clust_7="13000.00000" pt_clust_8="13000.00000" pt_clust_9="43.98569"></scales>
<clustering>
<clus scale="   43.986">  1  9  2 -1</clus>
<clus scale="   84.345">  5  6 -1 -1</clus>
<clus scale="   91.451">  2  5  1 -1</clus>
<clus scale="   94.508">  7  8 -1 -1</clus>
<clus scale="   43.986">  1  5  2 -1</clus>
</clustering>
</event>
<event>
 9    1  0.4067873E-005  0.1391865E+03  0.7546771E-02  0.1226333E+00
          1   -1    0    0  502    0 -0.00000000000E+00  0.00000000000E+00  0.41678469392E+03  0.41678469392E+03  0.00000000000E+00 0. -1.
         21   -1    0    0  501  502  0.00000000000E+00 -0.00000000000E+00 -0.10253438037E+03  0.10253438037E+03  0.00000000000E+00 0. -1.
        -24    2    1    2    0    0  0.62729255219E+02  0.47028784462E+02  0.21420206694E+03  0.24007689191E+03  0.74884728215E+02 0.  0.
         23    2    1    2    0    0  0.65073717785E+02 -0.44412196090E+02  0.92707816091E+02  0.15120184356E+03  0.89778763767E+02 0.  0.
         11    1    3    3    0    0  0.64324617467E+02  0.17396171393E+02  0.87715257474E+02  0.11015556992E+03  0.00000000000E+00 0. -1.
        -12    1    3    3    0    0 -0.15953622479E+01  0.29632613069E+02  0.12648680947E+03  0.12992132199E+03  0.00000000000E+00 0.  1.
        -11    1    4    4    0    0  0.31334363961E+02  0.20600331197E+02  0.64655968581E+01  0.38052857356E+02  0.00000000000E+00 0. -1.
         11    1    4    4    0    0  0.33739353824E+02 -0.65012527286E+02  0.86242219233E+02  0.11314898620E+03  0.00000000000E+00 0.  1.
          2    1    1    2  501    0 -0.12780297300E+03 -0.26165883720E+01  0.73404305207E+01  0.12804033881E+03  0.00000000000E+00 0. -1.
<scales pt_clust_5="13000.00000" pt_clust_6="13000.00000" pt_clust_7="13000.00000" pt_clust_8="13000.00000" pt_clust_9="106.36097"></scales>
<clustering>
<clus scale="   74.885">  5  6 -1 -1</clus>
<clus scale="   89.779">  7  8 -1 -1</clus>
<clus scale="  108.418">  1  5  2 -1</clus>
<clus scale="  106.361">  2  9  1 -1</clus>
<clus scale="  106.361">  2  5  1 -1</clus>
</clustering>
</event>
<event>
 9    1  0.4067873E-005  0.1263469E+03  0.7546771E-02  0.1256486E+00
          3   -1    0    0  502    0 -0.00000000000E+00  0.00000000000E+00  0.24414233517E+03  0.24414233517E+03  0.00000000000E+00 0. -1.
         21   -1    0    0  501  502  0.00000000000E+00 -0.00000000000E+00 -0.20602612934E+03  0.20602612934E+03  0.00000000000E+00 0.  1.
        -24    2    1    2    0    0 -0.36640664929E+00  0.22656835660E+01  0.15583079453E+03  0.17456377397E+03  0.78638458039E+02 0.  0.
         23    2    1    2    0    0 -0.30584263672E+02 -0.85480302787E+02 -0.13493467517E+03  0.18516604712E+03  0.88525810328E+02 0.  0.
         11    1    3    3    0    0 -0.34410138046E+02  0.61540723232E+01  0.11999337332E+03  0.12498135800E+03  0.00000000000E+00 0. -1.
        -12    1    3    3    0    0  0.34043731396E+02 -0.38883887573E+01  0.35837421209E+02  0.49582415970E+02  0.00000000000E+00 0.  1.
        -11    1    4    4    0    0 -0.57880781935E+02 -0.79987897070E+02 -0.10053094348E+03  0.14090677482E+03  0.00000000000E+00 0.  1.
         11    1    4    4    0    0  0.27296518262E+02 -0.54924057177E+01 -0.34403731698E+02  0.44259272300E+02  0.00000000000E+00 0. -1.
          4    1    1    2  501    0  0.30950670322E+02  0.83214619221E+02  0.17220086479E+02  0.90438643421E+02  0.00000000000E+00 0. -1.
<scales pt_clust_5="13000.00000" pt_clust_6="13000.00000" pt_clust_7="13000.00000" pt_clust_8="13000.00000" pt_clust_9="90.14833"></scales>
<clustering>
<clus scale="   78.638">  5  6 -1 -1</clus>
<clus scale="   78.672">  1  5  2 -1</clus>
<clus scale="   88.526">  7  8 -1 -1</clus>
<clus scale="   90.148">  2  9  1 -1</clus>
<clus scale="   90.148">  2  5  1 -1</clus>
</clustering>
</event>
<event>
 9    1  0.4067873E-005  0.9177190E+02  0.7546771E-02  0.1304238E+00
          1   -1    0    0  502    0 -0.00000000000E+00  0.00000000000E+00  0.15414098630E+03  0.15414098630E+03  0.00000000000E+00 0. -1.
         21   -1    0    0  501  502  0.00000000000E+00 -0.00000000000E+00 -0.23468106354E+03  0.23468106354E+03  0.00000000000E+00 0. -1.
         23    2    1    2    0    0  0.16047297611E+02  0.95393142432E+01  0.80827299535E+02  0.12225722786E+03  0.89806810082E+02 0.  0.
        -24    2    1    2    0    0  0.40592515320E+02 -0.43650972714E+02 -0.91910831121E+01  0.10064526917E+03  0.80571921156E+02 0.  0.
         11    1    4    4    0    0  0.22446387612E+02 -0.66147316266E+02  0.13919936076E+01  0.69865910230E+02  0.00000000000E+00 0. -1.
        -12    1    4    4    0    0  0.18146127708E+02  0.22496343552E+02 -0.10583076720E+02  0.30779358941E+02  0.00000000000E+00 0.  1.
        -13    1    3    3    0    0 -0.30660132088E+02  0.27692266217E+02  0.31626167611E+02  0.52029989291E+02  0.00000000000E+00 0.  1.
         13    1    3    3    0    0  0.46707429699E+02 -0.18152951974E+02  0.49201131924E+02  0.70227238569E+02  0.00000000000E+00 0. -1.
          2    1    1    2  501    0 -0.56639812930E+02  0.34111658471E+02 -0.15217629366E+03  0.16591955281E+03  0.00000000000E+00 0. -1.
<scales pt_clust_5="13000.00000" pt_clust_6="13000.00000" pt_clust_7="13000.00000" pt_clust_8="13000.00000" pt_clust_9="66.11863"></scales>
<clustering>
<clus scale="   66.119">  2  9  1 -1</clus>
<clus scale="   80.572">  5  6 -1 -1</clus>
<clus scale="   82.757">  2  5  1 -1</clus>
<clus scale="   89.807">  7  8 -1 -1</clus>
<clus scale="   66.119">  2  5  1 -1</clus>
</clustering>
</event>
<event>
 9    1  0.6788670E-005  0.9266473E+02  0.7546771E-02  0.1302807E+00
          1   -1    0    0  502    0 -0.00000000000E+00  0.00000000000E+00  0.14446124586E+03  0.14446124586E+03  0.00000000000E+00 0. -1.
         21   -1    0    0  501  502  0.00000000000E+00 -0.00000000000E+00 -0.44414844603E+03  0.44414844603E+03  0.00000000000E+00 0. -1.
        -24    2    1    2    0    0 -0.18164542581E+02  0.83094326205E+01  0.12112123892E+03  0.14674014542E+03  0.80394766512E+02 0.  0.
         23    2    1    2    0    0 -0.89990790672E+01 -0.89601747904E+01 -0.20755922181E+03  0.22689625865E+03  0.90773418330E+02 0.  0.
         13    1    3    3    0    0 -0.28678543545E+02  0.10968131285E+02  0.12946545886E+03  0.13305661878E+03  0.00000000000E+00 0. -1.
        -14    1    3    3    0    0  0.10514000964E+02 -0.26586986647E+01 -0.83442199397E+01  0.13683526638E+02  0.00000000000E+00 0.  1.
        -13    1    4    4    0    0  0.14604932681E+02  0.25193649056E+02 -0.16459214773E+03  0.16714843435E+03  0.00000000000E+00 0.  1.
         13    1    4    4    0    0 -0.23604011748E+02 -0.34153823846E+02 -0.42967074087E+02  0.59747824308E+02  0.00000000000E+00 0. -1.
          2    1    1    2  501    0  0.27163621648E+02  0.65074216992E+00 -0.21324921727E+03  0.21497328782E+03  0.00000000000E+00 0. -1.
<scales pt_clust_5="13000.00000" pt_clust_6="13000.00000" pt_clust_7="13000.00000" pt_clust_8="13000.00000" pt_clust_9="27.17142"></scales>
<clustering>
<clus scale="   27.171">  2  9  1 -1</clus>
<clus scale="   80.395">  5  6 -1 -1</clus>
<clus scale="   82.524">  1  5  2 -1</clus>
<clus scale="   90.773">  7  8 -1 -1</clus>
<clus scale="   27.171">  2  5  1 -1</clus>
</clustering>
</event>
<event>
 9    1  0.4067873E-005  0.1103916E+03  0.7546771E-02  0.1263404E+00
         21   -1    0    0  501  502  0.00000000000E+00  0.00000000000E+00  0.48061769292E+02  0.48061769292E+02  0.00000000000E+00 0. -1.
          1   -1    0    0  502    0 -0.00000000000E+00 -0.00000000000E+00 -0.49757809809E+03  0.49757809809E+03  0.00000000000E+00 0. -1.
        -24    2    1    2    0    0 -0.74311347210E+01 -0.57465070613E+02 -0.20775034090E+03  0.23667212036E+03  0.97447587496E+02 0.  0.
         23    2    1    2    0    0 -0.65324323855E+02  0.31478052181E+02 -0.13497754532E+03  0.17716314411E+03  0.88936532622E+02 0.  0.
         13    1    3    3    0    0 -0.27121550522E+02 -0.76931543991E+02 -0.17924147042E+03  0.19693030666E+03  0.00000000000E+00 0. -1.
        -14    1    3    3    0    0  0.19690415801E+02  0.19466473379E+02 -0.28508870485E+02  0.39741813705E+02  0.00000000000E+00 0.  1.
        -13    1    4    4    0    0 -0.69980711909E+02  0.69486391984E+01 -0.44308686653E+02  0.83119452230E+02  0.00000000000E+00 0. -1.
         13    1    4    4    0    0  0.46563880542E+01  0.24529412983E+02 -0.90668858664E+02  0.94043691880E+02  0.00000000000E+00 0.  1.
          2    1    1    2  501    0  0.72755458576E+02  0.25987018431E+02 -0.10678844258E+03  0.13180460291E+03  0.00000000000E+00 0. -1.
<scales pt_clust_5="13000.00000" pt_clust_6="13000.00000" pt_clust_7="13000.00000" pt_clust_8="13000.00000" pt_clust_9="77.25724"></scales>
<clustering>
<clus scale="   77.257">  1  9  2 -1</clus>
<clus scale="   88.937">  7  8 -1 -1</clus>
<clus scale="   97.448">  5  6 -1 -1</clus>
<clus scale="  102.956">  1  7  2 -1</clus>
<clus scale="   77.257">  1  5  2 -1</clus>
</clustering>
</event>
<event>
 9    1  0.4067873E-005  0.1317748E+03  0.7546771E-02  0.1227960E+00
         -2   -1    0    0    0  501 -0.00000000000E+00  0.00000000000E+00  0.24129136876E+03  0.24129136876E+03  0.00000000000E+00 0.  1.
         21   -1    0    0  501  502  0.00000000000E+00 -0.00000000000E+00 -0.10413588342E+03  0.10413588342E+03  0.00000000000E+00 0. -1.
         23    2    1    2    0    0  0.72263380925E+02  0.59295802533E+02  0.91081803240E+02  0.15995800616E+03  0.92480703020E+02 0.  0.
        -24    2    1    2    0    0 -0.89020572302E+02 -0.38671706341E+02 -0.69613401496E+01  0.12614917866E+03  0.80280706628E+02 0.  0.
         11    1    4    4    0    0 -0.25866031275E+02 -0.12820106548E+02 -0.40799047268E+02  0.49979685511E+02  0.00000000000E+00 0. -1.
        -12    1    4    4    0    0 -0.63154541027E+02 -0.25851599793E+02  0.33837707118E+02  0.76169493153E+02  0.00000000000E+00 0.  1.
        -13    1    3    3    0    0  0.79905070166E+02  0.88917731149E+01  0.52451259563E+02  0.95994887870E+02  0.00000000000E+00 0.  1.
         13    1    3    3    0    0 -0.76416892417E+01  0.50404029418E+02  0.38630543677E+02  0.63963118285E+02  0.00000000000E+00 0. -1.
         -1    1    1    2    0  502  0.16757191377E+02 -0.20624096192E+02  0.53035022250E+02  0.59320067360E+02  0.00000000000E+00 0.  1.
<scales pt_clust_5="13000.00000" pt_clust_6="13000.00000" pt_clust_7="13000.00000" pt_clust_8="13000.00000" pt_clust_9="26.57362"></scales>
<clustering>
<clus scale="   26.574">  2  9  1 -1</clus>
<clus scale="   80.281">  5  6 -1 -1</clus>
<clus scale="   92.481">  7  8 -1 -1</clus>
<clus scale="  123.519">  2  5  1 -1</clus>
<clus scale="   26.574">  2  5  1 -1</clus>
</clustering>
</event>
<event>
 9    1  0.4067873E-005  0.1703579E+03  0.7546771E-02  0.1204037E+00
         21   -1    0    0  501  502  0.00000000000E+00  0.00000000000E+00  0.14609030841E+04  0.14609030841E+04  0.00000000000E+00 0. -1.
          3   -1    0    0  502    0 -0.00000000000E+00 -0.00000000000E+00 -0.44548732079E+02  0.44548732079E+02  0.00000000000E+00 0. -1.
         23    2    1    2    0    0 -0.10727044906E+02 -0.16613314211E+02  0.12917904395E+03  0.16022962341E+03  0.92710490891E+02 0.  0.
        -24    2    1    2    0    0 -0.15497881777E+02 -0.13613132284E+03  0.24354599637E+03  0.29014835119E+03  0.78099244274E+02 0.  0.
         11    1    4    4    0    0  0.28239963820E+02 -0.37508200185E+02  0.50168435933E+02  0.68711226168E+02  0.00000000000E+00 0. -1.
        -12    1    4    4    0    0 -0.43737845597E+02 -0.98623122654E+02  0.19337756043E+03  0.22143712502E+03  0.00000000000E+00 0.  1.
        -11    1    3    3    0    0  0.66922488881E+01 -0.32767002721E+02  0.13212429545E+03  0.13629120335E+03  0.00000000000E+00 0. -1.
         11    1    3    3    0    0 -0.17419293794E+02  0.16153688510E+02 -0.29452514969E+01  0.23938420064E+02  0.00000000000E+00 0.  1.
          4    1    1    2  501    0  0.26224926684E+02  0.15274463705E+03  0.10436293117E+04  0.10550738416E+04  0.00000000000E+00 0. -1.
<scales pt_clust_5="13000.00000" pt_clust_6="13000.00000" pt_clust_7="13000.00000" pt_clust_8="13000.00000" pt_clust_9="151.40119"></scales>
<clustering>
<clus scale="   78.099">  5  6 -1 -1</clus>
<clus scale="   92.710">  7  8 -1 -1</clus>
<clus scale="   94.796">  2  7  1 -1</clus>
<clus scale="  151.401">  1  9  2 -1</clus>
<clus scale="  151.401">  1  5  2 -1</clus>
</clustering>
</event>
<event>
 9    1  0.4067873E-005  0.1125762E+03  0.7546771E-02  0.1259606E+00
         21   -1    0    0  501  502  0.00000000000E+00  0.00000000000E+00  0.40985015051E+02  0.40985015051E+02  0.00000000000E+00 0. -1.
          1   -1    0    0  502    0 -0.00000000000E+00 -0.00000000000E+00 -0.79822640909E+03  0.79822640909E+03  0.00000000000E+00 0. -1.
        -24    2    1    2    0    0  0.15921451707E+02 -0.57495538924E+02 -0.24405890703E+03  0.26356176565E+03  0.79629294807E+02 0.  0.
         23    2    1    2    0    0  0.60048160408E+02  0.94724852604E+02 -0.17203367640E+03  0.22416720552E+03  0.89870857054E+02 0.  0.
         11    1    3    3    0    0  0.26978970799E+02 -0.15918878431E+01 -0.23674649299E+02  0.35928929732E+02  0.00000000000E+00 0. -1.
        -12    1    3    3    0    0 -0.11057519092E+02 -0.55903651081E+02 -0.22038425773E+03  0.22763283592E+03  0.00000000000E+00 0.  1.
        -13    1    4    4    0    0  0.43951625787E+02  0.48527109779E+02 -0.26501783330E+02  0.70632643392E+02  0.00000000000E+00 0. -1.
         13    1    4    4    0    0  0.16096534621E+02  0.46197742824E+02 -0.14553189307E+03  0.15353456213E+03  0.00000000000E+00 0.  1.
          2    1    1    2  501    0 -0.75969612115E+02 -0.37229313680E+02 -0.34114881062E+03  0.35148245297E+03  0.00000000000E+00 0. -1.
<scales pt_clust_5="13000.00000" pt_clust_6="13000.00000" pt_clust_7="13000.00000" pt_clust_8="13000.00000" pt_clust_9="84.60148"></scales>
<clustering>
<clus scale="   79.629">  5  6 -1 -1</clus>
<clus scale="   84.601">  1  9  2 -1</clus>
<clus scale="   89.871">  7  8 -1 -1</clus>
<clus scale="  104.582">  2  5  1 -1</clus>
<clus scale="   84.601">  1  5  2 -1</clus>
</clustering>
</event>
<event>
 9    1  0.4067873E-005  0.1447551E+03  0.7546771E-02  0.1210216E+00
         -2   -1    0    0    0  501 -0.00000000000E+00  0.00000000000E+00  0.20374190208E+03  0.20374190208E+03  0.00000000000E+00 0.  1.
         21   -1    0    0  501  502  0.00000000000E+00 -0.00000000000E+00 -0.29173560443E+03  0.29173560443E+03  0.00000000000E+00 0. -1.
         23    2    1    2    0    0 -0.63490381716E+01  0.11228973784E+03  0.14649531026E+03  0.20626370433E+03  0.91839775090E+02 0.  0.
        -24    2    1    2    0    0  0.39142065173E+02 -0.10509557511E+03 -0.19304519114E+03  0.23587780182E+03  0.76122995189E+02 0.  0.
         13    1    4    4    0    0  0.58787974313E+02 -0.54323866238E+02 -0.10016843592E+03  0.12822177632E+03  0.00000000000E+00 0. -1.
        -14    1    4    4    0    0 -0.19645909140E+02 -0.50771708868E+02 -0.92876755220E+02  0.10765602550E+03  0.00000000000E+00 0.  1.
        -11    1    3    3    0    0 -0.23986735319E+01  0.60264646214E+02  0.11315796001E+02  0.61364716712E+02  0.00000000000E+00 0. -1.
         11    1    3    3    0    0 -0.39503646397E+01  0.52025091624E+02  0.13517951425E+03  0.14489898762E+03  0.00000000000E+00 0.  1.
         -1    1    1    2    0  502 -0.32793027002E+02 -0.71941627325E+01 -0.41443821467E+02  0.53336000367E+02  0.00000000000E+00 0.  1.
<scales pt_clust_5="13000.00000" pt_clust_6="13000.00000" pt_clust_7="13000.00000" pt_clust_8="13000.00000" pt_clust_9="33.57288"></scales>
<clustering>
<clus scale="   33.573">  2  9  1 -1</clus>
<clus scale="   76.123">  5  6 -1 -1</clus>
<clus scale="   91.840">  7  8 -1 -1</clus>
<clus scale="  135.330">  2  5  1 -1</clus>
<clus scale="   33.573">  2  5  1 -1</clus>
</clustering>
</event>
<event>
 9    1  0.4067873E-005  0.9843811E+02  0.7546771E-02  0.1289755E+00
         21   -1    0    0  501  502  0.00000000000E+00  0.00000000000E+00  0.95573948643E+02  0.95573948643E+02  0.00000000000E+00 0.  1.
          3   -1    0    0  502    0 -0.00000000000E+00 -0.00000000000E+00 -0.39723030055E+03  0.39723030055E+03  0.00000000000E+00 0. -1.
         23    2    1    2    0    0  0.26327970316E+02  0.12404006999E+02 -0.32645419011E+03  0.34061928883E+03  0.92747723811E+02 0.  0.
        -24    2    1    2    0    0 -0.67092535018E+02 -0.21611562793E+02  0.24826767906E+02  0.11039345816E+03  0.81251949506E+02 0.  0.
         13    1    4    4    0    0 -0.26620363436E+01 -0.22504101291E+02 -0.21338247420E+02  0.31126223918E+02  0.00000000000E+00 0. -1.
        -14    1    4    4    0    0 -0.64430498674E+02  0.89253849796E+00  0.46165015326E+02  0.79267234242E+02  0.00000000000E+00 0.  1.
        -13    1    3    3    0    0  0.35867410413E+02 -0.31823526604E+02 -0.21598819125E+03  0.22124671011E+03  0.00000000000E+00 0. -1.
         13    1    3    3    0    0 -0.95394400977E+01  0.44227533603E+02 -0.11046599886E+03  0.11937257872E+03  0.00000000000E+00 0.  1.
          4    1    1    2  501    0  0.40764564702E+02  0.92075557942E+01 -0.28929698661E-01  0.41791502198E+02  0.00000000000E+00 0. -1.
<scales pt_clust_5="13000.00000" pt_clust_6="13000.00000" pt_clust_7="13000.00000" pt_clust_8="13000.00000" pt_clust_9="41.79149"></scales>
<clustering>
<clus scale="   41.791">  1  9  2 -1</clus>
<clus scale="   81.252">  5  6 -1 -1</clus>
<clus scale="   87.692">  1  5  2 -1</clus>
<clus scale="   92.748">  7  8 -1 -1</clus>
<clus scale="   41.791">  1  5  2 -1</clus>
</clustering>
</event>
<event>
 9    1  0.4067873E-005  0.1140940E+03  0.7546771E-02  0.1257529E+00
         21   -1    0    0  501  502  0.00000000000E+00  0.00000000000E+00  0.29803467926E+03  0.29803467926E+03  0.00000000000E+00 0. -1.
          3   -1    0    0  502    0 -0.00000000000E+00 -0.00000000000E+00 -0.18480527245E+03  0.18480527245E+03  0.00000000000E+00 0. -1.
         23    2    1    2    0    0 -0.50703047252E+01 -0.64957568812E+02 -0.14496763974E+03  0.18386423123E+03  0.92440495563E+02 0.  0.
        -24    2    1    2    0    0 -0.11956164337E+02  0.84000732791E+02  0.16439733154E+03  0.20175983042E+03  0.80507599509E+02 0.  0.
         11    1    4    4    0    0 -0.19029325130E+02  0.73094041243E+02  0.59745116118E+02  0.96303338365E+02  0.00000000000E+00 0. -1.
        -12    1    4    4    0    0  0.70731607928E+01  0.10906691548E+02  0.10465221542E+03  0.10545649206E+03  0.00000000000E+00 0.  1.
        -13    1    3    3    0    0 -0.26745182458E+02 -0.50597739613E+02 -0.27393327960E+02  0.63449432270E+02  0.00000000000E+00 0.  1.
         13    1    3    3    0    0  0.21674877733E+02 -0.14359829200E+02 -0.11757431178E+03  0.12041479897E+03  0.00000000000E+00 0. -1.
          4    1    1    2  501    0  0.17026469063E+02 -0.19043163979E+02  0.93799715015E+02  0.97215890059E+02  0.00000000000E+00 0. -1.
<scales pt_clust_5="13000.00000" pt_clust_6="13000.00000" pt_clust_7="13000.00000" pt_clust_8="13000.00000" pt_clust_9="25.54492"></scales>
<clustering>
<clus scale="   25.545">  1  9  2 -1</clus>
<clus scale="   80.508">  5  6 -1 -1</clus>
<clus scale="   92.440">  7  8 -1 -1</clus>
<clus scale="  104.660">  1  5  2 -1</clus>
<clus scale="   25.545">  1  5  2 -1</clus>
</clustering>
</event>
<event>
 9    1  0.4067873E-005  0.9568893E+02  0.7546771E-02  0.1297089E+00
         21   -1    0    0  501  502  0.00000000000E+00  0.00000000000E+00  0.26958767051E+03  0.26958767051E+03  0.00000000000E+00 0.  1.
          1   -1    0    0  502    0 -0.00000000000E+00 -0.00000000000E+00 -0.53162338353E+02  0.53162338353E+02  0.00000000000E+00 0. -1.
        -24    2    1    2    0    0 -0.17050729522E+01  0.27644386183E+02  0.46134596673E+02  0.95065560794E+02  0.78370533223E+02 0.  0.
         23    2    1    2    0    0  0.39325407186E+02 -0.19111576387E+02  0.15700748701E+03  0.18688563582E+03  0.91450259142E+02 0.  0.
         11    1    3    3    0    0  0.30829454734E+02 -0.24531126955E+01 -0.22602395130E+00  0.30927724261E+02  0.00000000000E+00 0. -1.
        -12    1    3    3    0    0 -0.32534527687E+02  0.30097498879E+02  0.46360620624E+02  0.64137836534E+02  0.00000000000E+00 0.  1.
        -11    1    4    4    0    0  0.13906680495E+02 -0.51786443374E+02  0.55071120967E+02  0.76863904691E+02  0.00000000000E+00 0. -1.
         11    1    4    4    0    0  0.25418726692E+02  0.32674866987E+02  0.10193636604E+03  0.11002173113E+03  0.00000000000E+00 0.  1.
          2    1    1    2  501    0 -0.37620334234E+02 -0.85328097964E+01  0.13283248477E+02  0.40798812250E+02  0.00000000000E+00 0. -1.
<scales pt_clust_5="13000.00000" pt_clust_6="13000.00000" pt_clust_7="13000.00000" pt_clust_8="13000.00000" pt_clust_9="38.57590"></scales>
<clustering>
<clus scale="   38.576">  1  9  2 -1</clus>
<clus scale="   78.371">  5  6 -1 -1</clus>
<clus scale="   83.278">  2  5  1 -1</clus>
<clus scale="   91.450">  7  8 -1 -1</clus>
<clus scale="   38.576">  1  5  2 -1</clus>
</clustering>
</event>
<event>
 9    1  0.4067873E-005  0.1218750E+03  0.7546771E-02  0.1243327E+00
         -4   -1    0    0    0  501 -0.00000000000E+00  0.00000000000E+00  0.42971987319E+03  0.42971987319E+03  0.00000000000E+00 0.  1.
         21   -1    0    0  501  502  0.00000000000E+00 -0.00000000000E+00 -0.76757554171E+02  0.76757554171E+02  0.00000000000E+00 0.  1.
         23    2    1    2    0    0  0.21813444827E+02  0.86576035481E+02  0.14443188581E+03  0.19268969753E+03  0.91090688887E+02 0.  0.
        -24    2    1    2    0    0 -0.11649916146E+02 -0.62131446297E+02 -0.14116640932E+01  0.10218309974E+03  0.80270517074E+02 0.  0.
         11    1    4    4    0    0 -0.37160899861E+02 -0.26778525455E+01  0.27136817195E+01  0.37355955900E+02  0.00000000000E+00 0. -1.
        -12    1    4    4    0    0  0.25510983715E+02 -0.59453593751E+02 -0.41253458127E+01  0.64827143837E+02  0.00000000000E+00 0.  1.
        -13    1    3    3    0    0 -0.17005469083E+02 -0.12490323923E+02  0.25923073031E+02  0.33424540173E+02  0.00000000000E+00 0. -1.
         13    1    3    3    0    0  0.38818913910E+02  0.99066359403E+02  0.11850881278E+03  0.15926515736E+03  0.00000000000E+00 0.  1.
         -3    1    1    2    0  502 -0.10163528681E+02 -0.24444589184E+02  0.20994209731E+03  0.21160463010E+03  0.00000000000E+00 0.  1.
<scales pt_clust_5="13000.00000" pt_clust_6="13000.00000" pt_clust_7="13000.00000" pt_clust_8="13000.00000" pt_clust_9="26.47331"></scales>
<clustering>
<clus scale="   26.473">  2  9  1 -1</clus>
<clus scale="   80.271">  5  6 -1 -1</clus>
<clus scale="   91.091">  7  8 -1 -1</clus>
<clus scale="  114.015">  2  5  1 -1</clus>
<clus scale="   26.473">  2  5  1 -1</clus>
</clustering>
</event>
<event>
 9    1  0.4067873E-005  0.1157913E+03  0.7546771E-02  0.1251606E+00
          1   -1    0    0  502    0 -0.00000000000E+00  0.00000000000E+00  0.26947392669E+03  0.26947392669E+03  0.00000000000E+00 0. -1.
         21   -1    0    0  501  502  0.00000000000E+00 -0.00000000000E+00 -0.12283263513E+03  0.12283263513E+03  0.00000000000E+00 0. -1.
        -24    2    1    2    0    0  0.31355354827E+02  0.83587550560E+02  0.10012900714E+03  0.15975347166E+03  0.86748583581E+02 0.  0.
         23    2    1    2    0    0  0.54596343569E+02 -0.44011556225E+02 -0.20523826008E+02  0.11658846673E+03  0.90850786067E+02 0.  0.
         11    1    3    3    0    0 -0.15853500160E+02  0.67257328232E+02  0.80478563055E+02  0.10607394015E+03  0.00000000000E+00 0. -1.
        -12    1    3    3    0    0  0.47208854987E+02  0.16330222328E+02  0.19650444080E+02  0.53679531509E+02  0.00000000000E+00 0.  1.
        -13    1    4    4    0    0 -0.18590851992E+02 -0.23196060872E+02 -0.27086325589E+02  0.40216241144E+02  0.00000000000E+00 0. -1.
         13    1    4    4    0    0  0.73187195561E+02 -0.20815495352E+02  0.65624995819E+01  0.76372225590E+02  0.00000000000E+00 0.  1.
          2    1    1    2  501    0 -0.85951698396E+02 -0.39575994335E+02  0.67036110428E+02  0.11596462342E+03  0.00000000000E+00 0. -1.
<scales pt_clust_5="13000.00000" pt_clust_6="13000.00000" pt_clust_7="13000.00000" pt_clust_8="13000.00000" pt_clust_9="94.62538"></scales>
<clustering>
<clus scale="   86.749">  5  6 -1 -1</clus>
<clus scale="   90.851">  7  8 -1 -1</clus>
<clus scale="   94.625">  2  9  1 -1</clus>
<clus scale="  112.601">  1  5  2 -1</clus>
<clus scale="   94.625">  2  5  1 -1</clus>
</clustering>
</event>
<event>
 9    1  0.4067873E-005  0.1014465E+03  0.7546771E-02  0.1282637E+00
         -2   -1    0    0    0  501 -0.00000000000E+00  0.00000000000E+00  0.28091511967E+02  0.28091511967E+02  0.00000000000E+00 0.  1.
         21   -1    0    0  501  502  0.00000000000E+00 -0.00000000000E+00 -0.62410727259E+03  0.62410727259E+03  0.00000000000E+00 0.  1.
         23    2    1    2    0    0 -0.42575585613E+02 -0.32300721707E+02 -0.24709051216E+03  0.26906419677E+03  0.92118421972E+02 0.  0.
        -24    2    1    2    0    0  0.85689978905E+01  0.31673575513E+02 -0.33522066223E+03  0.34646502269E+03  0.81169430527E+02 0.  0.
         11    1    4    4    0    0  0.11630322695E+01  0.58741416375E+02 -0.20489280566E+03  0.21315010780E+03  0.00000000000E+00 0. -1.
        -12    1    4    4    0    0  0.74059656210E+01 -0.27067840862E+02 -0.13032785657E+03  0.13331491490E+03  0.00000000000E+00 0.  1.
        -13    1    3    3    0    0 -0.12323506566E+02  0.32622447648E+02 -0.80877215122E+02  0.88075063613E+02  0.00000000000E+00 0. -1.
         13    1    3    3    0    0 -0.30252079047E+02 -0.64923169354E+02 -0.16621329704E+03  0.18098913315E+03  0.00000000000E+00 0.  1.
         -1    1    1    2    0  502  0.34006587723E+02  0.62714619315E+00 -0.13704586228E+02  0.36669565099E+02  0.00000000000E+00 0.  1.
<scales pt_clust_5="13000.00000" pt_clust_6="13000.00000" pt_clust_7="13000.00000" pt_clust_8="13000.00000" pt_clust_9="34.01239"></scales>
<clustering>
<clus scale="   34.012">  2  9  1 -1</clus>
<clus scale="   81.169">  5  6 -1 -1</clus>
<clus scale="   91.619">  2  5  1 -1</clus>
<clus scale="   92.118">  7  8 -1 -1</clus>
<clus scale="   34.012">  2  5  1 -1</clus>
</clustering>
</event>
<event>
 9    1  0.4067873E-005  0.9894582E+02  0.7546771E-02  0.1292103E+00
         21   -1    0    0  501  502  0.00000000000E+00  0.00000000000E+00  0.12811468786E+03  0.12811468786E+03  0.00000000000E+00 0.  1.
          3   -1    0    0  502    0 -0.00000000000E+00 -0.00000000000E+00 -0.27623184447E+03  0.27623184447E+03  0.00000000000E+00 0. -1.
         23    2    1    2    0    0  0.19296354133E+01 -0.25354892121E+02 -0.21554360367E+03  0.23692249216E+03  0.95008568895E+02 0.  0.
        -24    2    1    2    0    0  0.94728225360E+01  0.51097579034E+02  0.91103340215E+02  0.13063685155E+03  0.77881136582E+02 0.  0.
         13    1    4    4    0    0 -0.32654666135E+02  0.20878388452E+02  0.23085639449E+02  0.45112981209E+02  0.00000000000E+00 0. -1.
        -14    1    4    4    0    0  0.42127488671E+02  0.30219190583E+02  0.68017700766E+02  0.85523870344E+02  0.00000000000E+00 0.  1.
        -13    1    3    3    0    0 -0.15262522215E+02  0.33579713578E+02 -0.85449171961E+02  0.93070418164E+02  0.00000000000E+00 0.  1.
         13    1    3    3    0    0  0.17192157629E+02 -0.58934605699E+02 -0.13009443171E+03  0.14385207400E+03  0.00000000000E+00 0. -1.
          4    1    1    2  501    0 -0.11402457949E+02 -0.25742686914E+02 -0.23676893154E+02  0.36787188616E+02  0.00000000000E+00 0. -1.
<scales pt_clust_5="13000.00000" pt_clust_6="13000.00000" pt_clust_7="13000.00000" pt_clust_8="13000.00000" pt_clust_9="28.15498"></scales>
<clustering>
<clus scale="   28.155">  1  9  2 -1</clus>
<clus scale="   77.881">  5  6 -1 -1</clus>
<clus scale="   82.638">  1  5  2 -1</clus>
<clus scale="   95.009">  7  8 -1 -1</clus>
<clus scale="   28.155">  1  5  2 -1</clus>
</clustering>
</event>
<event>
 9    1  0.4067873E-005  0.9573478E+02  0.7546771E-02  0.1293759E+00
          1   -1    0    0  502    0 -0.00000000000E+00  0.00000000000E+00  0.12802950473E+03  0.12802950473E+03  0.00000000000E+00 0. -1.
         21   -1    0    0  501  502  0.00000000000E+00 -0.00000000000E+00 -0.17760998581E+03  0.17760998581E+03  0.00000000000E+00 0.  1.
        -24    2    1    2    0    0 -0.40463667966E+01 -0.24169955537E+02  0.53376118860E+02  0.10114302375E+03  0.82342828188E+02 0.  0.
         23    2    1    2    0    0 -0.92847096103E+01  0.51481012136E+02 -0.76653211693E+01  0.10447627272E+03  0.90111231102E+02 0.  0.
         13    1    3    3    0    0  0.19293958308E+02 -0.34322753200E+02 -0.27961830085E+01  0.39473115582E+02  0.00000000000E+00 0. -1.
        -14    1    3    3    0    0 -0.23340325104E+02  0.10152797662E+02  0.56172301869E+02  0.61669908169E+02  0.00000000000E+00 0.  1.
        -11    1    4    4    0    0  0.27185632153E+02 -0.68420679980E+00  0.21302643833E+02  0.34544599705E+02  0.00000000000E+00 0. -1.
         11    1    4    4    0    0 -0.36470341764E+02  0.52165218936E+02 -0.28967965002E+02  0.69931673020E+02  0.00000000000E+00 0.  1.
          2    1    1    2  501    0  0.13331076407E+02 -0.27311056599E+02 -0.95291278771E+02  0.10002019406E+03  0.00000000000E+00 0. -1.
<scales pt_clust_5="13000.00000" pt_clust_6="13000.00000" pt_clust_7="13000.00000" pt_clust_8="13000.00000" pt_clust_9="30.39098"></scales>
<clustering>
<clus scale="   30.391">  2  9  1 -1</clus>
<clus scale="   82.343">  5  6 -1 -1</clus>
<clus scale="   88.462">  1  5  2 -1</clus>
<clus scale="   90.111">  7  8 -1 -1</clus>
<clus scale="   30.391">  2  5  1 -1</clus>
</clustering>
</event>
<event>
 9    1  0.4067873E-005  0.9596532E+02  0.7546771E-02  0.1294793E+00
          1   -1    0    0  502    0 -0.00000000000E+00  0.00000000000E+00  0.24423263899E+03  0.24423263899E+03  0.00000000000E+00 0. -1.
         21   -1    0    0  501  502  0.00000000000E+00 -0.00000000000E+00 -0.84204535306E+02  0.84204535306E+02  0.00000000000E+00 0. -1.
         23    2    1    2    0    0  0.38574643492E+02 -0.22237963509E+02  0.10669819414E+03  0.14795861429E+03  0.92329392772E+02 0.  0.
        -24    2    1    2    0    0 -0.14197132626E+02 -0.27118630399E+02  0.80603283726E+02  0.11904425902E+03  0.82083296528E+02 0.  0.
         11    1    4    4    0    0 -0.21154679275E+01  0.20260986884E+02  0.64382072499E+02  0.67528024207E+02  0.00000000000E+00 0. -1.
        -12    1    4    4    0    0 -0.12081664698E+02 -0.47379617283E+02  0.16221211228E+02  0.51516234814E+02  0.00000000000E+00 0.  1.
        -11    1    3    3    0    0  0.23083886991E+02  0.25253683292E+02  0.88346302227E+02  0.94740083785E+02  0.00000000000E+00 0.  1.
         11    1    3    3    0    0  0.15490756501E+02 -0.47491646801E+02  0.18351891914E+02  0.53218530510E+02  0.00000000000E+00 0. -1.
          2    1    1    2  501    0 -0.24377510866E+02  0.49356593908E+02 -0.27273374179E+02  0.61434300984E+02  0.00000000000E+00 0. -1.
<scales pt_clust_5="13000.00000" pt_clust_6="13000.00000" pt_clust_7="13000.00000" pt_clust_8="13000.00000" pt_clust_9="55.04849"></scales>
<clustering>
<clus scale="   55.048">  2  9  1 -1</clus>
<clus scale="   82.083">  5  6 -1 -1</clus>
<clus scale="   86.153">  2  5  1 -1</clus>
<clus scale="   92.329">  7  8 -1 -1</clus>
<clus scale="   55.048">  2  5  1 -1</clus>
</clustering>
</event>
<event>
 9    1  0.4067873E-005  0.1133132E+03  0.7546771E-02  0.1271012E+00
          1   -1    0    0  502    0 -0.00000000000E+00  0.00000000000E+00  0.38088675699E+03  0.38088675699E+03  0.00000000000E+00 0. -1.
         21   -1    0    0  501  502  0.00000000000E+00 -0.00000000000E+00 -0.83161499670E+02  0.83161499670E+02  0.00000000000E+00 0.  1.
        -24    2    1    2    0    0 -0.10540440277E+01  0.23044980074E+02  0.18493154731E+02  0.84171995500E+02  0.78808285980E+02 0.  0.
         23    2    1    2    0    0 -0.52328105435E+02  0.54724289810E+02  0.31775597063E+02  0.11505096904E+03  0.80585720787E+02 0.  0.
         11    1    3    3    0    0  0.38746213778E+02  0.87936262727E+01  0.67944707769E+01  0.40308333856E+02  0.00000000000E+00 0. -1.
        -12    1    3    3    0    0 -0.39800257806E+02  0.14251353801E+02  0.11698683954E+02  0.43863661644E+02  0.00000000000E+00 0.  1.
        -11    1    4    4    0    0 -0.22046356176E+02  0.70922425928E+02  0.11457045773E+02  0.75148494449E+02  0.00000000000E+00 0.  1.
         11    1    4    4    0    0 -0.30281749260E+02 -0.16198136119E+02  0.20318551290E+02  0.39902474591E+02  0.00000000000E+00 0. -1.
          2    1    1    2  501    0  0.53382149463E+02 -0.77769269883E+02  0.24745650553E+03  0.26482529212E+03  0.00000000000E+00 0. -1.
<scales pt_clust_5="13000.00000" pt_clust_6="13000.00000" pt_clust_7="13000.00000" pt_clust_8="13000.00000" pt_clust_9="79.66075"></scales>
<clustering>
<clus scale="   78.808">  5  6 -1 -1</clus>
<clus scale="   80.586">  7  8 -1 -1</clus>
<clus scale="   82.115">  1  5  2 -1</clus>
<clus scale="   79.661">  2  9  1 -1</clus>
<clus scale="   79.661">  2  5  1 -1</clus>
</clustering>
</event>
<event>
 9    1  0.4067873E-005  0.1270319E+03  0.7546771E-02  0.1248666E+00
          1   -1    0    0  502    0 -0.00000000000E+00  0.00000000000E+00  0.39052091491E+03  0.39052091491E+03  0.00000000000E+00 0. -1.
         21   -1    0    0  501  502  0.00000000000E+00 -0.00000000000E+00 -0.92321175383E+02  0.92321175383E+02  0.00000000000E+00 0. -1.
         23    2    1    2    0    0 -0.13997867145E+02 -0.50528455179E+01  0.18098280599E+03  0.20232017125E+03  0.89203161923E+02 0.  0.
        -24    2    1    2    0    0  0.85247161999E+02  0.60818425314E+02 -0.21699988906E+01  0.13072371631E+03  0.78217783306E+02 0.  0.
         11    1    4    4    0    0  0.99199613659E+02  0.58829913377E+02 -0.76888452013E+01  0.11558823642E+03  0.00000000000E+00 0. -1.
        -12    1    4    4    0    0 -0.13952451660E+02  0.19885119373E+01  0.55188463108E+01  0.15135479895E+02  0.00000000000E+00 0.  1.
        -11    1    3    3    0    0 -0.48052493228E+01 -0.37782511876E+02  0.32725945709E+02  0.50215497083E+02  0.00000000000E+00 0.  1.
         11    1    3    3    0    0 -0.91926178223E+01  0.32729666358E+02  0.14825686028E+03  0.15210467416E+03  0.00000000000E+00 0. -1.
          2    1    1    2  501    0 -0.71249294854E+02 -0.55765579797E+02  0.11938693243E+03  0.14979820273E+03  0.00000000000E+00 0. -1.
<scales pt_clust_5="13000.00000" pt_clust_6="13000.00000" pt_clust_7="13000.00000" pt_clust_8="13000.00000" pt_clust_9="100.09542"></scales>
<clustering>
<clus scale="   78.218">  5  6 -1 -1</clus>
<clus scale="   89.203">  7  8 -1 -1</clus>
<clus scale="   90.436">  1  7  2 -1</clus>
<clus scale="  100.095">  2  9  1 -1</clus>
<clus scale="  100.095">  2  5  1 -1</clus>
</clustering>
</event>
<event>
 9    1  0.4067873E-005  0.1646607E+03  0.7546771E-02  0.1185196E+00
         21   -1    0    0  501  502  0.00000000000E+00  0.00000000000E+00  0.83131369957E+03  0.83131369957E+03  0.00000000000E+00 0.  1.
         -2   -1    0    0    0  501 -0.00000000000E+00 -0.00000000000E+00 -0.12331236831E+03  0.12331236831E+03  0.00000000000E+00 0.  1.
        -24    2    1    2    0    0 -0.12442754287E+03 -0.55333458112E+02 -0.41028579972E+02  0.16336501719E+03  0.80378973962E+02 0.  0.
         23    2    1    2    0    0  0.10520542764E+03  0.10663835786E+03  0.38536827818E+03  0.42349554687E+03  0.91650679305E+02 0.  0.
         13    1    3    3    0    0 -0.63557596484E+02 -0.60495107943E+02 -0.50967009490E+02  0.10147345570E+03  0.00000000000E+00 0. -1.
        -14    1    3    3    0    0 -0.60869946383E+02  0.51616498304E+01  0.99384295180E+01  0.61891561484E+02  0.00000000000E+00 0.  1.
        -13    1    4    4    0    0  0.10217580812E+02  0.57065491360E+02  0.72738816279E+02  0.93015077570E+02  0.00000000000E+00 0.  1.
         13    1    4    4    0    0  0.94987846823E+02  0.49572866500E+02  0.31262946190E+03  0.33048046930E+03  0.00000000000E+00 0. -1.
         -1    1    1    2    0  502  0.19222115231E+02 -0.51304899747E+02  0.36366163305E+03  0.36776550382E+03  0.00000000000E+00 0.  1.
<scales pt_clust_5="13000.00000" pt_clust_6="13000.00000" pt_clust_7="13000.00000" pt_clust_8="13000.00000" pt_clust_9="54.78761"></scales>
<clustering>
<clus scale="   54.788">  1  9  2 -1</clus>
<clus scale="   80.379">  5  6 -1 -1</clus>
<clus scale="   91.651">  7  8 -1 -1</clus>
<clus scale="  158.663">  2  5  1 -1</clus>
<clus scale="   54.788">  1  5  2 -1</clus>
</clustering>
</event>
<event>
 9    1  0.4067873E-005  0.1016584E+03  0.7546771E-02  0.1278340E+00
          1   -1    0    0  502    0 -0.00000000000E+00  0.00000000000E+00  0.37013769612E+03  0.37013769612E+03  0.00000000000E+00 0. -1.
         21   -1    0    0  501  502  0.00000000000E+00 -0.00000000000E+00 -0.40435959167E+02  0.40435959167E+02  0.00000000000E+00 0. -1.
         23    2    1    2    0    0  0.59075417792E+02  0.27433421636E+02  0.17255150364E+03  0.19966998767E+03  0.76495653208E+02 0.  0.
        -24    2    1    2    0    0 -0.39024787528E+02 -0.49832522866E+02  0.14734838680E+03  0.17928367860E+03  0.80155323871E+02 0.  0.
         13    1    4    4    0    0 -0.36808819488E+02 -0.41946976605E+02  0.15700070753E+03  0.16662430856E+03  0.00000000000E+00 0. -1.
        -14    1    4    4    0    0 -0.22159680409E+01 -0.78855462610E+01 -0.96523207362E+01  0.12659370039E+02  0.00000000000E+00 0.  1.
        -13    1    3    3    0    0  0.14615122184E+02  0.47991621446E+02  0.71160388335E+02  0.87066631917E+02  0.00000000000E+00 0.  1.
         13    1    3    3    0    0  0.44460295608E+02 -0.20558199811E+02  0.10139111530E+03  0.11260335575E+03  0.00000000000E+00 0. -1.
          2    1    1    2  501    0 -0.20050630263E+02  0.22399101231E+02  0.98018465170E+01  0.31619989011E+02  0.00000000000E+00 0. -1.
<scales pt_clust_5="13000.00000" pt_clust_6="13000.00000" pt_clust_7="13000.00000" pt_clust_8="13000.00000" pt_clust_9="30.06239"></scales>
<clustering>
<clus scale="   30.062">  2  9  1 -1</clus>
<clus scale="   76.496">  7  8 -1 -1</clus>
<clus scale="   80.155">  5  6 -1 -1</clus>
<clus scale="   98.799">  1  7  2 -1</clus>
<clus scale="   30.062">  2  5  1 -1</clus>
</clustering>
</event>
<event>
 9    1  0.4067873E-005  0.1063087E+03  0.7546771E-02  0.1272880E+00
         21   -1    0    0  501  502  0.00000000000E+00  0.00000000000E+00  0.42134948669E+03  0.42134948669E+03  0.00000000000E+00 0.  1.
         -2   -1    0    0    0  501 -0.00000000000E+00 -0.00000000000E+00 -0.72670356599E+02  0.72670356599E+02  0.00000000000E+00 0.  1.
         23    2    1    2    0    0 -0.58860476904E+02  0.45624967861E+02  0.47051221916E+02  0.12734502108E+03  0.91960553913E+02 0.  0.
        -24    2    1    2    0    0  0.46458291697E+02  0.30412723237E+02  0.62700860559E+02  0.11563363287E+03  0.79727238337E+02 0.  0.
         11    1    4    4    0    0  0.37180604639E+02 -0.22411500421E+02  0.30825468550E+02  0.53243612046E+02  0.00000000000E+00 0. -1.
        -12    1    4    4    0    0  0.92776870585E+01  0.52824223658E+02  0.31875392010E+02  0.62390020820E+02  0.00000000000E+00 0.  1.
        -13    1    3    3    0    0  0.16884514893E+02  0.37278151905E+02  0.79253966490E+01  0.41684042087E+02  0.00000000000E+00 0. -1.
         13    1    3    3    0    0 -0.75744991797E+02  0.83468159554E+01  0.39125825267E+02  0.85660978991E+02  0.00000000000E+00 0.  1.
         -1    1    1    2    0  502  0.12402185207E+02 -0.76037691098E+02  0.23892704761E+03  0.25104118934E+03  0.00000000000E+00 0.  1.
<scales pt_clust_5="13000.00000" pt_clust_6="13000.00000" pt_clust_7="13000.00000" pt_clust_8="13000.00000" pt_clust_9="77.04249"></scales>
<clustering>
<clus scale="   77.042">  1  9  2 -1</clus>
<clus scale="   79.727">  5  6 -1 -1</clus>
<clus scale="   91.961">  7  8 -1 -1</clus>
<clus scale="   95.923">  1  5  2 -1</clus>
<clus scale="   77.042">  1  5  2 -1</clus>
</clustering>
</event>
<event>
 9    1  0.4067873E-005  0.1047470E+03  0.7546771E-02  0.1274381E+00
          1   -1    0    0  502    0 -0.00000000000E+00  0.00000000000E+00  0.56147353732E+03  0.56147353732E+03  0.00000000000E+00 0. -1.
         21   -1    0    0  501  502  0.00000000000E+00 -0.00000000000E+00 -0.58708077286E+02  0.58708077286E+02  0.00000000000E+00 0.  1.
         23    2    1    2    0    0 -0.14860806964E+02 -0.47742845989E+02  0.23789316700E+03  0.25957409869E+03  0.91023792924E+02 0.  0.
        -24    2    1    2    0    0  0.52660244573E+02  0.43419005058E+02  0.15302495621E+02  0.10815439776E+03  0.82491793681E+02 0.  0.
         11    1    4    4    0    0  0.37889287091E+02  0.45471690444E+02  0.45379909197E+02  0.74582899292E+02  0.00000000000E+00 0. -1.
        -12    1    4    4    0    0  0.14770957482E+02 -0.20526853861E+01 -0.30077413576E+02  0.33571498472E+02  0.00000000000E+00 0.  1.
        -13    1    3    3    0    0 -0.44550855963E+02 -0.45269412621E+02  0.20754497178E+03  0.21704610984E+03  0.00000000000E+00 0. -1.
         13    1    3    3    0    0  0.29690049000E+02 -0.24734333684E+01  0.30348195214E+02  0.42527988842E+02  0.00000000000E+00 0.  1.
          2    1    1    2  501    0 -0.37799437610E+02  0.43238409316E+01  0.24956979742E+03  0.25245311816E+03  0.00000000000E+00 0. -1.
<scales pt_clust_5="13000.00000" pt_clust_6="13000.00000" pt_clust_7="13000.00000" pt_clust_8="13000.00000" pt_clust_9="38.04595"></scales>
<clustering>
<clus scale="   38.046">  2  9  1 -1</clus>
<clus scale="   82.492">  5  6 -1 -1</clus>
<clus scale="   91.024">  7  8 -1 -1</clus>
<clus scale="   97.424">  2  5  1 -1</clus>
<clus scale="   38.046">  2  5  1 -1</clus>
</clustering>
</event>
<event>
 9    1  0.4067873E-005  0.1049846E+03  0.7546771E-02  0.1275711E+00
          1   -1    0    0  502    0 -0.00000000000E+00  0.00000000000E+00  0.20592776189E+03  0.20592776189E+03  0.00000000000E+00 0. -1.
         21   -1    0    0  501  502  0.00000000000E+00 -0.00000000000E+00 -0.13803090184E+03  0.13803090184E+03  0.00000000000E+00 0. -1.
        -24    2    1    2    0    0 -0.11061988956E+02 -0.53690541617E+02  0.13078154471E+03  0.16284740853E+03  0.80065124546E+02 0.  0.
         23    2    1    2    0    0  0.54382349496E+02  0.13202757316E+02 -0.25386562724E+02  0.11095412112E+03  0.92382826811E+02 0.  0.
         11    1    3    3    0    0 -0.31968911834E+02 -0.48123908319E+02  0.41895930254E+02  0.71366594760E+02  0.00000000000E+00 0. -1.
        -12    1    3    3    0    0  0.20906922878E+02 -0.55666332977E+01  0.88885614453E+02  0.91480813765E+02  0.00000000000E+00 0.  1.
        -11    1    4    4    0    0  0.12279255843E+02 -0.27327576213E+02 -0.40701995264E+02  0.50539380330E+02  0.00000000000E+00 0.  1.
         11    1    4    4    0    0  0.42103093653E+02  0.40530333529E+02  0.15315432539E+02  0.60414740792E+02  0.00000000000E+00 0. -1.
          2    1    1    2  501    0 -0.43320360540E+02  0.40487784301E+02 -0.37498121933E+02  0.70157134088E+02  0.00000000000E+00 0. -1.
<scales pt_clust_5="13000.00000" pt_clust_6="13000.00000" pt_clust_7="13000.00000" pt_clust_8="13000.00000" pt_clust_9="59.29515"></scales>
<clustering>
<clus scale="   59.295">  2  9  1 -1</clus>
<clus scale="   80.065">  5  6 -1 -1</clus>
<clus scale="   92.383">  7  8 -1 -1</clus>
<clus scale="   94.327">  1  5  2 -1</clus>
<clus scale="   59.295">  2  5  1 -1</clus>
</clustering>
</event>
<event>
 9    1  0.4067873E-005  0.9441447E+02  0.7546771E-02  0.1297304E+00
          1   -1    0    0  502    0 -0.00000000000E+00  0.00000000000E+00  0.24667933519E+03  0.24667933519E+03  0.00000000000E+00 0. -1.
         21   -1    0    0  501  502  0.00000000000E+00 -0.00000000000E+00 -0.28124657649E+03  0.28124657649E+03  0.00000000000E+00 0.  1.
        -24    2    1    2    0    0  0.25906041541E+02 -0.17193464553E+02  0.12658744401E+03  0.15324298066E+03  0.80574759864E+02 0.  0.
         23    2    1    2    0    0  0.26833954135E+02  0.84376512497E+02 -0.23191462306E+03  0.26376837893E+03  0.89162258693E+02 0.  0.
         11    1    3    3    0    0  0.43354833633E+02  0.17989946592E+02  0.64346247066E+02  0.79647468819E+02  0.00000000000E+00 0. -1.
        -12    1    3    3    0    0 -0.17448792093E+02 -0.35183411145E+02  0.62241196945E+02  0.73595511837E+02  0.00000000000E+00 0.  1.
        -13    1    4    4    0    0  0.35730201850E+02  0.35812687406E+02 -0.19676057089E+03  0.20315983403E+03  0.00000000000E+00 0.  1.
         13    1    4    4    0    0 -0.88962477155E+01  0.48563825091E+02 -0.35154052171E+02  0.60608544900E+02  0.00000000000E+00 0. -1.
          2    1    1    2  501    0 -0.52739995675E+02 -0.67183047944E+02  0.70759937754E+02  0.11091455209E+03  0.00000000000E+00 0. -1.
<scales pt_clust_5="13000.00000" pt_clust_6="13000.00000" pt_clust_7="13000.00000" pt_clust_8="13000.00000" pt_clust_9="85.41122"></scales>
<clustering>
<clus scale="   80.575">  5  6 -1 -1</clus>
<clus scale="   85.411">  2  9  1 -1</clus>
<clus scale="   86.351">  1  5  2 -1</clus>
<clus scale="   89.162">  7  8 -1 -1</clus>
<clus scale="   85.411">  2  5  1 -1</clus>
</clustering>
</event>
<event>
 9    1  0.4067873E-005  0.1744807E+03  0.7546771E-02  0.1174698E+00
          1   -1    0    0  502    0 -0.00000000000E+00  0.00000000000E+00  0.10577624318E+03  0.10577624318E+03  0.00000000000E+00 0. -1.
         21   -1    0    0  501  502  0.00000000000E+00 -0.00000000000E+00 -0.55949055492E+03  0.55949055492E+03  0.00000000000E+00 0. -1.
        -24    2    1    2    0    0 -0.44349196411E+02  0.15207783137E+03 -0.80101919562E+02  0.19490713288E+03  0.80485743540E+02 0.  0.
         23    2    1    2    0    0  0.12467709585E+03 -0.88976471530E+02 -0.19334572926E+03  0.26316308513E+03  0.91711763918E+02 0.  0.
         11    1    3    3    0    0 -0.59411671052E+02  0.64361098758E+02 -0.50538941223E+02  0.10112508230E+03  0.00000000000E+00 0. -1.
        -12    1    3    3    0    0  0.15062474640E+02  0.87716732611E+02 -0.29562978339E+02  0.93782050578E+02  0.00000000000E+00 0.  1.
        -13    1    4    4    0    0 -0.95647556236E+01 -0.24597748124E+02 -0.13357789408E+02  0.29579795483E+02  0.00000000000E+00 0.  1.
         13    1    4    4    0    0  0.13424185147E+03 -0.64378723406E+02 -0.17998793985E+03  0.23358328965E+03  0.00000000000E+00 0. -1.
          2    1    1    2  501    0 -0.80327899434E+02 -0.63101359839E+02 -0.18026666292E+03  0.20719658009E+03  0.00000000000E+00 0. -1.
<scales pt_clust_5="13000.00000" pt_clust_6="13000.00000" pt_clust_7="13000.00000" pt_clust_8="13000.00000" pt_clust_9="102.14868"></scales>
<clustering>
<clus scale="   80.486">  5  6 -1 -1</clus>
<clus scale="   91.712">  7  8 -1 -1</clus>
<clus scale="  102.149">  2  9  1 -1</clus>
<clus scale="  168.850">  1  5  2 -1</clus>
<clus scale="  102.149">  2  5  1 -1</clus>
</clustering>
</event>
<event>
 9    1  0.4067873E-005  0.9678721E+02  0.7546771E-02  0.1289898E+00
         -2   -1    0    0    0  501 -0.00000000000E+00  0.00000000000E+00  0.37756770160E+03  0.37756770160E+03  0.00000000000E+00 0.  1.
         21   -1    0    0  501  502  0.00000000000E+00 -0.00000000000E+00 -0.66050181502E+02  0.66050181502E+02  0.00000000000E+00 0. -1.
        -24    2    1    2    0    0  0.13941255804E+02  0.30984299038E+01  0.29884615438E+03  0.31392246717E+03  0.95049105866E+02 0.  0.
         23    2    1    2    0    0 -0.42478912076E+02  0.28853541303E+01  0.12764601009E+02  0.10053701766E+03  0.90177456391E+02 0.  0.
         13    1    3    3    0    0  0.82602580140E+01  0.19505800824E+02  0.81316345888E+01  0.22689901043E+02  0.00000000000E+00 0. -1.
        -14    1    3    3    0    0  0.56809977898E+01 -0.16407370920E+02  0.29071451979E+03  0.29123256613E+03  0.00000000000E+00 0.  1.
        -13    1    4    4    0    0  0.81495353629E+01  0.25090387536E+02  0.32479300542E+02  0.41843128911E+02  0.00000000000E+00 0.  1.
         13    1    4    4    0    0 -0.50628447439E+02 -0.22205033406E+02 -0.19714699533E+02  0.58693888748E+02  0.00000000000E+00 0. -1.
         -1    1    1    2    0  502  0.28537656272E+02 -0.59837840341E+01 -0.93235292817E-01  0.29158398270E+02  0.00000000000E+00 0.  1.
<scales pt_clust_5="13000.00000" pt_clust_6="13000.00000" pt_clust_7="13000.00000" pt_clust_8="13000.00000" pt_clust_9="29.15825"></scales>
<clustering>
<clus scale="   29.158">  2  9  1 -1</clus>
<clus scale="   90.177">  7  8 -1 -1</clus>
<clus scale="   92.008">  2  7  1 -1</clus>
<clus scale="   95.049">  5  6 -1 -1</clus>
<clus scale="   29.158">  2  5  1 -1</clus>
</clustering>
</event>
<event>
 9    1  0.4067873E-005  0.1433626E+03  0.7546771E-02  0.1234450E+00
         21   -1    0    0  501  502  0.00000000000E+00  0.00000000000E+00  0.56013723842E+02  0.56013723842E+02  0.00000000000E+00 0. -1.
          1   -1    0    0  502    0 -0.00000000000E+00 -0.00000000000E+00 -0.53025904617E+03  0.53025904617E+03  0.00000000000E+00 0. -1.
        -24    2    1    2    0    0  0.64557714469E+01 -0.14842624472E+02 -0.79949585674E+02  0.11590372597E+03  0.82339279557E+02 0.  0.
         23    2    1    2    0    0  0.16896724379E+02  0.11433656548E+03 -0.18270110351E+03  0.23538676357E+03  0.93106851204E+02 0.  0.
         13    1    3    3    0    0  0.41153876546E+02  0.57170711758E+00 -0.22123589230E+02  0.46727097109E+02  0.00000000000E+00 0. -1.
        -14    1    3    3    0    0 -0.34698105099E+02 -0.15414331590E+02 -0.57825996444E+02  0.69176628861E+02  0.00000000000E+00 0.  1.
        -13    1    4    4    0    0  0.19932776187E+02 -0.11059380905E+02 -0.32531596096E+02  0.39723169776E+02  0.00000000000E+00 0.  1.
         13    1    4    4    0    0 -0.30360518076E+01  0.12539594639E+03 -0.15016950741E+03  0.19566359379E+03  0.00000000000E+00 0. -1.
          2    1    1    2  501    0 -0.23352495826E+02 -0.99493941010E+02 -0.21159463315E+03  0.23498228048E+03  0.00000000000E+00 0. -1.
<scales pt_clust_5="13000.00000" pt_clust_6="13000.00000" pt_clust_7="13000.00000" pt_clust_8="13000.00000" pt_clust_9="109.01357"></scales>
<clustering>
<clus scale="   82.339">  5  6 -1 -1</clus>
<clus scale="   83.915">  2  5  1 -1</clus>
<clus scale="   93.107">  7  8 -1 -1</clus>
<clus scale="  109.014">  1  9  2 -1</clus>
<clus scale="  109.014">  1  5  2 -1</clus>
</clustering>
</event>
<event>
 9    1  0.4067873E-005  0.1118938E+03  0.7546771E-02  0.1260375E+00
         -2   -1    0    0    0  501 -0.00000000000E+00  0.00000000000E+00  0.23864713000E+03  0.23864713000E+03  0.00000000000E+00 0.  1.
         21   -1    0    0  501  502  0.00000000000E+00 -0.00000000000E+00 -0.94463485638E+02  0.94463485638E+02  0.00000000000E+00 0. -1.
         23    2    1    2    0    0  0.39952899206E+02 -0.33420930096E+02  0.12573677759E+03  0.16525640785E+03  0.93737667844E+02 0.  0.
        -24    2    1    2    0    0 -0.48360276698E+02 -0.73817743452E+01  0.41708046840E+02  0.12014019324E+03  0.10149333922E+03 0.  0.
         11    1    4    4    0    0 -0.78958243054E+02  0.61672474314E+01  0.28761718740E+02  0.84259572465E+02  0.00000000000E+00 0. -1.
        -12    1    4    4    0    0  0.30597966356E+02 -0.13549021777E+02  0.12946328100E+02  0.35880620780E+02  0.00000000000E+00 0.  1.
        -13    1    3    3    0    0  0.52268129159E+02 -0.58832979338E+02  0.97829882631E+02  0.12555462046E+03  0.00000000000E+00 0.  1.
         13    1    3    3    0    0 -0.12315229954E+02  0.25412049242E+02  0.27906894963E+02  0.39701787390E+02  0.00000000000E+00 0. -1.
         -1    1    1    2    0  502  0.84073774923E+01  0.40802704441E+02 -0.23261180068E+02  0.47714014547E+02  0.00000000000E+00 0.  1.
<scales pt_clust_5="13000.00000" pt_clust_6="13000.00000" pt_clust_7="13000.00000" pt_clust_8="13000.00000" pt_clust_9="41.65987"></scales>
<clustering>
<clus scale="   41.660">  2  9  1 -1</clus>
<clus scale="   93.738">  7  8 -1 -1</clus>
<clus scale="  101.493">  5  6 -1 -1</clus>
<clus scale="  104.910">  1  7  2 -1</clus>
<clus scale="   41.660">  2  5  1 -1</clus>
</clustering>
</event>
<event>
 9    1  0.4067873E-005  0.1222872E+03  0.7546771E-02  0.1260405E+00
          1   -1    0    0  502    0 -0.00000000000E+00  0.00000000000E+00  0.13144397857E+03  0.13144397857E+03  0.00000000000E+00 0. -1.
         21   -1    0    0  501  502  0.00000000000E+00 -0.00000000000E+00 -0.47427993305E+03  0.47427993305E+03  0.00000000000E+00 0. -1.
        -24    2    1    2    0    0 -0.72406497540E+01  0.65836997203E+01  0.59853952115E+02  0.10017100525E+03  0.79724291136E+02 0.  0.
         23    2    1    2    0    0  0.36730610300E+02 -0.81454168896E+02 -0.39853391367E+02  0.13390040510E+03  0.91417210186E+02 0.  0.
         13    1    3    3    0    0 -0.36914125563E+02 -0.18385987462E+02  0.35174581110E+02  0.54202844550E+02  0.00000000000E+00 0. -1.
        -14    1    3    3    0    0  0.29673475809E+02  0.24969687182E+02  0.24679371006E+02  0.45968160696E+02  0.00000000000E+00 0.  1.
        -11    1    4    4    0    0 -0.77824155683E+01 -0.76799281823E+02 -0.53296225143E+01  0.77376356575E+02  0.00000000000E+00 0. -1.
         11    1    4    4    0    0  0.44513025868E+02 -0.46548870732E+01 -0.34523768853E+02  0.56524048523E+02  0.00000000000E+00 0.  1.
          2    1    1    2  501    0 -0.29489960546E+02  0.74870469176E+02 -0.36283651522E+03  0.37165250128E+03  0.00000000000E+00 0. -1.
<scales pt_clust_5="13000.00000" pt_clust_6="13000.00000" pt_clust_7="13000.00000" pt_clust_8="13000.00000" pt_clust_9="81.22218"></scales>
<clustering>
<clus scale="   79.724">  5  6 -1 -1</clus>
<clus scale="   80.323">  1  5  2 -1</clus>
<clus scale="   81.222">  2  9  1 -1</clus>
<clus scale="   91.417">  7  8 -1 -1</clus>
<clus scale="   81.222">  2  5  1 -1</clus>
</clustering>
</event>
<event>
 9    1  0.4067873E-005  0.9783124E+02  0.7546771E-02  0.1295769E+00
         21   -1    0    0  501  502  0.00000000000E+00  0.00000000000E+00  0.31185838627E+03  0.31185838627E+03  0.00000000000E+00 0.  1.
          3   -1    0    0  502    0 -0.00000000000E+00 -0.00000000000E+00 -0.65099866356E+02  0.65099866356E+02  0.00000000000E+00 0. -1.
         23    2    1    2    0    0 -0.21047181022E+01  0.52098468636E+01  0.89216286085E+02  0.12903237698E+03  0.93049644080E+02 0.  0.
        -24    2    1    2    0    0 -0.23009418846E+02 -0.65761444230E+02  0.15108238007E+03  0.18205520290E+03  0.73920297828E+02 0.  0.
         13    1    4    4    0    0 -0.39316244424E+02 -0.66851699630E+02  0.89913767558E+02  0.11874090456E+03  0.00000000000E+00 0. -1.
        -14    1    4    4    0    0  0.16306825577E+02  0.10902553994E+01  0.61168612515E+02  0.63314298340E+02  0.00000000000E+00 0.  1.
        -11    1    3    3    0    0  0.21927081788E+02  0.38025027349E+02  0.73132410212E+02  0.85293898046E+02  0.00000000000E+00 0. -1.
         11    1    3    3    0    0 -0.24031799890E+02 -0.32815180485E+02  0.16083875873E+02  0.43738478933E+02  0.00000000000E+00 0.  1.
          4    1    1    2  501    0  0.25114136948E+02  0.60551597367E+02  0.64598537603E+01  0.65870672753E+02  0.00000000000E+00 0. -1.
<scales pt_clust_5="13000.00000" pt_clust_6="13000.00000" pt_clust_7="13000.00000" pt_clust_8="13000.00000" pt_clust_9="65.55319"></scales>
<clustering>
<clus scale="   65.553">  1  9  2 -1</clus>
<clus scale="   73.920">  5  6 -1 -1</clus>
<clus scale="   79.856">  1  5  2 -1</clus>
<clus scale="   93.050">  7  8 -1 -1</clus>
<clus scale="   65.553">  1  5  2 -1</clus>
</clustering>
</event>
<event>
 9    1  0.4067873E-005  0.1250092E+03  0.7546771E-02  0.1238306E+00
         21   -1    0    0  501  502  0.00000000000E+00  0.00000000000E+00  0.67744865891E+02  0.67744865891E+02  0.00000000000E+00 0. -1.
          1   -1    0    0  502    0 -0.00000000000E+00 -0.00000000000E+00 -0.37853015849E+03  0.37853015849E+03  0.00000000000E+00 0. -1.
         23    2    1    2    0    0 -0.12331446325E+02  0.64894876916E+02 -0.13272126723E+03  0.17436200988E+03  0.91781077002E+02 0.  0.
        -24    2    1    2    0    0 -0.12581810803E+02 -0.11902961922E+03 -0.10969184909E+03  0.18121574225E+03  0.80501498529E+02 0.  0.
         11    1    4    4    0    0 -0.92308135018E+00 -0.90271428306E+02 -0.11848913001E+03  0.14896125932E+03  0.00000000000E+00 0. -1.
        -12    1    4    4    0    0 -0.11658729453E+02 -0.28758190918E+02  0.87972809188E+01  0.32254482927E+02  0.00000000000E+00 0.  1.
        -13    1    3    3    0    0 -0.28941030978E+02  0.83354382327E+02 -0.10248524884E+03  0.13523595142E+03  0.00000000000E+00 0.  1.
         13    1    3    3    0    0  0.16609584654E+02 -0.18459505410E+02 -0.30236018398E+02  0.39126058464E+02  0.00000000000E+00 0. -1.
          2    1    1    2  501    0  0.24913257128E+02  0.54134742308E+02 -0.68372176270E+02  0.90697272249E+02  0.00000000000E+00 0. -1.
<scales pt_clust_5="13000.00000" pt_clust_6="13000.00000" pt_clust_7="13000.00000" pt_clust_8="13000.00000" pt_clust_9="59.59232"></scales>
<clustering>
<clus scale="   59.592">  1  9  2 -1</clus>
<clus scale="   80.501">  5  6 -1 -1</clus>
<clus scale="   91.781">  7  8 -1 -1</clus>
<clus scale="  116.979">  1  5  2 -1</clus>
<clus scale="   59.592">  1  5  2 -1</clus>
</clustering>
</event>
<event>
 9    1  0.4067873E-005  0.1725083E+03  0.7546771E-02  0.1189776E+00
          1   -1    0    0  502    0 -0.00000000000E+00  0.00000000000E+00  0.10511010747E+04  0.10511010747E+04  0.00000000000E+00 0. -1.
         21   -1    0    0  501  502  0.00000000000E+00 -0.00000000000E+00 -0.98633784634E+02  0.98633784634E+02  0.00000000000E+00 0.  1.
        -24    2    1    2    0    0  0.71744031452E+02  0.11181754357E+02  0.36592899116E+03  0.38657582633E+03  0.10131438816E+03 0.  0.
         23    2    1    2    0    0  0.13370271883E+03 -0.36463571597E+02  0.27011127740E+02  0.16657023597E+03  0.88374393420E+02 0.  0.
         11    1    3    3    0    0  0.57462871560E+02 -0.40007609930E+02  0.23690418591E+03  0.24703478249E+03  0.00000000000E+00 0. -1.
        -12    1    3    3    0    0  0.14281159892E+02  0.51189364287E+02  0.12902480525E+03  0.13954104383E+03  0.00000000000E+00 0.  1.
        -11    1    4    4    0    0  0.40618459705E+02  0.11150455162E+02 -0.25840883668E+02  0.49416021571E+02  0.00000000000E+00 0.  1.
         11    1    4    4    0    0  0.93084259126E+02 -0.47614026758E+02  0.52852011408E+02  0.11715421440E+03  0.00000000000E+00 0. -1.
          2    1    1    2  501    0 -0.20544675028E+03  0.25281817240E+02  0.55952717121E+03  0.59658879709E+03  0.00000000000E+00 0. -1.
<scales pt_clust_5="13000.00000" pt_clust_6="13000.00000" pt_clust_7="13000.00000" pt_clust_8="13000.00000" pt_clust_9="148.15234"></scales>
<clustering>
<clus scale="   88.374">  7  8 -1 -1</clus>
<clus scale="  101.314">  5  6 -1 -1</clus>
<clus scale="  124.647">  1  5  2 -1</clus>
<clus scale="  148.152">  2  9  1 -1</clus>
<clus scale="  148.152">  2  5  1 -1</clus>
</clustering>
</event>
<event>
 9    1  0.4067873E-005  0.9320033E+02  0.7546771E-02  0.1301849E+00
         -2   -1    0    0    0  501 -0.00000000000E+00  0.00000000000E+00  0.13693922835E+03  0.13693922835E+03  0.00000000000E+00 0.  1.
         21   -1    0    0  501  502  0.00000000000E+00 -0.00000000000E+00 -0.17463106771E+03  0.17463106771E+03  0.00000000000E+00 0. -1.
        -24    2    1    2    0    0 -0.19844857690E+02  0.93405807123E+01  0.10178044420E+03  0.13139391302E+03  0.80150088799E+02 0.  0.
         23    2    1    2    0    0  0.50725633266E+01  0.47274746131E+01 -0.98071166562E+02  0.13402247367E+03  0.91082324424E+02 0.  0.
         13    1    3    3    0    0 -0.12068526481E+02 -0.32865529368E+02  0.23644096558E+02  0.42247315348E+02  0.00000000000E+00 0. -1.
        -14    1    3    3    0    0 -0.77763312088E+01  0.42206110080E+02  0.78136347638E+02  0.89146597676E+02  0.00000000000E+00 0.  1.
        -11    1    4    4    0    0 -0.17140044215E+02  0.38199316492E+02 -0.20391398530E+02  0.46570140972E+02  0.00000000000E+00 0.  1.
         11    1    4    4    0    0  0.22212607542E+02 -0.33471841879E+02 -0.77679768031E+02  0.87452332696E+02  0.00000000000E+00 0. -1.
         -1    1    1    2    0  502  0.14772294363E+02 -0.14068055325E+02 -0.41401116998E+02  0.46153909370E+02  0.00000000000E+00 0.  1.
<scales pt_clust_5="13000.00000" pt_clust_6="13000.00000" pt_clust_7="13000.00000" pt_clust_8="13000.00000" pt_clust_9="20.39929"></scales>
<clustering>
<clus scale="   20.399">  2  9  1 -1</clus>
<clus scale="   80.150">  5  6 -1 -1</clus>
<clus scale="   82.549">  1  5  2 -1</clus>
<clus scale="   91.082">  7  8 -1 -1</clus>
<clus scale="   20.399">  2  5  1 -1</clus>
</clustering>
</event>
<event>
 9    1  0.4067873E-005  0.1205336E+03  0.7546771E-02  0.1247187E+00
         21   -1    0    0  501  502  0.00000000000E+00  0.00000000000E+00  0.61763163039E+02  0.61763163039E+02  0.00000000000E+00 0.  1.
          1   -1    0    0  502    0 -0.00000000000E+00 -0.00000000000E+00 -0.46834514295E+03  0.46834514295E+03  0.00000000000E+00 0. -1.
         23    2    1    2    0    0  0.14998471313E+02 -0.86100275576E+02 -0.35053310382E+03  0.37310932008E+03  0.93267873687E+02 0.  0.
        -24    2    1    2    0    0 -0.34094730293E+02  0.36132042968E+02 -0.27521586331E+02  0.96374752818E+02  0.77863214060E+02 0.  0.
         13    1    4    4    0    0 -0.19669949649E+02 -0.22583811565E+02 -0.12128491381E-01  0.29948883303E+02  0.00000000000E+00 0. -1.
        -14    1    4    4    0    0 -0.14424780644E+02  0.58715854533E+02 -0.27509457840E+02  0.66425869515E+02  0.00000000000E+00 0.  1.
        -11    1    3    3    0    0  0.18618198737E+01 -0.10410936824E+03 -0.30740050890E+03  0.32455708250E+03  0.00000000000E+00 0. -1.
         11    1    3    3    0    0  0.13136651439E+02  0.18009092666E+02 -0.43132594921E+02  0.48552237583E+02  0.00000000000E+00 0.  1.
          2    1    1    2  501    0  0.19096258980E+02  0.49968232608E+02 -0.28527289766E+02  0.60624233095E+02  0.00000000000E+00 0. -1.
<scales pt_clust_5="13000.00000" pt_clust_6="13000.00000" pt_clust_7="13000.00000" pt_clust_8="13000.00000" pt_clust_9="53.49291"></scales>
<clustering>
<clus scale="   53.493">  1  9  2 -1</clus>
<clus scale="   77.863">  5  6 -1 -1</clus>
<clus scale="   93.268">  7  8 -1 -1</clus>
<clus scale="  109.051">  1  5  2 -1</clus>
<clus scale="   53.493">  1  5  2 -1</clus>
</clustering>
</event>
<event>
 9    1  0.4067873E-005  0.1410420E+03  0.7546771E-02  0.1224565E+00
         21   -1    0    0  501  502  0.00000000000E+00  0.00000000000E+00  0.46121360143E+03  0.46121360143E+03  0.00000000000E+00 0. -1.
         -2   -1    0    0    0  501 -0.00000000000E+00 -0.00000000000E+00 -0.20705780777E+03  0.20705780777E+03  0.00000000000E+00 0.  1.
         23    2    1    2    0    0 -0.26765736843E+02  0.43278674498E+02  0.31587102260E+03  0.33385623301E+03  0.95373125513E+02 0.  0.
        -24    2    1    2    0    0 -0.71635903759E+02  0.31745115749E+02 -0.14641799373E+03  0.18446181564E+03  0.80302412545E+02 0.  0.
         11    1    4    4    0    0  0.54388960977E+01  0.33943148158E+02 -0.35900989826E+02  0.49705130199E+02  0.00000000000E+00 0. -1.
        -12    1    4    4    0    0 -0.77074799857E+02 -0.21980324098E+01 -0.11051700390E+03  0.13475668544E+03  0.00000000000E+00 0.  1.
        -13    1    3    3    0    0 -0.30383743682E+01 -0.30395095451E+02  0.81590210895E+02  0.87120927797E+02  0.00000000000E+00 0.  1.
         13    1    3    3    0    0 -0.23727362475E+02  0.73673769948E+02  0.23428081170E+03  0.24673530522E+03  0.00000000000E+00 0. -1.
         -1    1    1    2    0  502  0.98401640603E+02 -0.75023790246E+02  0.84702764788E+02  0.14995336055E+03  0.00000000000E+00 0.  1.
<scales pt_clust_5="13000.00000" pt_clust_6="13000.00000" pt_clust_7="13000.00000" pt_clust_8="13000.00000" pt_clust_9="115.94984"></scales>
<clustering>
<clus scale="   80.302">  5  6 -1 -1</clus>
<clus scale="   95.373">  7  8 -1 -1</clus>
<clus scale="  108.099">  2  7  1 -1</clus>
<clus scale="  115.950">  1  9  2 -1</clus>
<clus scale="  115.950">  1  5  2 -1</clus>
</clustering>
</event>
<event>
 9    1  0.4067873E-005  0.3730327E+03  0.7546771E-02  0.1075735E+00
          1   -1    0    0  502    0 -0.00000000000E+00  0.00000000000E+00  0.78838759042E+03  0.78838759042E+03  0.00000000000E+00 0. -1.
         21   -1    0    0  501  502  0.00000000000E+00 -0.00000000000E+00 -0.60590140244E+03  0.60590140244E+03  0.00000000000E+00 0. -1.
        -24    2    1    2    0    0  0.70108289693E+02  0.17106088190E+03  0.41186443268E+02  0.20569958868E+03  0.80243380241E+02 0.  0.
         23    2    1    2    0    0 -0.51658350778E+02 -0.51407778878E+03  0.47645217762E+03  0.70866425176E+03  0.90850349743E+02 0.  0.
         13    1    3    3    0    0 -0.13354247279E+02  0.41169840048E+02 -0.72522502393E+01  0.43884926609E+02  0.00000000000E+00 0. -1.
        -14    1    3    3    0    0  0.83462536972E+02  0.12989104185E+03  0.48438693507E+02  0.16181466207E+03  0.00000000000E+00 0.  1.
        -11    1    4    4    0    0  0.24334820593E+02 -0.94696830633E+02  0.10256555945E+03  0.14170168387E+03  0.00000000000E+00 0.  1.
         11    1    4    4    0    0 -0.75993171372E+02 -0.41938095814E+03  0.37388661817E+03  0.56696256789E+03  0.00000000000E+00 0. -1.
          2    1    1    2  501    0 -0.18449938915E+02  0.34301690688E+03 -0.33515243290E+03  0.47992515243E+03  0.00000000000E+00 0. -1.
<scales pt_clust_5="13000.00000" pt_clust_6="13000.00000" pt_clust_7="13000.00000" pt_clust_8="13000.00000" pt_clust_9="361.80049"></scales>
<clustering>
<clus scale="   80.243">  5  6 -1 -1</clus>
<clus scale="   90.850">  7  8 -1 -1</clus>
<clus scale="  201.534">  1  5  2 -1</clus>
<clus scale="  361.800">  2  9  1 -1</clus>
<clus scale="  361.800">  2  5  1 -1</clus>
</clustering>
</event>
<event>
 9    1  0.4067873E-005  0.1234429E+03  0.7546771E-02  0.1240499E+00
         21   -1    0    0  501  502  0.00000000000E+00  0.00000000000E+00  0.70047843139E+02  0.70047843139E+02  0.00000000000E+00 0. -1.
          1   -1    0    0  502    0 -0.00000000000E+00 -0.00000000000E+00 -0.40916104775E+03  0.40916104775E+03  0.00000000000E+00 0. -1.
         23    2    1    2    0    0  0.92800831916E+02  0.28148113505E+02 -0.21862365185E+03  0.25587431783E+03  0.90945338961E+02 0.  0.
        -24    2    1    2    0    0 -0.63913643648E+02  0.37241969667E+02 -0.42454274924E+02  0.11750528973E+03  0.80828271697E+02 0.  0.
         13    1    4    4    0    0 -0.33570862844E+02  0.61609332119E+02 -0.32572756816E+02  0.77354360723E+02  0.00000000000E+00 0. -1.
        -14    1    4    4    0    0 -0.30342780803E+02 -0.24367362452E+02 -0.98815181080E+01  0.40150929004E+02  0.00000000000E+00 0.  1.
        -13    1    3    3    0    0  0.37293144102E+02  0.12342109423E+02 -0.18490596924E+03  0.18903259963E+03  0.00000000000E+00 0.  1.
         13    1    3    3    0    0  0.55507687814E+02  0.15806004082E+02 -0.33717682612E+02  0.66841718202E+02  0.00000000000E+00 0. -1.
          2    1    1    2  501    0 -0.28887188269E+02 -0.65390083172E+02 -0.78035277832E+02  0.10582928333E+03  0.00000000000E+00 0. -1.
<scales pt_clust_5="13000.00000" pt_clust_6="13000.00000" pt_clust_7="13000.00000" pt_clust_8="13000.00000" pt_clust_9="71.48663"></scales>
<clustering>
<clus scale="   71.487">  1  9  2 -1</clus>
<clus scale="   80.828">  5  6 -1 -1</clus>
<clus scale="   90.945">  7  8 -1 -1</clus>
<clus scale="  116.191">  1  5  2 -1</clus>
<clus scale="   71.487">  1  5  2 -1</clus>
</clustering>
</event>
<event>
 9    1  0.4067873E-005  0.2736176E+03  0.7546771E-02  0.1113105E+00
         21   -1    0    0  501  502  0.00000000000E+00  0.00000000000E+00  0.22073784781E+03  0.22073784781E+03  0.00000000000E+00 0. -1.
          1   -1    0    0  502    0 -0.00000000000E+00 -0.00000000000E+00 -0.68812830010E+03  0.68812830010E+03  0.00000000000E+00 0. -1.
         23    2    1    2    0    0  0.29381611576E+02 -0.16645178558E+03 -0.23127634911E+03  0.30036836696E+03  0.90348935747E+02 0.  0.
        -24    2    1    2    0    0 -0.27452095129E+03  0.92567859541E+02 -0.95278988240E+02  0.31628782218E+03  0.83841156606E+02 0.  0.
         11    1    4    4    0    0 -0.18444725025E+03  0.10233893202E+03 -0.69471371730E+02  0.22208177913E+03  0.00000000000E+00 0. -1.
        -12    1    4    4    0    0 -0.90073701044E+02 -0.97710724815E+01 -0.25807616510E+02  0.94206043050E+02  0.00000000000E+00 0.  1.
        -13    1    3    3    0    0  0.73865337116E+01 -0.13591106345E+03 -0.22388449418E+03  0.26201268058E+03  0.00000000000E+00 0. -1.
         13    1    3    3    0    0  0.21995077865E+02 -0.30540722129E+02 -0.73918549272E+01  0.38355686380E+02  0.00000000000E+00 0.  1.
          2    1    1    2  501    0  0.24513933972E+03  0.73883926037E+02 -0.14083511494E+03  0.29220995877E+03  0.00000000000E+00 0. -1.
<scales pt_clust_5="13000.00000" pt_clust_6="13000.00000" pt_clust_7="13000.00000" pt_clust_8="13000.00000" pt_clust_9="260.45603"></scales>
<clustering>
<clus scale="   83.841">  5  6 -1 -1</clus>
<clus scale="   90.349">  7  8 -1 -1</clus>
<clus scale="  191.657">  2  7  1 -1</clus>
<clus scale="  260.456">  1  9  2 -1</clus>
<clus scale="  260.456">  1  5  2 -1</clus>
</clustering>
</event>
<event>
 9    1  0.4067873E-005  0.1016022E+03  0.7546771E-02  0.1284890E+00
          1   -1    0    0  502    0 -0.00000000000E+00  0.00000000000E+00  0.48021301602E+03  0.48021301602E+03  0.00000000000E+00 0. -1.
         21   -1    0    0  501  502  0.00000000000E+00 -0.00000000000E+00 -0.41466480190E+02  0.41466480190E+02  0.00000000000E+00 0. -1.
        -24    2    1    2    0    0  0.18276491167E+02  0.42828383963E+02  0.35839863910E+03  0.36906128265E+03  0.74755235560E+02 0.  0.
         23    2    1    2    0    0 -0.36116008698E+02 -0.26121010401E+02  0.78418124789E+02  0.12810069458E+03  0.90959949365E+02 0.  0.
         11    1    3    3    0    0  0.42828287140E+02  0.46519465568E+02  0.26005192458E+03  0.26762908350E+03  0.00000000000E+00 0. -1.
        -12    1    3    3    0    0 -0.24551795973E+02 -0.36910816044E+01  0.98346714511E+02  0.10143219915E+03  0.00000000000E+00 0.  1.
        -11    1    4    4    0    0  0.21374086117E+02 -0.82198157311E+00 -0.66110976836E+01  0.22388251910E+02  0.00000000000E+00 0.  1.
         11    1    4    4    0    0 -0.57490094815E+02 -0.25299028828E+02  0.85029222472E+02  0.10571244267E+03  0.00000000000E+00 0. -1.
          2    1    1    2  501    0  0.17839517532E+02 -0.16707373562E+02  0.19297719484E+01  0.24517518979E+02  0.00000000000E+00 0. -1.
<scales pt_clust_5="13000.00000" pt_clust_6="13000.00000" pt_clust_7="13000.00000" pt_clust_8="13000.00000" pt_clust_9="24.44145"></scales>
<clustering>
<clus scale="   24.441">  2  9  1 -1</clus>
<clus scale="   74.755">  5  6 -1 -1</clus>
<clus scale="   87.394">  1  5  2 -1</clus>
<clus scale="   90.960">  7  8 -1 -1</clus>
<clus scale="   24.441">  2  5  1 -1</clus>
</clustering>
</event>
<event>
 9    1  0.4067873E-005  0.9559875E+02  0.7546771E-02  0.1295927E+00
         -4   -1    0    0    0  501 -0.00000000000E+00  0.00000000000E+00  0.71758145256E+02  0.71758145256E+02  0.00000000000E+00 0.  1.
         21   -1    0    0  501  502  0.00000000000E+00 -0.00000000000E+00 -0.22927066591E+03  0.22927066591E+03  0.00000000000E+00 0. -1.
         23    2    1    2    0    0 -0.28818730360E+02  0.14997588684E+01 -0.33094647664E+02  0.10118662091E+03  0.91163084912E+02 0.  0.
        -24    2    1    2    0    0  0.25366840014E+02  0.28278694105E+02 -0.14018065424E+03  0.16597277809E+03  0.80331725549E+02 0.  0.
         11    1    4    4    0    0  0.32347208678E+01  0.50166192110E+02 -0.11643133692E+03  0.12682021316E+03  0.00000000000E+00 0. -1.
        -12    1    4    4    0    0  0.22132119147E+02 -0.21887498005E+02 -0.23749317323E+02  0.39152564924E+02  0.00000000000E+00 0.  1.
        -13    1    3    3    0    0 -0.45333164039E+02 -0.24345298940E+02  0.56563780518E+01  0.51766629742E+02  0.00000000000E+00 0. -1.
         13    1    3    3    0    0  0.16514433679E+02  0.25845057808E+02 -0.38751025715E+02  0.49419991166E+02  0.00000000000E+00 0.  1.
         -3    1    1    2    0  502  0.34518903454E+01 -0.29778452974E+02  0.15762781247E+02  0.33869412175E+02  0.00000000000E+00 0.  1.
<scales pt_clust_5="13000.00000" pt_clust_6="13000.00000" pt_clust_7="13000.00000" pt_clust_8="13000.00000" pt_clust_9="29.97787"></scales>
<clustering>
<clus scale="   29.978">  2  9  1 -1</clus>
<clus scale="   80.332">  5  6 -1 -1</clus>
<clus scale="   85.332">  2  5  1 -1</clus>
<clus scale="   91.163">  7  8 -1 -1</clus>
<clus scale="   29.978">  2  5  1 -1</clus>
</clustering>
</event>
<event>
 9    1  0.4067873E-005  0.1082855E+03  0.7546771E-02  0.1268862E+00
         -2   -1    0    0    0  501 -0.00000000000E+00  0.00000000000E+00  0.11138728547E+03  0.11138728547E+03  0.00000000000E+00 0.  1.
         21   -1    0    0  501  502  0.00000000000E+00 -0.00000000000E+00 -0.16993247224E+03  0.16993247224E+03  0.00000000000E+00 0.  1.
        -24    2    1    2    0    0 -0.26053634130E+02 -0.68092643030E+02 -0.16712811218E+02  0.10783693786E+03  0.77679387371E+02 0.  0.
         23    2    1    2    0    0  0.31444173860E+02  0.28908643400E+02 -0.72555476564E+02  0.12339936269E+03  0.90214520998E+02 0.  0.
         11    1    3    3    0    0 -0.21902667502E+02  0.12025768748E+02 -0.11315647647E+02  0.27429725470E+02  0.00000000000E+00 0. -1.
        -12    1    3    3    0    0 -0.41509666274E+01 -0.80118411779E+02 -0.53971635703E+01  0.80407212391E+02  0.00000000000E+00 0.  1.
        -11    1    4    4    0    0  0.43943405957E+02 -0.50961910126E+01 -0.22344401598E+01  0.44294320322E+02  0.00000000000E+00 0. -1.
         11    1    4    4    0    0 -0.12499232098E+02  0.34004834412E+02 -0.70321036404E+02  0.79105042364E+02  0.00000000000E+00 0.  1.
         -1    1    1    2    0  502 -0.53905397303E+01  0.39183999630E+02  0.30723101007E+02  0.50083457160E+02  0.00000000000E+00 0.  1.
<scales pt_clust_5="13000.00000" pt_clust_6="13000.00000" pt_clust_7="13000.00000" pt_clust_8="13000.00000" pt_clust_9="39.55307"></scales>
<clustering>
<clus scale="   39.553">  2  9  1 -1</clus>
<clus scale="   77.679">  5  6 -1 -1</clus>
<clus scale="   90.215">  7  8 -1 -1</clus>
<clus scale="   98.088">  1  5  2 -1</clus>
<clus scale="   39.553">  2  5  1 -1</clus>
</clustering>
</event>
<event>
 9    1  0.4067873E-005  0.1381723E+03  0.7546771E-02  0.1217480E+00
          1   -1    0    0  502    0 -0.00000000000E+00  0.00000000000E+00  0.82612045874E+03  0.82612045874E+03  0.00000000000E+00 0. -1.
         21   -1    0    0  501  502  0.00000000000E+00 -0.00000000000E+00 -0.13360706632E+03  0.13360706632E+03  0.00000000000E+00 0. -1.
        -24    2    1    2    0    0  0.57663797820E+02  0.13091816134E+03  0.59590387393E+03  0.61873975030E+03  0.85280555138E+02 0.  0.
         23    2    1    2    0    0  0.17398758998E+02 -0.55928502354E+02  0.17679637611E+03  0.20799240445E+03  0.92591400870E+02 0.  0.
         11    1    3    3    0    0 -0.13700447420E+02  0.61065741755E+02  0.29940373386E+03  0.30587468500E+03  0.00000000000E+00 0. -1.
        -12    1    3    3    0    0  0.71364245239E+02  0.69852419582E+02  0.29650014007E+03  0.31286506530E+03  0.00000000000E+00 0.  1.
        -13    1    4    4    0    0 -0.35535282485E+02 -0.18058393620E+02  0.39837420834E+02  0.56354964113E+02  0.00000000000E+00 0.  1.
         13    1    4    4    0    0  0.52934041483E+02 -0.37870108734E+02  0.13695895527E+03  0.15163744034E+03  0.00000000000E+00 0. -1.
          2    1    1    2  501    0 -0.75062556818E+02 -0.74989658983E+02 -0.80186857618E+02  0.13299537031E+03  0.00000000000E+00 0. -1.
<scales pt_clust_5="13000.00000" pt_clust_6="13000.00000" pt_clust_7="13000.00000" pt_clust_8="13000.00000" pt_clust_9="106.10295"></scales>
<clustering>
<clus scale="   85.281">  5  6 -1 -1</clus>
<clus scale="   92.591">  7  8 -1 -1</clus>
<clus scale="  106.103">  2  9  1 -1</clus>
<clus scale="  133.384">  1  5  2 -1</clus>
<clus scale="  106.103">  2  5  1 -1</clus>
</clustering>
</event>
<event>
 9    1  0.4067873E-005  0.2350911E+03  0.7546771E-02  0.1123694E+00
          3   -1    0    0  502    0 -0.00000000000E+00  0.00000000000E+00  0.69957970824E+03  0.69957970824E+03  0.00000000000E+00 0. -1.
         21   -1    0    0  501  502  0.00000000000E+00 -0.00000000000E+00 -0.11905013470E+03  0.11905013470E+03  0.00000000000E+00 0.  1.
        -24    2    1    2    0    0  0.14359619539E+03  0.15172845800E+03  0.18000261178E+03  0.28689612154E+03  0.79164714422E+02 0.  0.
         23    2    1    2    0    0 -0.11385006079E+03 -0.20150822898E+03  0.18700152529E+03  0.31047376085E+03  0.88639624470E+02 0.  0.
         13    1    3    3    0    0  0.11454773911E+03  0.13857125316E+03  0.18083096287E+03  0.25499610560E+03  0.00000000000E+00 0. -1.
        -14    1    3    3    0    0  0.29048456281E+02  0.13157204845E+02 -0.82835109308E+00  0.31900015943E+02  0.00000000000E+00 0.  1.
        -11    1    4    4    0    0 -0.92200296851E+02 -0.11845911299E+03  0.70684474113E+02  0.16592091812E+03  0.00000000000E+00 0.  1.
         11    1    4    4    0    0 -0.21649763935E+02 -0.83049115985E+02  0.11631705118E+03  0.14455284272E+03  0.00000000000E+00 0. -1.
          4    1    1    2  501    0 -0.29746134602E+02  0.49779770973E+02  0.21352543647E+03  0.22125996055E+03  0.00000000000E+00 0. -1.
<scales pt_clust_5="13000.00000" pt_clust_6="13000.00000" pt_clust_7="13000.00000" pt_clust_8="13000.00000" pt_clust_9="57.99018"></scales>
<clustering>
<clus scale="   57.990">  2  9  1 -1</clus>
<clus scale="   79.165">  5  6 -1 -1</clus>
<clus scale="   88.640">  7  8 -1 -1</clus>
<clus scale="  231.685">  1  5  2 -1</clus>
<clus scale="   57.990">  2  5  1 -1</clus>
</clustering>
</event>
<event>
 9    1  0.4067873E-005  0.1045111E+03  0.7546771E-02  0.1276078E+00
         21   -1    0    0  501  502  0.00000000000E+00  0.00000000000E+00  0.62653656514E+02  0.62653656514E+02  0.00000000000E+00 0. -1.
          1   -1    0    0  502    0 -0.00000000000E+00 -0.00000000000E+00 -0.60651693778E+03  0.60651693778E+03  0.00000000000E+00 0. -1.
        -24    2    1    2    0    0  0.42562820252E+02 -0.48084687424E+01 -0.31155244631E+03  0.32435473500E+03  0.79412544801E+02 0.  0.
         23    2    1    2    0    0 -0.11657772121E+03 -0.42571790711E+02 -0.91570276628E+02  0.17889117968E+03  0.90632312990E+02 0.  0.
         11    1    3    3    0    0  0.49475982980E+02  0.26437017198E+02 -0.23015574222E+03  0.23689333981E+03  0.00000000000E+00 0. -1.
        -12    1    3    3    0    0 -0.69131627282E+01 -0.31245485941E+02 -0.81396704096E+02  0.87461395188E+02  0.00000000000E+00 0.  1.
        -13    1    4    4    0    0 -0.42750670435E+02  0.27958036685E+02 -0.37397429549E+02  0.63307498566E+02  0.00000000000E+00 0.  1.
         13    1    4    4    0    0 -0.73827050774E+02 -0.70529827396E+02 -0.54172847079E+02  0.11558368111E+03  0.00000000000E+00 0. -1.
          2    1    1    2  501    0  0.74014900957E+02  0.47380259453E+02 -0.14074055833E+03  0.16592467962E+03  0.00000000000E+00 0. -1.
<scales pt_clust_5="13000.00000" pt_clust_6="13000.00000" pt_clust_7="13000.00000" pt_clust_8="13000.00000" pt_clust_9="87.88118"></scales>
<clustering>
<clus scale="   79.413">  5  6 -1 -1</clus>
<clus scale="   87.881">  1  9  2 -1</clus>
<clus scale="   90.632">  7  8 -1 -1</clus>
<clus scale="   94.946">  2  5  1 -1</clus>
<clus scale="   87.881">  1  5  2 -1</clus>
</clustering>
</event>
<event>
 9    1  0.4067873E-005  0.9984472E+02  0.7546771E-02  0.1294340E+00
         21   -1    0    0  501  502  0.00000000000E+00  0.00000000000E+00  0.25971345174E+02  0.25971345174E+02  0.00000000000E+00 0.  1.
         -2   -1    0    0    0  501 -0.00000000000E+00 -0.00000000000E+00 -0.52484403062E+03  0.52484403062E+03  0.00000000000E+00 0.  1.
         23    2    1    2    0    0 -0.31422127664E+02 -0.93589326078E+01 -0.17297388135E+03  0.19749160887E+03  0.89487609295E+02 0.  0.
        -24    2    1    2    0    0  0.56785816171E+02  0.35494043074E+01 -0.12760995144E+03  0.15333492624E+03  0.63167022310E+02 0.  0.
         13    1    4    4    0    0  0.61668169292E+02 -0.31787054218E+01 -0.13063059303E+03  0.14449020419E+03  0.00000000000E+00 0. -1.
        -14    1    4    4    0    0 -0.48823531207E+01  0.67281097292E+01  0.30206415839E+01  0.88447220478E+01  0.00000000000E+00 0.  1.
        -13    1    3    3    0    0  0.11439865214E+02  0.32995006170E+02 -0.58653993546E+02  0.68262961459E+02  0.00000000000E+00 0.  1.
         13    1    3    3    0    0 -0.42861992878E+02 -0.42353938778E+02 -0.11431988781E+03  0.12922864741E+03  0.00000000000E+00 0. -1.
         -1    1    1    2    0  502 -0.25363688508E+02  0.58095283004E+01 -0.19828885265E+03  0.19998884069E+03  0.00000000000E+00 0.  1.
<scales pt_clust_5="13000.00000" pt_clust_6="13000.00000" pt_clust_7="13000.00000" pt_clust_8="13000.00000" pt_clust_9="26.02053"></scales>
<clustering>
<clus scale="   26.021">  1  9  2 -1</clus>
<clus scale="   63.167">  5  6 -1 -1</clus>
<clus scale="   77.143">  1  5  2 -1</clus>
<clus scale="   89.488">  7  8 -1 -1</clus>
<clus scale="   26.021">  1  5  2 -1</clus>
</clustering>
</event>
<event>
 9    1  0.4067873E-005  0.1364125E+03  0.7546771E-02  0.1228459E+00
         21   -1    0    0  501  502  0.00000000000E+00  0.00000000000E+00  0.34353959337E+02  0.34353959337E+02  0.00000000000E+00 0. -1.
          1   -1    0    0  502    0 -0.00000000000E+00 -0.00000000000E+00 -0.11389269520E+04  0.11389269520E+04  0.00000000000E+00 0. -1.
        -24    2    1    2    0    0  0.29474584770E+02 -0.69767195766E+02 -0.30728422002E+03  0.32644726648E+03  0.80050066618E+02 0.  0.
         23    2    1    2    0    0  0.86995722847E+02  0.55877311586E+02 -0.23324097233E+03  0.27071891455E+03  0.90536455521E+02 0.  0.
         11    1    3    3    0    0 -0.22037484020E+02  0.14390525099E+01 -0.53619100938E+02  0.57989046892E+02  0.00000000000E+00 0. -1.
        -12    1    3    3    0    0  0.51512068790E+02 -0.71206248276E+02 -0.25366511909E+03  0.26845821959E+03  0.00000000000E+00 0.  1.
        -13    1    4    4    0    0  0.36568173315E+02 -0.21981542562E+02 -0.96166413457E+02  0.10520645698E+03  0.00000000000E+00 0.  1.
         13    1    4    4    0    0  0.50427549532E+02  0.77858854148E+02 -0.13707455887E+03  0.16551245757E+03  0.00000000000E+00 0. -1.
          2    1    1    2  501    0 -0.11647030762E+03  0.13889884180E+02 -0.56404780031E+03  0.57611473030E+03  0.00000000000E+00 0. -1.
<scales pt_clust_5="13000.00000" pt_clust_6="13000.00000" pt_clust_7="13000.00000" pt_clust_8="13000.00000" pt_clust_9="102.03696"></scales>
<clustering>
<clus scale="   80.050">  5  6 -1 -1</clus>
<clus scale="   90.536">  7  8 -1 -1</clus>
<clus scale="  110.201">  2  5  1 -1</clus>
<clus scale="  102.037">  1  9  2 -1</clus>
<clus scale="  102.037">  1  5  2 -1</clus>
</clustering>
</event>
<event>
 9    1  0.4067873E-005  0.1683832E+03  0.7546771E-02  0.1180261E+00
         -2   -1    0    0    0  501 -0.00000000000E+00  0.00000000000E+00  0.78234483075E+02  0.78234483075E+02  0.00000000000E+00 0.  1.
         21   -1    0    0  501  502  0.00000000000E+00 -0.00000000000E+00 -0.68572695140E+03  0.68572695140E+03  0.00000000000E+00 0.  1.
         23    2    1    2    0    0  0.10048477653E+03 -0.12359753111E+03 -0.83657574303E+02  0.19928023196E+03  0.85676607666E+02 0.  0.
        -24    2    1    2    0    0 -0.43497228998E+02  0.92262802402E+02 -0.43901092019E+03  0.45779550500E+03  0.80260218759E+02 0.  0.
         11    1    4    4    0    0 -0.37462190987E+02  0.28378872758E+02 -0.77523083888E+02  0.90656520494E+02  0.00000000000E+00 0. -1.
        -12    1    4    4    0    0 -0.60350380112E+01  0.63883929644E+02 -0.36148783630E+03  0.36713898450E+03  0.00000000000E+00 0.  1.
        -11    1    3    3    0    0  0.55976908832E+02 -0.96279702415E+01 -0.14038760373E+02  0.58508109918E+02  0.00000000000E+00 0. -1.
         11    1    3    3    0    0  0.44507867698E+02 -0.11396956087E+03 -0.69618813929E+02  0.14077212204E+03  0.00000000000E+00 0.  1.
         -1    1    1    2    0  502 -0.56987547532E+02  0.31334728705E+02 -0.84823973838E+02  0.10688569752E+03  0.00000000000E+00 0.  1.
<scales pt_clust_5="13000.00000" pt_clust_6="13000.00000" pt_clust_7="13000.00000" pt_clust_8="13000.00000" pt_clust_9="65.03422"></scales>
<clustering>
<clus scale="   65.034">  2  9  1 -1</clus>
<clus scale="   80.260">  5  6 -1 -1</clus>
<clus scale="   85.677">  7  8 -1 -1</clus>
<clus scale="  165.693">  2  5  1 -1</clus>
<clus scale="   65.034">  2  5  1 -1</clus>
</clustering>
</event>
<event>
 9    1  0.4067873E-005  0.9858431E+02  0.7546771E-02  0.1288671E+00
          3   -1    0    0  502    0 -0.00000000000E+00  0.00000000000E+00  0.38604029735E+02  0.38604029735E+02  0.00000000000E+00 0. -1.
         21   -1    0    0  501  502  0.00000000000E+00 -0.00000000000E+00 -0.53062970523E+03  0.53062970523E+03  0.00000000000E+00 0.  1.
         23    2    1    2    0    0 -0.27407773480E+02 -0.51789247346E+01 -0.49320478431E+02  0.11040675989E+03  0.94758301635E+02 0.  0.
        -24    2    1    2    0    0  0.17752117634E+02  0.25602506879E+02 -0.40422137569E+03  0.41420233048E+03  0.84841169084E+02 0.  0.
         11    1    4    4    0    0  0.23490533611E+02 -0.27862198842E+02 -0.15113257586E+03  0.15546434568E+03  0.00000000000E+00 0. -1.
        -12    1    4    4    0    0 -0.57384159774E+01  0.53464705721E+02 -0.25308879983E+03  0.25873798479E+03  0.00000000000E+00 0.  1.
        -13    1    3    3    0    0 -0.15217417747E+02 -0.31013255320E+02  0.16774528250E+02  0.38402820293E+02  0.00000000000E+00 0. -1.
         13    1    3    3    0    0 -0.12190355733E+02  0.25834330585E+02 -0.66095006681E+02  0.72003939599E+02  0.00000000000E+00 0.  1.
          4    1    1    2  501    0  0.96556558465E+01 -0.20423582145E+02 -0.38483821378E+02  0.44624644596E+02  0.00000000000E+00 0. -1.
<scales pt_clust_5="13000.00000" pt_clust_6="13000.00000" pt_clust_7="13000.00000" pt_clust_8="13000.00000" pt_clust_9="22.59104"></scales>
<clustering>
<clus scale="   22.591">  2  9  1 -1</clus>
<clus scale="   84.841">  5  6 -1 -1</clus>
<clus scale="   89.094">  2  5  1 -1</clus>
<clus scale="   94.758">  7  8 -1 -1</clus>
<clus scale="   22.591">  2  5  1 -1</clus>
</clustering>
</event>
<event>
 9    1  0.4067873E-005  0.1136354E+03  0.7546771E-02  0.1258849E+00
          1   -1    0    0  502    0 -0.00000000000E+00  0.00000000000E+00  0.10279713786E+03  0.10279713786E+03  0.00000000000E+00 0. -1.
         21   -1    0    0  501  502  0.00000000000E+00 -0.00000000000E+00 -0.43528794063E+03  0.43528794063E+03  0.00000000000E+00 0.  1.
        -24    2    1    2    0    0  0.20023164699E+02  0.54841216414E+02  0.24054954654E+02  0.99858731715E+02  0.77360450581E+02 0.  0.
         23    2    1    2    0    0 -0.13830610106E+02 -0.14103127215E+03 -0.24052656385E+03  0.29356285202E+03  0.90802063105E+02 0.  0.
         13    1    3    3    0    0  0.36020246480E+02  0.38275179888E+02  0.44649653883E+02  0.68964042398E+02  0.00000000000E+00 0. -1.
        -14    1    3    3    0    0 -0.15997081781E+02  0.16566036526E+02 -0.20594699229E+02  0.30894689317E+02  0.00000000000E+00 0.  1.
        -13    1    4    4    0    0  0.97547002544E+01 -0.14360571811E+03 -0.19687241430E+03  0.24387805142E+03  0.00000000000E+00 0.  1.
         13    1    4    4    0    0 -0.23585310360E+02  0.25744459670E+01 -0.43654149555E+02  0.49684800595E+02  0.00000000000E+00 0. -1.
          2    1    1    2  501    0 -0.61925545931E+01  0.86190055733E+02 -0.11601919357E+03  0.14466349476E+03  0.00000000000E+00 0. -1.
<scales pt_clust_5="13000.00000" pt_clust_6="13000.00000" pt_clust_7="13000.00000" pt_clust_8="13000.00000" pt_clust_9="86.41223"></scales>
<clustering>
<clus scale="   77.360">  5  6 -1 -1</clus>
<clus scale="   86.412">  2  9  1 -1</clus>
<clus scale="   90.802">  7  8 -1 -1</clus>
<clus scale="  103.212">  1  5  2 -1</clus>
<clus scale="   86.412">  2  5  1 -1</clus>
</clustering>
</event>
<event>
 9    1  0.4067873E-005  0.3726706E+03  0.7546771E-02  0.1053909E+00
         -2   -1    0    0    0  501 -0.00000000000E+00  0.00000000000E+00  0.51360919443E+03  0.51360919443E+03  0.00000000000E+00 0.  1.
         21   -1    0    0  501  502  0.00000000000E+00 -0.00000000000E+00 -0.66471485577E+03  0.66471485577E+03  0.00000000000E+00 0.  1.
        -24    2    1    2    0    0  0.41566154751E+03  0.74815528712E+02  0.20558181184E+02  0.43051633714E+03  0.80930787166E+02 0.  0.
         23    2    1    2    0    0 -0.22777882191E+03 -0.59571265396E+02 -0.38668051438E+03  0.46186283145E+03  0.91452323620E+02 0.  0.
         13    1    3    3    0    0  0.82244728158E+02 -0.11909083451E+02 -0.14010345003E+02  0.84275211928E+02  0.00000000000E+00 0. -1.
        -14    1    3    3    0    0  0.33341681936E+03  0.86724612163E+02  0.34568526187E+02  0.34624112521E+03  0.00000000000E+00 0.  1.
        -13    1    4    4    0    0 -0.19984494517E+03 -0.38734556905E+02 -0.37198564342E+03  0.42404208155E+03  0.00000000000E+00 0.  1.
         13    1    4    4    0    0 -0.27933876740E+02 -0.20836708491E+02 -0.14694870960E+02  0.37820749900E+02  0.00000000000E+00 0. -1.
         -1    1    1    2    0  502 -0.18788272560E+03 -0.15244263317E+02  0.21501667186E+03  0.28594488161E+03  0.00000000000E+00 0.  1.
<scales pt_clust_5="13000.00000" pt_clust_6="13000.00000" pt_clust_7="13000.00000" pt_clust_8="13000.00000" pt_clust_9="188.50024"></scales>
<clustering>
<clus scale="   80.931">  5  6 -1 -1</clus>
<clus scale="   91.452">  7  8 -1 -1</clus>
<clus scale="  188.500">  2  9  1 -1</clus>
<clus scale="  370.229">  1  5  2 -1</clus>
<clus scale="  188.500">  2  5  1 -1</clus>
</clustering>
</event>
<event>
 9    1  0.4067873E-005  0.1792352E+03  0.7546771E-02  0.1202905E+00
          1   -1    0    0  502    0 -0.00000000000E+00  0.00000000000E+00  0.12143700510E+04  0.12143700510E+04  0.00000000000E+00 0. -1.
         21   -1    0    0  501  502  0.00000000000E+00 -0.00000000000E+00 -0.44272751159E+02  0.44272751159E+02  0.00000000000E+00 0.  1.
        -24    2    1    2    0    0 -0.18260095028E+02 -0.31047425227E+02  0.11958794024E+03  0.14580363454E+03  0.75233308507E+02 0.  0.
         23    2    1    2    0    0 -0.14238001865E+03 -0.23521799930E+02  0.32828324309E+03  0.37095399469E+03  0.94929624970E+02 0.  0.
         11    1    3    3    0    0  0.18623636575E+02  0.15065347665E+02  0.28226842578E+02  0.37021064024E+02  0.00000000000E+00 0. -1.
        -12    1    3    3    0    0 -0.36883731602E+02 -0.46112772892E+02  0.91361097666E+02  0.10878257051E+03  0.00000000000E+00 0.  1.
        -13    1    4    4    0    0 -0.14575354438E+03 -0.30638335788E+01  0.24468783635E+03  0.28482559582E+03  0.00000000000E+00 0.  1.
         13    1    4    4    0    0  0.33735257326E+01 -0.20457966351E+02  0.83595406747E+02  0.86128398872E+02  0.00000000000E+00 0. -1.
          2    1    1    2  501    0  0.16064011368E+03  0.54569225156E+02  0.72222611648E+03  0.74188517291E+03  0.00000000000E+00 0. -1.
<scales pt_clust_5="13000.00000" pt_clust_6="13000.00000" pt_clust_7="13000.00000" pt_clust_8="13000.00000" pt_clust_9="152.03176"></scales>
<clustering>
<clus scale="   75.233">  5  6 -1 -1</clus>
<clus scale="   83.411">  1  5  2 -1</clus>
<clus scale="   94.930">  7  8 -1 -1</clus>
<clus scale="  152.032">  2  9  1 -1</clus>
<clus scale="  152.032">  2  5  1 -1</clus>
</clustering>
</event>
<event>
 9    1  0.4067873E-005  0.2540716E+03  0.7546771E-02  0.1134586E+00
          1   -1    0    0  502    0 -0.00000000000E+00  0.00000000000E+00  0.52854149311E+03  0.52854149311E+03  0.00000000000E+00 0. -1.
         21   -1    0    0  501  502  0.00000000000E+00 -0.00000000000E+00 -0.23958847597E+03  0.23958847597E+03  0.00000000000E+00 0. -1.
         23    2    1    2    0    0  0.98930486667E+02  0.40965516357E+02 -0.38278598007E+01  0.14045799056E+03  0.90820591708E+02 0.  0.
        -24    2    1    2    0    0  0.90741633661E+02  0.14921047897E+03  0.30311374183E+03  0.35887988317E+03  0.80118780227E+02 0.  0.
         13    1    4    4    0    0  0.96155764509E+02  0.95279185964E+02  0.24122918363E+03  0.27661448509E+03  0.00000000000E+00 0. -1.
        -14    1    4    4    0    0 -0.54141308478E+01  0.53931293005E+02  0.61884558200E+02  0.82265398082E+02  0.00000000000E+00 0.  1.
        -13    1    3    3    0    0  0.26234519602E+02 -0.26501617814E+02 -0.15915469045E+02  0.40544887723E+02  0.00000000000E+00 0.  1.
         13    1    3    3    0    0  0.72695967065E+02  0.67467134171E+02  0.12087609245E+02  0.99913102834E+02  0.00000000000E+00 0. -1.
          2    1    1    2  501    0 -0.18967212033E+03 -0.19017599533E+03 -0.10332864886E+02  0.26879209535E+03  0.00000000000E+00 0. -1.
<scales pt_clust_5="13000.00000" pt_clust_6="13000.00000" pt_clust_7="13000.00000" pt_clust_8="13000.00000" pt_clust_9="241.10860"></scales>
<clustering>
<clus scale="   80.119">  5  6 -1 -1</clus>
<clus scale="   90.821">  7  8 -1 -1</clus>
<clus scale="  140.406">  1  7  2 -1</clus>
<clus scale="  241.109">  2  9  1 -1</clus>
<clus scale="  241.109">  2  5  1 -1</clus>
</clustering>
</event>
<event>
 9    1  0.4067873E-005  0.1423980E+03  0.7546771E-02  0.1212619E+00
          3   -1    0    0  502    0 -0.00000000000E+00  0.00000000000E+00  0.76131205690E+02  0.76131205690E+02  0.00000000000E+00 0. -1.
         21   -1    0    0  501  502  0.00000000000E+00 -0.00000000000E+00 -0.31734426732E+03  0.31734426732E+03  0.00000000000E+00 0. -1.
        -24    2    1    2    0    0 -0.10109452869E+03  0.20157477175E+02 -0.10395669419E+03  0.16675075872E+03  0.79827273856E+02 0.  0.
         23    2    1    2    0    0  0.11071957110E+03 -0.37991440132E+02 -0.14233282212E+03  0.20583303968E+03  0.91686613107E+02 0.  0.
         13    1    3    3    0    0 -0.62079080106E+02 -0.24548177327E+02 -0.76008601236E+02  0.10116191308E+03  0.00000000000E+00 0. -1.
        -14    1    3    3    0    0 -0.39015448580E+02  0.44705654502E+02 -0.27948092949E+02  0.65588845636E+02  0.00000000000E+00 0.  1.
        -13    1    4    4    0    0  0.41893002363E+02  0.78686628084E+01 -0.16710099268E+01  0.42658314260E+02  0.00000000000E+00 0.  1.
         13    1    4    4    0    0  0.68826568734E+02 -0.45860102941E+02 -0.14066181219E+03  0.16317472542E+03  0.00000000000E+00 0. -1.
          4    1    1    2  501    0 -0.96250424099E+01  0.17833962957E+02  0.50764546738E+01  0.20891674615E+02  0.00000000000E+00 0. -1.
<scales pt_clust_5="13000.00000" pt_clust_6="13000.00000" pt_clust_7="13000.00000" pt_clust_8="13000.00000" pt_clust_9="20.26554"></scales>
<clustering>
<clus scale="   20.266">  2  9  1 -1</clus>
<clus scale="   79.827">  5  6 -1 -1</clus>
<clus scale="   91.687">  7  8 -1 -1</clus>
<clus scale="  135.067">  1  5  2 -1</clus>
<clus scale="   20.266">  2  5  1 -1</clus>
</clustering>
</event>
<event>
 9    1  0.4067873E-005  0.1031232E+03  0.7546771E-02  0.1284641E+00
         21   -1    0    0  501  502  0.00000000000E+00  0.00000000000E+00  0.45946134634E+03  0.45946134634E+03  0.00000000000E+00 0. -1.
         -4   -1    0    0    0  501 -0.00000000000E+00 -0.00000000000E+00 -0.43970563821E+02  0.43970563821E+02  0.00000000000E+00 0.  1.
        -24    2    1    2    0    0 -0.50330631297E+01 -0.24139922761E+02  0.22288212039E+02  0.86571950384E+02  0.79936666192E+02 0.  0.
         23    2    1    2    0    0 -0.15196368388E+02  0.33008733366E+02  0.24546271348E+03  0.26747806313E+03  0.99860224580E+02 0.  0.
         11    1    3    3    0    0  0.14403773098E+02  0.14530678131E+02  0.35797618635E+02  0.41232011670E+02  0.00000000000E+00 0. -1.
        -12    1    3    3    0    0 -0.19436836228E+02 -0.38670600892E+02 -0.13509406596E+02  0.45339938713E+02  0.00000000000E+00 0.  1.
        -13    1    4    4    0    0  0.17914203743E+02 -0.30083782746E+02  0.80897352081E+02  0.88149499453E+02  0.00000000000E+00 0.  1.
         13    1    4    4    0    0 -0.33110572130E+02  0.63092516112E+02  0.16456536140E+03  0.17932856367E+03  0.00000000000E+00 0. -1.
         -3    1    1    2    0  502  0.20229431517E+02 -0.88688106048E+01  0.14773985700E+03  0.14938189665E+03  0.00000000000E+00 0.  1.
<scales pt_clust_5="13000.00000" pt_clust_6="13000.00000" pt_clust_7="13000.00000" pt_clust_8="13000.00000" pt_clust_9="22.08813"></scales>
<clustering>
<clus scale="   22.088">  1  9  2 -1</clus>
<clus scale="   79.937">  5  6 -1 -1</clus>
<clus scale="   83.977">  2  5  1 -1</clus>
<clus scale="   99.860">  7  8 -1 -1</clus>
<clus scale="   22.088">  1  5  2 -1</clus>
</clustering>
</event>
<event>
 9    1  0.4067873E-005  0.1124085E+03  0.7546771E-02  0.1261722E+00
         -2   -1    0    0    0  501 -0.00000000000E+00  0.00000000000E+00  0.76415928562E+02  0.76415928562E+02  0.00000000000E+00 0.  1.
         21   -1    0    0  501  502  0.00000000000E+00 -0.00000000000E+00 -0.45746595318E+03  0.45746595318E+03  0.00000000000E+00 0.  1.
        -24    2    1    2    0    0 -0.54326570731E+00 -0.65386141885E+02 -0.68833918201E+02  0.12395060807E+03  0.79686901422E+02 0.  0.
         23    2    1    2    0    0  0.71174959823E+02  0.39199041774E+02 -0.31066881919E+03  0.33458544085E+03  0.93967346592E+02 0.  0.
         13    1    3    3    0    0  0.38282664937E+02 -0.35599696271E+02 -0.47251676186E+02  0.70467167614E+02  0.00000000000E+00 0. -1.
        -14    1    3    3    0    0 -0.38825930644E+02 -0.29786445614E+02 -0.21582242015E+02  0.53483440457E+02  0.00000000000E+00 0.  1.
        -13    1    4    4    0    0  0.48197829495E+02  0.35524367370E+02 -0.30474885586E+03  0.31057507400E+03  0.00000000000E+00 0.  1.
         13    1    4    4    0    0  0.22977130327E+02  0.36746744046E+01 -0.59199633351E+01  0.24010366843E+02  0.00000000000E+00 0. -1.
         -1    1    1    2    0  502 -0.70631694115E+02  0.26187100110E+02 -0.15472872201E+01  0.75345832821E+02  0.00000000000E+00 0.  1.
<scales pt_clust_5="13000.00000" pt_clust_6="13000.00000" pt_clust_7="13000.00000" pt_clust_8="13000.00000" pt_clust_9="75.32998"></scales>
<clustering>
<clus scale="   75.330">  2  9  1 -1</clus>
<clus scale="   79.687">  5  6 -1 -1</clus>
<clus scale="   93.967">  7  8 -1 -1</clus>
<clus scale="  100.776">  1  5  2 -1</clus>
<clus scale="   75.330">  2  5  1 -1</clus>
</clustering>
</event>
<event>
 9    1  0.4067873E-005  0.1131977E+03  0.7546771E-02  0.1260789E+00
         21   -1    0    0  501  502  0.00000000000E+00  0.00000000000E+00  0.33986772360E+03  0.33986772360E+03  0.00000000000E+00 0.  1.
          3   -1    0    0  502    0 -0.00000000000E+00 -0.00000000000E+00 -0.10618850416E+03  0.10618850416E+03  0.00000000000E+00 0. -1.
        -24    2    1    2    0    0  0.50155069546E+02 -0.10491651887E+02 -0.28629690827E+02  0.10096240639E+03  0.82147078748E+02 0.  0.
         23    2    1    2    0    0 -0.62368496892E+02  0.77923810936E+02  0.10820230543E+03  0.17643704108E+03  0.97264283519E+02 0.  0.
         13    1    3    3    0    0  0.71742796275E+02 -0.17592437763E+02 -0.18943063859E+02  0.76258523145E+02  0.00000000000E+00 0. -1.
        -14    1    3    3    0    0 -0.21587726729E+02  0.71007858766E+01 -0.96866269679E+01  0.24703883246E+02  0.00000000000E+00 0.  1.
        -11    1    4    4    0    0  0.19693062620E+02  0.48142947961E+02  0.38110793755E+02  0.64482499598E+02  0.00000000000E+00 0. -1.
         11    1    4    4    0    0 -0.82061559512E+02  0.29780862975E+02  0.70091511671E+02  0.11195454148E+03  0.00000000000E+00 0.  1.
          4    1    1    2  501    0  0.12213427346E+02 -0.67432159049E+02  0.15410660484E+03  0.16865678029E+03  0.00000000000E+00 0. -1.
<scales pt_clust_5="13000.00000" pt_clust_6="13000.00000" pt_clust_7="13000.00000" pt_clust_8="13000.00000" pt_clust_9="68.52929"></scales>
<clustering>
<clus scale="   68.529">  1  9  2 -1</clus>
<clus scale="   82.147">  5  6 -1 -1</clus>
<clus scale="   97.264">  7  8 -1 -1</clus>
<clus scale="  100.506">  2  5  1 -1</clus>
<clus scale="   68.529">  1  5  2 -1</clus>
</clustering>
</event>
<event>
 9    1  0.4067873E-005  0.1274438E+03  0.7546771E-02  0.1235292E+00
         21   -1    0    0  501  502  0.00000000000E+00  0.00000000000E+00  0.81333071772E+02  0.81333071772E+02  0.00000000000E+00 0.  1.
          3   -1    0    0  502    0 -0.00000000000E+00 -0.00000000000E+00 -0.36791175166E+03  0.36791175166E+03  0.00000000000E+00 0. -1.
        -24    2    1    2    0    0 -0.30503082521E+02  0.46930509949E+02 -0.48471251415E+02  0.10929172060E+03  0.80388476605E+02 0.  0.
         23    2    1    2    0    0  0.96231326335E+02 -0.82736015555E+02 -0.11387909261E+03  0.19491891480E+03  0.94441617814E+02 0.  0.
         13    1    3    3    0    0 -0.85844740301E+01  0.64053771819E+02 -0.49582145558E+02  0.81455313127E+02  0.00000000000E+00 0. -1.
        -14    1    3    3    0    0 -0.21918608491E+02 -0.17123261870E+02  0.11108941425E+01  0.27836407474E+02  0.00000000000E+00 0.  1.
        -11    1    4    4    0    0  0.46566907082E+02 -0.46459779743E+02 -0.32659284538E+00  0.65780655453E+02  0.00000000000E+00 0.  1.
         11    1    4    4    0    0  0.49664419253E+02 -0.36276235812E+02 -0.11355249977E+03  0.12913825935E+03  0.00000000000E+00 0. -1.
          4    1    1    2  501    0 -0.65728243814E+02  0.35805505607E+02 -0.12422833586E+03  0.14503418803E+03  0.00000000000E+00 0. -1.
<scales pt_clust_5="13000.00000" pt_clust_6="13000.00000" pt_clust_7="13000.00000" pt_clust_8="13000.00000" pt_clust_9="74.84813"></scales>
<clustering>
<clus scale="   74.848">  1  9  2 -1</clus>
<clus scale="   80.388">  5  6 -1 -1</clus>
<clus scale="   94.442">  7  8 -1 -1</clus>
<clus scale="  117.410">  2  5  1 -1</clus>
<clus scale="   74.848">  1  5  2 -1</clus>
</clustering>
</event>
<event>
 9    1  0.4067873E-005  0.1171072E+03  0.7546771E-02  0.1249366E+00
         21   -1    0    0  501  502  0.00000000000E+00  0.00000000000E+00  0.43971520571E+03  0.43971520571E+03  0.00000000000E+00 0. -1.
          1   -1    0    0  502    0 -0.00000000000E+00 -0.00000000000E+00 -0.63964815331E+02  0.63964815331E+02  0.00000000000E+00 0. -1.
         23    2    1    2    0    0  0.52426498085E+02 -0.72072423310E+02  0.29533122418E+02  0.12637124409E+03  0.84584360910E+02 0.  0.
        -24    2    1    2    0    0 -0.14004677100E+02  0.62698182032E+02  0.18740797334E+03  0.21364905440E+03  0.79981103787E+02 0.  0.
         11    1    4    4    0    0 -0.27656371565E+02  0.76443400705E+02  0.13279175167E+03  0.15569880447E+03  0.00000000000E+00 0. -1.
        -12    1    4    4    0    0  0.13651694465E+02 -0.13745218673E+02  0.54616221666E+02  0.57950249932E+02  0.00000000000E+00 0.  1.
        -11    1    3    3    0    0  0.43234666445E+02 -0.91599078425E+02  0.24397225574E+02  0.10418662182E+03  0.00000000000E+00 0. -1.
         11    1    3    3    0    0  0.91918316401E+01  0.19526655115E+02  0.51358968437E+01  0.22184622270E+02  0.00000000000E+00 0.  1.
          2    1    1    2  501    0 -0.38421820984E+02  0.93742412776E+01  0.15880929462E+03  0.16365972255E+03  0.00000000000E+00 0. -1.
<scales pt_clust_5="13000.00000" pt_clust_6="13000.00000" pt_clust_7="13000.00000" pt_clust_8="13000.00000" pt_clust_9="39.54887"></scales>
<clustering>
<clus scale="   39.549">  1  9  2 -1</clus>
<clus scale="   79.981">  5  6 -1 -1</clus>
<clus scale="   84.584">  7  8 -1 -1</clus>
<clus scale="  113.827">  1  5  2 -1</clus>
<clus scale="   39.549">  1  5  2 -1</clus>
</clustering>
</event>
<event>
 9    1  0.4067873E-005  0.1010893E+03  0.7546771E-02  0.1284295E+00
          1   -1    0    0  502    0 -0.00000000000E+00  0.00000000000E+00  0.71106677646E+02  0.71106677646E+02  0.00000000000E+00 0. -1.
         21   -1    0    0  501  502  0.00000000000E+00 -0.00000000000E+00 -0.34857321014E+03  0.34857321014E+03  0.00000000000E+00 0. -1.
         23    2    1    2    0    0  0.31698048104E+02  0.46160280049E+02 -0.77249751047E+02  0.13321480744E+03  0.92968398808E+02 0.  0.
        -24    2    1    2    0    0  0.54323563646E+02 -0.28886868665E+02 -0.16132603186E+03  0.19049331974E+03  0.80474316177E+02 0.  0.
         13    1    4    4    0    0  0.54656631066E+02  0.10882958303E+02 -0.61276283401E+02  0.82828551891E+02  0.00000000000E+00 0. -1.
        -14    1    4    4    0    0 -0.33306741974E+00 -0.39769826968E+02 -0.10004974845E+03  0.10766476785E+03  0.00000000000E+00 0.  1.
        -11    1    3    3    0    0  0.52765238954E+02  0.17879589307E+02 -0.90575030904E+01  0.56443675624E+02  0.00000000000E+00 0.  1.
         11    1    3    3    0    0 -0.21067190850E+02  0.28280690742E+02 -0.68192247957E+02  0.76771131817E+02  0.00000000000E+00 0. -1.
          2    1    1    2  501    0 -0.86021611750E+02 -0.17273411384E+02 -0.38890749590E+02  0.95971760600E+02  0.00000000000E+00 0. -1.
<scales pt_clust_5="13000.00000" pt_clust_6="13000.00000" pt_clust_7="13000.00000" pt_clust_8="13000.00000" pt_clust_9="87.73879"></scales>
<clustering>
<clus scale="   80.474">  5  6 -1 -1</clus>
<clus scale="   87.739">  2  9  1 -1</clus>
<clus scale="   89.733">  2  5  1 -1</clus>
<clus scale="   92.968">  7  8 -1 -1</clus>
<clus scale="   87.739">  2  5  1 -1</clus>
</clustering>
</event>
<event>
 9    1  0.4067873E-005  0.9252944E+02  0.7546771E-02  0.1302599E+00
          1   -1    0    0  502    0 -0.00000000000E+00  0.00000000000E+00  0.14633687235E+03  0.14633687235E+03  0.00000000000E+00 0. -1.
         21   -1    0    0  501  502  0.00000000000E+00 -0.00000000000E+00 -0.85531916623E+02  0.85531916623E+02  0.00000000000E+00 0.  1.
         23    2    1    2    0    0  0.11942960220E+02  0.23529966276E+02  0.79724732281E+02  0.12330574378E+03  0.90288315415E+02 0.  0.
        -24    2    1    2    0    0 -0.11601696917E+02  0.75287868476E+00 -0.20971680670E+02  0.84191271958E+02  0.80704353576E+02 0.  0.
         11    1    4    4    0    0  0.32770478533E+02  0.75131656239E+01  0.21734588021E+01  0.33690886663E+02  0.00000000000E+00 0. -1.
        -12    1    4    4    0    0 -0.44372175450E+02 -0.67602869392E+01 -0.23145139473E+02  0.50500385295E+02  0.00000000000E+00 0.  1.
        -13    1    3    3    0    0 -0.33115360931E+01 -0.27278440109E+02 -0.78805921936E-01  0.27478824146E+02  0.00000000000E+00 0.  1.
         13    1    3    3    0    0  0.15254496313E+02  0.50808406384E+02  0.79803538203E+02  0.95826919635E+02  0.00000000000E+00 0. -1.
          2    1    1    2  501    0 -0.34126330352E+00 -0.24282844961E+02  0.20519041148E+01  0.24371773233E+02  0.00000000000E+00 0. -1.
<scales pt_clust_5="13000.00000" pt_clust_6="13000.00000" pt_clust_7="13000.00000" pt_clust_8="13000.00000" pt_clust_9="24.28524"></scales>
<clustering>
<clus scale="   24.285">  2  9  1 -1</clus>
<clus scale="   80.704">  5  6 -1 -1</clus>
<clus scale="   83.204">  2  5  1 -1</clus>
<clus scale="   90.288">  7  8 -1 -1</clus>
<clus scale="   24.285">  2  5  1 -1</clus>
</clustering>
</event>
<event>
 9    1  0.4067873E-005  0.1771628E+03  0.7546771E-02  0.1202904E+00
         21   -1    0    0  501  502  0.00000000000E+00  0.00000000000E+00  0.86164558522E+02  0.86164558522E+02  0.00000000000E+00 0. -1.
          1   -1    0    0  502    0 -0.00000000000E+00 -0.00000000000E+00 -0.50950529508E+03  0.50950529508E+03  0.00000000000E+00 0. -1.
        -24    2    1    2    0    0 -0.29280101851E+02 -0.26026221031E+00 -0.94769376692E+02  0.12822504469E+03  0.81259062431E+02 0.  0.
         23    2    1    2    0    0 -0.56774761748E+02  0.13519955689E+03 -0.15796119659E+03  0.23351772494E+03  0.89869318900E+02 0.  0.
         11    1    3    3    0    0 -0.24650825828E+02 -0.38878776776E+02 -0.62869565366E+02  0.77921786086E+02  0.00000000000E+00 0. -1.
        -12    1    3    3    0    0 -0.46292760223E+01  0.38618514566E+02 -0.31899811327E+02  0.50303258607E+02  0.00000000000E+00 0.  1.
        -13    1    4    4    0    0 -0.20406719311E+02  0.28401668923E+01  0.42350384242E+01  0.21034169617E+02  0.00000000000E+00 0.  1.
         13    1    4    4    0    0 -0.36368042438E+02  0.13235939000E+03 -0.16219623501E+03  0.21248355533E+03  0.00000000000E+00 0. -1.
          2    1    1    2  501    0  0.86054863599E+02 -0.13493929468E+03 -0.17061016327E+03  0.23392708396E+03  0.00000000000E+00 0. -1.
<scales pt_clust_5="13000.00000" pt_clust_6="13000.00000" pt_clust_7="13000.00000" pt_clust_8="13000.00000" pt_clust_9="152.67672"></scales>
<clustering>
<clus scale="   81.259">  5  6 -1 -1</clus>
<clus scale="   86.374">  2  5  1 -1</clus>
<clus scale="   89.869">  7  8 -1 -1</clus>
<clus scale="  152.677">  1  9  2 -1</clus>
<clus scale="  152.677">  1  5  2 -1</clus>
</clustering>
</event>
<event>
 9    1  0.4067873E-005  0.1549473E+03  0.7546771E-02  0.1218636E+00
          1   -1    0    0  502    0 -0.00000000000E+00  0.00000000000E+00  0.89334797719E+02  0.89334797719E+02  0.00000000000E+00 0. -1.
         21   -1    0    0  501  502  0.00000000000E+00 -0.00000000000E+00 -0.44650115031E+03  0.44650115031E+03  0.00000000000E+00 0. -1.
        -24    2    1    2    0    0 -0.40033742252E+02 -0.21255540545E+02 -0.27464295670E+02  0.96307709045E+02  0.80413859267E+02 0.  0.
         23    2    1    2    0    0  0.62893943837E+02 -0.10748189739E+03 -0.22071626306E+03  0.26931125979E+03  0.91131111220E+02 0.  0.
         11    1    3    3    0    0 -0.62271909229E+02 -0.11680738118E+02 -0.54635296646E+01  0.63593085146E+02  0.00000000000E+00 0. -1.
        -12    1    3    3    0    0  0.22238166977E+02 -0.95748024274E+01 -0.22000766005E+02  0.32714623899E+02  0.00000000000E+00 0.  1.
        -11    1    4    4    0    0 -0.14205643792E+02 -0.48702708553E+02 -0.11598454007E+03  0.12659450095E+03  0.00000000000E+00 0.  1.
         11    1    4    4    0    0  0.77099587629E+02 -0.58779188835E+02 -0.10473172300E+03  0.14271675884E+03  0.00000000000E+00 0. -1.
          2    1    1    2  501    0 -0.22860201586E+02  0.12873743793E+03 -0.10898579385E+03  0.17021697919E+03  0.00000000000E+00 0. -1.
<scales pt_clust_5="13000.00000" pt_clust_6="13000.00000" pt_clust_7="13000.00000" pt_clust_8="13000.00000" pt_clust_9="125.31481"></scales>
<clustering>
<clus scale="   80.414">  5  6 -1 -1</clus>
<clus scale="   91.131">  7  8 -1 -1</clus>
<clus scale="   92.309">  1  5  2 -1</clus>
<clus scale="  125.315">  2  9  1 -1</clus>
<clus scale="  125.315">  2  5  1 -1</clus>
</clustering>
</event>
<event>
 9    1  0.4067873E-005  0.1136166E+03  0.7546771E-02  0.1254542E+00
         21   -1    0    0  501  502  0.00000000000E+00  0.00000000000E+00  0.98802894487E+02  0.98802894487E+02  0.00000000000E+00 0. -1.
          1   -1    0    0  502    0 -0.00000000000E+00 -0.00000000000E+00 -0.55763669873E+03  0.55763669873E+03  0.00000000000E+00 0. -1.
        -24    2    1    2    0    0 -0.62205930450E+02 -0.74839939798E+01 -0.40725916727E+03  0.42243381276E+03  0.93084418071E+02 0.  0.
         23    2    1    2    0    0  0.95493560841E+02 -0.40932343891E+02  0.21548882150E+02  0.14020142470E+03  0.91638464784E+02 0.  0.
         13    1    3    3    0    0 -0.68729224922E+02 -0.27654317547E+02 -0.18675029843E+03  0.20090829152E+03  0.00000000000E+00 0. -1.
        -14    1    3    3    0    0  0.65232944724E+01  0.20170323567E+02 -0.22050886884E+03  0.22152552124E+03  0.00000000000E+00 0.  1.
        -13    1    4    4    0    0  0.66762424093E+02 -0.59370632960E+02  0.43749289110E+02  0.99479111509E+02  0.00000000000E+00 0. -1.
         13    1    4    4    0    0  0.28731136748E+02  0.18438289069E+02 -0.22200406960E+02  0.40722313193E+02  0.00000000000E+00 0.  1.
          2    1    1    2  501    0 -0.33287630391E+02  0.48416337871E+02 -0.73123519122E+02  0.93804355756E+02  0.00000000000E+00 0. -1.
<scales pt_clust_5="13000.00000" pt_clust_6="13000.00000" pt_clust_7="13000.00000" pt_clust_8="13000.00000" pt_clust_9="58.75552"></scales>
<clustering>
<clus scale="   58.756">  1  9  2 -1</clus>
<clus scale="   91.638">  7  8 -1 -1</clus>
<clus scale="   93.084">  5  6 -1 -1</clus>
<clus scale="  112.435">  1  7  2 -1</clus>
<clus scale="   58.756">  1  5  2 -1</clus>
</clustering>
</event>
<event>
 9    1  0.4067873E-005  0.1104196E+03  0.7546771E-02  0.1272557E+00
         21   -1    0    0  501  502  0.00000000000E+00  0.00000000000E+00  0.10037018194E+03  0.10037018194E+03  0.00000000000E+00 0.  1.
          1   -1    0    0  502    0 -0.00000000000E+00 -0.00000000000E+00 -0.22313398046E+03  0.22313398046E+03  0.00000000000E+00 0. -1.
        -24    2    1    2    0    0 -0.33782523887E+02 -0.27094151411E+02 -0.67109383055E+02  0.11323345382E+03  0.80267015698E+02 0.  0.
         23    2    1    2    0    0  0.27197904546E+02 -0.46957441880E+02 -0.64582984595E+02  0.13539270763E+03  0.10590323895E+03 0.  0.
         13    1    3    3    0    0 -0.54703522509E+02 -0.25696799677E+01 -0.57926210904E+02  0.79715271684E+02  0.00000000000E+00 0. -1.
        -14    1    3    3    0    0  0.20920998622E+02 -0.24524471443E+02 -0.91831721511E+01  0.33518182135E+02  0.00000000000E+00 0.  1.
        -11    1    4    4    0    0  0.67161554036E+02 -0.40017762694E+02 -0.46681230750E+02  0.91056207784E+02  0.00000000000E+00 0. -1.
         11    1    4    4    0    0 -0.39963649490E+02 -0.69396791862E+01 -0.17901753844E+02  0.44336499845E+02  0.00000000000E+00 0.  1.
          2    1    1    2  501    0  0.65846193414E+01  0.74051593291E+02  0.89285691261E+01  0.74878000958E+02  0.00000000000E+00 0. -1.
<scales pt_clust_5="13000.00000" pt_clust_6="13000.00000" pt_clust_7="13000.00000" pt_clust_8="13000.00000" pt_clust_9="74.34377"></scales>
<clustering>
<clus scale="   74.344">  1  9  2 -1</clus>
<clus scale="   80.267">  5  6 -1 -1</clus>
<clus scale="   86.138">  2  5  1 -1</clus>
<clus scale="  105.903">  7  8 -1 -1</clus>
<clus scale="   74.344">  1  5  2 -1</clus>
</clustering>
</event>
<event>
 9    1  0.4067873E-005  0.9274893E+02  0.7546771E-02  0.1303657E+00
         -2   -1    0    0    0  501 -0.00000000000E+00  0.00000000000E+00  0.17569006817E+03  0.17569006817E+03  0.00000000000E+00 0.  1.
         21   -1    0    0  501  502  0.00000000000E+00 -0.00000000000E+00 -0.92862982879E+02  0.92862982879E+02  0.00000000000E+00 0.  1.
        -24    2    1    2    0    0  0.20208574108E+02 -0.10783877589E+02  0.96641390880E+02  0.12714001491E+03  0.79374721896E+02 0.  0.
         23    2    1    2    0    0  0.31483591259E+01 -0.22291950809E+02 -0.28616938678E+02  0.98300686395E+02  0.91308556721E+02 0.  0.
         11    1    3    3    0    0 -0.18295298075E+02 -0.11611610860E+02 -0.14915754230E+01  0.21720318499E+02  0.00000000000E+00 0. -1.
        -12    1    3    3    0    0  0.38503872183E+02  0.82773327106E+00  0.98132966303E+02  0.10541969641E+03  0.00000000000E+00 0.  1.
        -13    1    4    4    0    0  0.33895724415E+02 -0.44626727341E+02 -0.17072616694E+02  0.58582754865E+02  0.00000000000E+00 0.  1.
         13    1    4    4    0    0 -0.30747365289E+02  0.22334776532E+02 -0.11544321985E+02  0.39717931530E+02  0.00000000000E+00 0. -1.
         -1    1    1    2    0  502 -0.23356933234E+02  0.33075828398E+02  0.14802633090E+02  0.43112349747E+02  0.00000000000E+00 0.  1.
<scales pt_clust_5="13000.00000" pt_clust_6="13000.00000" pt_clust_7="13000.00000" pt_clust_8="13000.00000" pt_clust_9="40.49146"></scales>
<clustering>
<clus scale="   40.491">  2  9  1 -1</clus>
<clus scale="   79.375">  5  6 -1 -1</clus>
<clus scale="   81.028">  1  5  2 -1</clus>
<clus scale="   91.309">  7  8 -1 -1</clus>
<clus scale="   40.491">  2  5  1 -1</clus>
</clustering>
</event>
<event>
 9    1  0.4067873E-005  0.9485189E+02  0.7546771E-02  0.1297033E+00
          1   -1    0    0  502    0 -0.00000000000E+00  0.00000000000E+00  0.11778333192E+03  0.11778333192E+03  0.00000000000E+00 0. -1.
         21   -1    0    0  501  502  0.00000000000E+00 -0.00000000000E+00 -0.15172732912E+03  0.15172732912E+03  0.00000000000E+00 0. -1.
        -24    2    1    2    0    0 -0.44289189172E+02 -0.14679592631E+02  0.98747415734E+01  0.93929492299E+02  0.80921049704E+02 0.  0.
         23    2    1    2    0    0 -0.21376412998E+02  0.22787371283E+02 -0.51710220195E+02  0.10894797234E+03  0.90661449815E+02 0.  0.
         11    1    3    3    0    0 -0.67218064579E+02 -0.58647396370E+01  0.51943478025E-01  0.67473447184E+02  0.00000000000E+00 0. -1.
        -12    1    3    3    0    0  0.22928875407E+02 -0.88148529936E+01  0.98227980954E+01  0.26456045115E+02  0.00000000000E+00 0.  1.
        -11    1    4    4    0    0 -0.15706370570E+02  0.43629465533E+02  0.65331828049E+01  0.46828440256E+02  0.00000000000E+00 0.  1.
         11    1    4    4    0    0 -0.56700424278E+01 -0.20842094251E+02 -0.58243402999E+02  0.62119532088E+02  0.00000000000E+00 0. -1.
          2    1    1    2  501    0  0.65665602170E+02 -0.81077786522E+01  0.78914814257E+01  0.66633196398E+02  0.00000000000E+00 0. -1.
<scales pt_clust_5="13000.00000" pt_clust_6="13000.00000" pt_clust_7="13000.00000" pt_clust_8="13000.00000" pt_clust_9="66.16428"></scales>
<clustering>
<clus scale="   66.164">  2  9  1 -1</clus>
<clus scale="   80.921">  5  6 -1 -1</clus>
<clus scale="   85.590">  1  5  2 -1</clus>
<clus scale="   90.661">  7  8 -1 -1</clus>
<clus scale="   66.164">  2  5  1 -1</clus>
</clustering>
</event>
<event>
 9    1  0.4067873E-005  0.2419733E+03  0.7546771E-02  0.1118974E+00
          1   -1    0    0  502    0 -0.00000000000E+00  0.00000000000E+00  0.41564732303E+03  0.41564732303E+03  0.00000000000E+00 0. -1.
         21   -1    0    0  501  502  0.00000000000E+00 -0.00000000000E+00 -0.27078150130E+03  0.27078150130E+03  0.00000000000E+00 0. -1.
         23    2    1    2    0    0  0.22464558475E+03  0.13514288012E+03  0.24352308737E+03  0.36856439313E+03  0.88357121983E+02 0.  0.
        -24    2    1    2    0    0 -0.11960373791E+03 -0.11656054341E+03 -0.21884230094E+02  0.18643691577E+03  0.79927402273E+02 0.  0.
         13    1    4    4    0    0 -0.25184677844E+02 -0.78045424840E+02 -0.20160211970E+02  0.84449928853E+02  0.00000000000E+00 0. -1.
        -14    1    4    4    0    0 -0.94419060070E+02 -0.38515118567E+02 -0.17240181242E+01  0.10198698692E+03  0.00000000000E+00 0.  1.
        -13    1    3    3    0    0  0.17786537204E+03  0.96468575144E+02  0.23007978708E+03  0.30639677705E+03  0.00000000000E+00 0. -1.
         13    1    3    3    0    0  0.46780212706E+02  0.38674304978E+02  0.13443300287E+02  0.62167616079E+02  0.00000000000E+00 0.  1.
          2    1    1    2  501    0 -0.10504184683E+03 -0.18582336715E+02 -0.76773035550E+02  0.13142751543E+03  0.00000000000E+00 0. -1.
<scales pt_clust_5="13000.00000" pt_clust_6="13000.00000" pt_clust_7="13000.00000" pt_clust_8="13000.00000" pt_clust_9="106.67283"></scales>
<clustering>
<clus scale="   79.927">  5  6 -1 -1</clus>
<clus scale="   88.357">  7  8 -1 -1</clus>
<clus scale="  106.673">  2  9  1 -1</clus>
<clus scale="  239.024">  2  5  1 -1</clus>
<clus scale="  106.673">  2  5  1 -1</clus>
</clustering>
</event>
<event>
 9    1  0.4067873E-005  0.9736134E+02  0.7546771E-02  0.1292713E+00
         21   -1    0    0  501  502  0.00000000000E+00  0.00000000000E+00  0.12510260239E+03  0.12510260239E+03  0.00000000000E+00 0. -1.
          3   -1    0    0  502    0 -0.00000000000E+00 -0.00000000000E+00 -0.46422393623E+03  0.46422393623E+03  0.00000000000E+00 0. -1.
         23    2    1    2    0    0  0.25433047996E+02  0.27603515391E+02 -0.37089026927E+03  0.38436458874E+03  0.93636271014E+02 0.  0.
        -24    2    1    2    0    0 -0.69207102087E+01  0.48252191874E+02 -0.36009570879E+02  0.10156600755E+03  0.81503340078E+02 0.  0.
         11    1    4    4    0    0  0.25955867388E+02  0.36104267562E+02  0.81302940286E+01  0.45203173219E+02  0.00000000000E+00 0. -1.
        -12    1    4    4    0    0 -0.32876577596E+02  0.12147924312E+02 -0.44139864908E+02  0.56362834329E+02  0.00000000000E+00 0.  1.
        -13    1    3    3    0    0 -0.30081985493E+02 -0.67501462698E+01 -0.17995102130E+03  0.18257289063E+03  0.00000000000E+00 0.  1.
         13    1    3    3    0    0  0.55515033489E+02  0.34353661660E+02 -0.19093924797E+03  0.20179169811E+03  0.00000000000E+00 0. -1.
          4    1    1    2  501    0 -0.18512337787E+02 -0.75855707264E+02  0.67778506303E+02  0.10339594234E+03  0.00000000000E+00 0. -1.
<scales pt_clust_5="13000.00000" pt_clust_6="13000.00000" pt_clust_7="13000.00000" pt_clust_8="13000.00000" pt_clust_9="78.08198"></scales>
<clustering>
<clus scale="   78.082">  1  9  2 -1</clus>
<clus scale="   81.503">  5  6 -1 -1</clus>
<clus scale="   85.757">  1  5  2 -1</clus>
<clus scale="   93.636">  7  8 -1 -1</clus>
<clus scale="   78.082">  1  5  2 -1</clus>
</clustering>
</event>
<event>
 9    1  0.4067873E-005  0.1007734E+03  0.7546771E-02  0.1282350E+00
         21   -1    0    0  501  502  0.00000000000E+00  0.00000000000E+00  0.12512572674E+03  0.12512572674E+03  0.00000000000E+00 0. -1.
          3   -1    0    0  502    0 -0.00000000000E+00 -0.00000000000E+00 -0.43449913724E+03  0.43449913724E+03  0.00000000000E+00 0. -1.
         23    2    1    2    0    0 -0.25085339968E+02 -0.34906718874E+02 -0.27644691515E+03  0.29364186562E+03  0.89190218328E+02 0.  0.
        -24    2    1    2    0    0 -0.29846924911E+02  0.76123367840E+02 -0.11230079975E+03  0.16102278648E+03  0.81432561568E+02 0.  0.
         11    1    4    4    0    0  0.19668806646E+02  0.60121185392E+02 -0.65017118185E+02  0.90711876537E+02  0.00000000000E+00 0. -1.
        -12    1    4    4    0    0 -0.49515731557E+02  0.16002182448E+02 -0.47283681566E+02  0.70310909944E+02  0.00000000000E+00 0.  1.
        -11    1    3    3    0    0  0.29144175915E+02 -0.25578053974E+02 -0.70386550993E+02  0.80360975576E+02  0.00000000000E+00 0.  1.
         11    1    3    3    0    0 -0.54229515883E+02 -0.93286648999E+01 -0.20606036416E+03  0.21328089004E+03  0.00000000000E+00 0. -1.
          4    1    1    2  501    0  0.54932264879E+02 -0.41216648966E+02  0.79374304403E+02  0.10496021187E+03  0.00000000000E+00 0. -1.
<scales pt_clust_5="13000.00000" pt_clust_6="13000.00000" pt_clust_7="13000.00000" pt_clust_8="13000.00000" pt_clust_9="68.67580"></scales>
<clustering>
<clus scale="   68.676">  1  9  2 -1</clus>
<clus scale="   81.433">  5  6 -1 -1</clus>
<clus scale="   89.190">  7  8 -1 -1</clus>
<clus scale="   93.977">  1  5  2 -1</clus>
<clus scale="   68.676">  1  5  2 -1</clus>
</clustering>
</event>
<event>
 9    1  0.4067873E-005  0.1391005E+03  0.7546771E-02  0.1216222E+00
         -4   -1    0    0    0  501 -0.00000000000E+00  0.00000000000E+00  0.11148351335E+03  0.11148351335E+03  0.00000000000E+00 0.  1.
         21   -1    0    0  501  502  0.00000000000E+00 -0.00000000000E+00 -0.24038581938E+03  0.24038581938E+03  0.00000000000E+00 0.  1.
         23    2    1    2    0    0 -0.96559880927E+02  0.27772520189E+02 -0.10394073116E+02  0.13378767095E+03  0.87726738574E+02 0.  0.
        -24    2    1    2    0    0  0.12396162164E+03 -0.51383684254E+01 -0.94656634587E+02  0.17527910388E+03  0.79812275478E+02 0.  0.
         11    1    4    4    0    0  0.83671613140E+02 -0.60072645712E+01 -0.13906943616E+02  0.85031930202E+02  0.00000000000E+00 0. -1.
        -12    1    4    4    0    0  0.40290008497E+02  0.86889614577E+00 -0.80749690971E+02  0.90247173679E+02  0.00000000000E+00 0.  1.
        -11    1    3    3    0    0 -0.10808184799E+03  0.98207144762E+01  0.30559027290E+01  0.10857011946E+03  0.00000000000E+00 0.  1.
         11    1    3    3    0    0  0.11521967060E+02  0.17951805713E+02 -0.13449975846E+02  0.25217551497E+02  0.00000000000E+00 0. -1.
         -3    1    1    2    0  502 -0.27401740710E+02 -0.22634151764E+02 -0.23851598323E+02  0.42802557897E+02  0.00000000000E+00 0.  1.
<scales pt_clust_5="13000.00000" pt_clust_6="13000.00000" pt_clust_7="13000.00000" pt_clust_8="13000.00000" pt_clust_9="35.54097"></scales>
<clustering>
<clus scale="   35.541">  2  9  1 -1</clus>
<clus scale="   79.812">  5  6 -1 -1</clus>
<clus scale="   87.727">  7  8 -1 -1</clus>
<clus scale="  134.250">  2  5  1 -1</clus>
<clus scale="   35.541">  2  5  1 -1</clus>
</clustering>
</event>
<event>
 9    1  0.4067873E-005  0.1076113E+03  0.7546771E-02  0.1269631E+00
         21   -1    0    0  501  502  0.00000000000E+00  0.00000000000E+00  0.82527690922E+02  0.82527690922E+02  0.00000000000E+00 0. -1.
          3   -1    0    0  502    0 -0.00000000000E+00 -0.00000000000E+00 -0.26496512386E+03  0.26496512386E+03  0.00000000000E+00 0. -1.
        -24    2    1    2    0    0 -0.16879958183E+02  0.70929870903E+02 -0.15121375611E+03  0.18559877537E+03  0.79153811060E+02 0.  0.
         23    2    1    2    0    0  0.12295917809E+02 -0.34058512333E+02 -0.60537279624E+02  0.11456753713E+03  0.90276167860E+02 0.  0.
         11    1    3    3    0    0 -0.31132704543E+02  0.71343791578E+02 -0.15256575269E+03  0.17127606599E+03  0.00000000000E+00 0. -1.
        -12    1    3    3    0    0  0.14252746360E+02 -0.41392067537E+00  0.13519965731E+01  0.14322709375E+02  0.00000000000E+00 0.  1.
        -13    1    4    4    0    0 -0.18364103522E+02 -0.43535651641E+02 -0.66848443620E+02  0.81861515234E+02  0.00000000000E+00 0.  1.
         13    1    4    4    0    0  0.30660021332E+02  0.94771393083E+01  0.63111639960E+01  0.32706021900E+02  0.00000000000E+00 0. -1.
          4    1    1    2  501    0  0.45840403740E+01 -0.36871358570E+02  0.29313602800E+02  0.47326502280E+02  0.00000000000E+00 0. -1.
<scales pt_clust_5="13000.00000" pt_clust_6="13000.00000" pt_clust_7="13000.00000" pt_clust_8="13000.00000" pt_clust_9="37.15522"></scales>
<clustering>
<clus scale="   37.155">  1  9  2 -1</clus>
<clus scale="   79.154">  5  6 -1 -1</clus>
<clus scale="   90.276">  7  8 -1 -1</clus>
<clus scale="   98.467">  2  5  1 -1</clus>
<clus scale="   37.155">  1  5  2 -1</clus>
</clustering>
</event>
<event>
 9    1  0.4067873E-005  0.1799179E+03  0.7546771E-02  0.1170156E+00
         21   -1    0    0  501  502  0.00000000000E+00  0.00000000000E+00  0.91924013090E+02  0.91924013090E+02  0.00000000000E+00 0. -1.
          1   -1    0    0  502    0 -0.00000000000E+00 -0.00000000000E+00 -0.98771395808E+03  0.98771395808E+03  0.00000000000E+00 0. -1.
         23    2    1    2    0    0 -0.79612962477E+02  0.15170111332E+03 -0.41416580936E+03  0.45879594197E+03  0.98025237302E+02 0.  0.
        -24    2    1    2    0    0  0.15087854365E+03 -0.16341277739E+02 -0.76608039200E+02  0.18789964676E+03  0.80038198930E+02 0.  0.
         11    1    4    4    0    0  0.12464179175E+03 -0.45187656978E+02 -0.59138275618E+02  0.14517174738E+03  0.00000000000E+00 0. -1.
        -12    1    4    4    0    0  0.26236751902E+02  0.28846379239E+02 -0.17469763583E+02  0.42727899377E+02  0.00000000000E+00 0.  1.
        -11    1    3    3    0    0 -0.74221758247E+02  0.11068268099E+03 -0.38700112284E+03  0.40930354793E+03  0.00000000000E+00 0. -1.
         11    1    3    3    0    0 -0.53912042293E+01  0.41018432331E+02 -0.27164686516E+02  0.49492394036E+02  0.00000000000E+00 0.  1.
          2    1    1    2  501    0 -0.71265581177E+02 -0.13535983558E+03 -0.40501609643E+03  0.43294238244E+03  0.00000000000E+00 0. -1.
<scales pt_clust_5="13000.00000" pt_clust_6="13000.00000" pt_clust_7="13000.00000" pt_clust_8="13000.00000" pt_clust_9="152.97415"></scales>
<clustering>
<clus scale="   80.038">  5  6 -1 -1</clus>
<clus scale="   98.025">  7  8 -1 -1</clus>
<clus scale="  152.974">  1  9  2 -1</clus>
<clus scale="  170.785">  1  5  2 -1</clus>
<clus scale="  152.974">  1  5  2 -1</clus>
</clustering>
</event>
<event>
 9    1  0.4067873E-005  0.1681751E+03  0.7546771E-02  0.1182044E+00
          1   -1    0    0  502    0 -0.00000000000E+00  0.00000000000E+00  0.54899528098E+03  0.54899528098E+03  0.00000000000E+00 0. -1.
         21   -1    0    0  501  502  0.00000000000E+00 -0.00000000000E+00 -0.14153555401E+03  0.14153555401E+03  0.00000000000E+00 0. -1.
         23    2    1    2    0    0  0.92024496325E+02  0.10521365459E+03  0.43704776122E+03  0.46843175927E+03  0.94229223001E+02 0.  0.
        -24    2    1    2    0    0 -0.67921550366E+02 -0.12206756484E+03  0.23071063397E+02  0.16178334924E+03  0.78279951048E+02 0.  0.
         13    1    4    4    0    0 -0.97355344855E-02 -0.26933356847E+02 -0.23709874338E+02  0.35882641304E+02  0.00000000000E+00 0. -1.
        -14    1    4    4    0    0 -0.67911814832E+02 -0.95134207990E+02  0.46780937735E+02  0.12590070794E+03  0.00000000000E+00 0.  1.
        -13    1    3    3    0    0  0.10779473041E+03  0.82518820892E+02  0.39859251777E+03  0.42107606786E+03  0.00000000000E+00 0. -1.
         13    1    3    3    0    0 -0.15770234083E+02  0.22694833702E+02  0.38455243459E+02  0.47355691414E+02  0.00000000000E+00 0.  1.
          2    1    1    2  501    0 -0.24102945959E+02  0.16853910243E+02 -0.52659097654E+02  0.60315726474E+02  0.00000000000E+00 0. -1.
<scales pt_clust_5="13000.00000" pt_clust_6="13000.00000" pt_clust_7="13000.00000" pt_clust_8="13000.00000" pt_clust_9="29.41099"></scales>
<clustering>
<clus scale="   29.411">  2  9  1 -1</clus>
<clus scale="   78.280">  5  6 -1 -1</clus>
<clus scale="   94.229">  7  8 -1 -1</clus>
<clus scale="  159.786">  2  5  1 -1</clus>
<clus scale="   29.411">  2  5  1 -1</clus>
</clustering>
</event>
<event>
 9    1  0.4067873E-005  0.1260985E+03  0.7546771E-02  0.1247668E+00
         21   -1    0    0  501  502  0.00000000000E+00  0.00000000000E+00  0.24072711482E+02  0.24072711482E+02  0.00000000000E+00 0.  1.
         -4   -1    0    0    0  501 -0.00000000000E+00 -0.00000000000E+00 -0.12150483941E+04  0.12150483941E+04  0.00000000000E+00 0.  1.
         23    2    1    2    0    0  0.27643889045E+02 -0.80380420203E+00 -0.28527545915E+03  0.30046542535E+03  0.90180671634E+02 0.  0.
        -24    2    1    2    0    0  0.70799792206E+02  0.11826393410E+02 -0.71648257587E+03  0.72507671588E+03  0.85067550898E+02 0.  0.
         11    1    4    4    0    0 -0.11474828623E+02 -0.18876919120E+02 -0.10313237157E+03  0.10547177742E+03  0.00000000000E+00 0. -1.
        -12    1    4    4    0    0  0.82274620829E+02  0.30703312530E+02 -0.61335020431E+03  0.61960493846E+03  0.00000000000E+00 0.  1.
        -13    1    3    3    0    0  0.31921100691E+02 -0.29706996157E+02 -0.25380110909E+03  0.25751983470E+03  0.00000000000E+00 0. -1.
         13    1    3    3    0    0 -0.42772116460E+01  0.28903191955E+02 -0.31474350064E+02  0.42945590653E+02  0.00000000000E+00 0.  1.
         -3    1    1    2    0  502 -0.98443681251E+02 -0.11022589208E+02 -0.18921764755E+03  0.21357896431E+03  0.00000000000E+00 0.  1.
<scales pt_clust_5="13000.00000" pt_clust_6="13000.00000" pt_clust_7="13000.00000" pt_clust_8="13000.00000" pt_clust_9="93.08246"></scales>
<clustering>
<clus scale="   85.068">  5  6 -1 -1</clus>
<clus scale="   90.181">  7  8 -1 -1</clus>
<clus scale="   94.326">  2  7  1 -1</clus>
<clus scale="   93.082">  1  9  2 -1</clus>
<clus scale="   93.082">  1  5  2 -1</clus>
</clustering>
</event>
<event>
 9    1  0.4067873E-005  0.2167462E+03  0.7546771E-02  0.1154998E+00
          1   -1    0    0  502    0 -0.00000000000E+00  0.00000000000E+00  0.18963140226E+04  0.18963140226E+04  0.00000000000E+00 0. -1.
         21   -1    0    0  501  502  0.00000000000E+00 -0.00000000000E+00 -0.61378200039E+02  0.61378200039E+02  0.00000000000E+00 0. -1.
        -24    2    1    2    0    0  0.21355249511E+02  0.11102585944E+03  0.65647653955E+03  0.67098866463E+03  0.80508092348E+02 0.  0.
         23    2    1    2    0    0  0.12353291156E+03 -0.17541346991E+03  0.23715227741E+03  0.33213704781E+03  0.89685841603E+02 0.  0.
         13    1    3    3    0    0  0.18397047652E+02  0.11655555977E+03  0.65346237665E+03  0.66403066764E+03  0.00000000000E+00 0. -1.
        -14    1    3    3    0    0  0.29582018591E+01 -0.55297003350E+01  0.30141629021E+01  0.69579969844E+01  0.00000000000E+00 0.  1.
        -13    1    4    4    0    0  0.88092039206E+02 -0.48150010810E+02  0.10542819092E+03  0.14558067987E+03  0.00000000000E+00 0.  1.
         13    1    4    4    0    0  0.35440872350E+02 -0.12726345910E+03  0.13172408649E+03  0.18655636794E+03  0.00000000000E+00 0. -1.
          2    1    1    2  501    0 -0.14488816107E+03  0.64387610477E+02  0.94130700557E+03  0.95456651016E+03  0.00000000000E+00 0. -1.
<scales pt_clust_5="13000.00000" pt_clust_6="13000.00000" pt_clust_7="13000.00000" pt_clust_8="13000.00000" pt_clust_9="197.32052"></scales>
<clustering>
<clus scale="   80.508">  5  6 -1 -1</clus>
<clus scale="   89.686">  7  8 -1 -1</clus>
<clus scale="  138.796">  1  5  2 -1</clus>
<clus scale="  197.321">  2  9  1 -1</clus>
<clus scale="  197.321">  2  5  1 -1</clus>
</clustering>
</event>
<event>
 9    1  0.4067873E-005  0.9240410E+02  0.7546771E-02  0.1304834E+00
         21   -1    0    0  501  502  0.00000000000E+00  0.00000000000E+00  0.60753555233E+02  0.60753555233E+02  0.00000000000E+00 0. -1.
          1   -1    0    0  502    0 -0.00000000000E+00 -0.00000000000E+00 -0.33949010034E+03  0.33949010034E+03  0.00000000000E+00 0. -1.
        -24    2    1    2    0    0  0.10120537946E+02 -0.30288806991E+02 -0.96616370927E+02  0.12940598998E+03  0.79945919179E+02 0.  0.
         23    2    1    2    0    0  0.88114352825E+01 -0.47007867711E+02 -0.46944480597E+02  0.11397574011E+03  0.92191670216E+02 0.  0.
         11    1    3    3    0    0  0.11386194588E+02  0.25776514452E+02 -0.20433169640E+02  0.34807880516E+02  0.00000000000E+00 0. -1.
        -12    1    3    3    0    0 -0.12656566415E+01 -0.56065321442E+02 -0.76183201287E+02  0.94598109461E+02  0.00000000000E+00 0.  1.
        -13    1    4    4    0    0 -0.33338269655E+02  0.74499168818E+01 -0.22487344716E+02  0.40897703572E+02  0.00000000000E+00 0.  1.
         13    1    4    4    0    0  0.42149704937E+02 -0.54457784593E+02 -0.24457135881E+02  0.73078036541E+02  0.00000000000E+00 0. -1.
          2    1    1    2  501    0 -0.18931973229E+02  0.77296674702E+02 -0.13517569358E+03  0.15686192548E+03  0.00000000000E+00 0. -1.
<scales pt_clust_5="13000.00000" pt_clust_6="13000.00000" pt_clust_7="13000.00000" pt_clust_8="13000.00000" pt_clust_9="79.58142"></scales>
<clustering>
<clus scale="   79.581">  1  9  2 -1</clus>
<clus scale="   79.946">  5  6 -1 -1</clus>
<clus scale="   80.191">  2  5  1 -1</clus>
<clus scale="   92.192">  7  8 -1 -1</clus>
<clus scale="   79.581">  1  5  2 -1</clus>
</clustering>
</event>
<event>
 9    1  0.4067873E-005  0.1577824E+03  0.7546771E-02  0.1219775E+00
         21   -1    0    0  501  502  0.00000000000E+00  0.00000000000E+00  0.52297889980E+03  0.52297889980E+03  0.00000000000E+00 0. -1.
          1   -1    0    0  502    0 -0.00000000000E+00 -0.00000000000E+00 -0.84316612991E+02  0.84316612991E+02  0.00000000000E+00 0. -1.
        -24    2    1    2    0    0  0.15619567819E+02  0.18436101867E+02  0.23284733919E+03  0.24799772090E+03  0.81860402212E+02 0.  0.
         23    2    1    2    0    0  0.88130435510E+02 -0.97812527353E+02  0.79348679211E+02  0.17747810881E+03  0.88701758960E+02 0.  0.
         11    1    3    3    0    0  0.34818352945E+02 -0.97080285858E+01  0.18923275028E+03  0.19265408716E+03  0.00000000000E+00 0. -1.
        -12    1    3    3    0    0 -0.19198785126E+02  0.28144130453E+02  0.43614588914E+02  0.55343633739E+02  0.00000000000E+00 0.  1.
        -13    1    4    4    0    0  0.26485064392E+02 -0.59010723008E+02 -0.63654045637E+01  0.64994172362E+02  0.00000000000E+00 0. -1.
         13    1    4    4    0    0  0.61645371118E+02 -0.38801804346E+02  0.85714083775E+02  0.11248393644E+03  0.00000000000E+00 0.  1.
          2    1    1    2  501    0 -0.10375000333E+03  0.79376425486E+02  0.12646626841E+03  0.18181968309E+03  0.00000000000E+00 0. -1.
<scales pt_clust_5="13000.00000" pt_clust_6="13000.00000" pt_clust_7="13000.00000" pt_clust_8="13000.00000" pt_clust_9="130.48861"></scales>
<clustering>
<clus scale="   81.860">  5  6 -1 -1</clus>
<clus scale="   85.352">  2  5  1 -1</clus>
<clus scale="   88.702">  7  8 -1 -1</clus>
<clus scale="  130.489">  1  9  2 -1</clus>
<clus scale="  130.489">  1  5  2 -1</clus>
</clustering>
</event>
<event>
 9    1  0.4067873E-005  0.1611392E+03  0.7546771E-02  0.1188862E+00
         -2   -1    0    0    0  501 -0.00000000000E+00  0.00000000000E+00  0.18896471326E+03  0.18896471326E+03  0.00000000000E+00 0.  1.
         21   -1    0    0  501  502  0.00000000000E+00 -0.00000000000E+00 -0.38499763226E+03  0.38499763226E+03  0.00000000000E+00 0. -1.
        -24    2    1    2    0    0 -0.13534325985E+03  0.39119637037E+01  0.12161916388E+03  0.19929684177E+03  0.81209043034E+02 0.  0.
         23    2    1    2    0    0  0.11455032430E+03 -0.66231897109E+01 -0.32165396802E+03  0.35331809173E+03  0.90591143952E+02 0.  0.
         13    1    3    3    0    0 -0.69378874726E+01 -0.19192990955E+02 -0.75051991557E+00  0.20422254149E+02  0.00000000000E+00 0. -1.
        -14    1    3    3    0    0 -0.12840537238E+03  0.23104954659E+02  0.12236968379E+03  0.17887458762E+03  0.00000000000E+00 0.  1.
        -11    1    4    4    0    0  0.57340569612E+02  0.35079065582E+02 -0.98874286493E+02  0.11956005309E+03  0.00000000000E+00 0.  1.
         11    1    4    4    0    0  0.57209754690E+02 -0.41702255293E+02 -0.22277968153E+03  0.23375803864E+03  0.00000000000E+00 0. -1.
         -1    1    1    2    0  502  0.20792935547E+02  0.27112260073E+01  0.40018851428E+01  0.21347412017E+02  0.00000000000E+00 0.  1.
<scales pt_clust_5="13000.00000" pt_clust_6="13000.00000" pt_clust_7="13000.00000" pt_clust_8="13000.00000" pt_clust_9="20.96896"></scales>
<clustering>
<clus scale="   20.969">  2  9  1 -1</clus>
<clus scale="   81.209">  5  6 -1 -1</clus>
<clus scale="   90.591">  7  8 -1 -1</clus>
<clus scale="  156.058">  1  5  2 -1</clus>
<clus scale="   20.969">  2  5  1 -1</clus>
</clustering>
</event>
<event>
 9    1  0.4067873E-005  0.1049261E+03  0.7546771E-02  0.1281530E+00
          1   -1    0    0  502    0 -0.00000000000E+00  0.00000000000E+00  0.62802215686E+03  0.62802215686E+03  0.00000000000E+00 0. -1.
         21   -1    0    0  501  502  0.00000000000E+00 -0.00000000000E+00 -0.20441770539E+02  0.20441770539E+02  0.00000000000E+00 0. -1.
         23    2    1    2    0    0  0.27307321141E+02 -0.34091779082E+02  0.29436461878E+03  0.31088116831E+03  0.89936826898E+02 0.  0.
        -24    2    1    2    0    0 -0.55684683698E+02  0.39288206108E+02  0.20535779544E+03  0.22593321943E+03  0.65035746761E+02 0.  0.
         11    1    4    4    0    0 -0.62830070121E+02  0.39826302669E+02  0.12650721355E+03  0.14675771590E+03  0.00000000000E+00 0. -1.
        -12    1    4    4    0    0  0.71453864230E+01 -0.53809656162E+00  0.78850581893E+02  0.79175503535E+02  0.00000000000E+00 0.  1.
        -11    1    3    3    0    0 -0.23340676354E+02 -0.41945692498E+02  0.12372857988E+03  0.13271393962E+03  0.00000000000E+00 0.  1.
         11    1    3    3    0    0  0.50647997495E+02  0.78539134155E+01  0.17063603890E+03  0.17816722869E+03  0.00000000000E+00 0. -1.
          2    1    1    2  501    0  0.28377362557E+02 -0.51964270254E+01  0.10785797210E+03  0.11164953966E+03  0.00000000000E+00 0. -1.
<scales pt_clust_5="13000.00000" pt_clust_6="13000.00000" pt_clust_7="13000.00000" pt_clust_8="13000.00000" pt_clust_9="28.84924"></scales>
<clustering>
<clus scale="   28.849">  2  9  1 -1</clus>
<clus scale="   65.036">  5  6 -1 -1</clus>
<clus scale="   84.561">  2  5  1 -1</clus>
<clus scale="   89.937">  7  8 -1 -1</clus>
<clus scale="   28.849">  2  5  1 -1</clus>
</clustering>
</event>
<event>
 9    1  0.4067873E-005  0.1110095E+03  0.7546771E-02  0.1263073E+00
         -2   -1    0    0    0  501 -0.00000000000E+00  0.00000000000E+00  0.12554824919E+03  0.12554824919E+03  0.00000000000E+00 0.  1.
         21   -1    0    0  501  502  0.00000000000E+00 -0.00000000000E+00 -0.29870365298E+03  0.29870365298E+03  0.00000000000E+00 0. -1.
         23    2    1    2    0    0  0.41079247774E+02  0.63242544911E+02 -0.10089436658E+01  0.11872951859E+03  0.91698181733E+02 0.  0.
        -24    2    1    2    0    0  0.48528431662E+01 -0.20458051536E+02 -0.21433312880E+03  0.22989180202E+03  0.80433006769E+02 0.  0.
         13    1    4    4    0    0 -0.19998006202E+01  0.24099557104E+02 -0.14625208959E+03  0.14823785470E+03  0.00000000000E+00 0. -1.
        -14    1    4    4    0    0  0.68526437865E+01 -0.44557608640E+02 -0.68081039204E+02  0.81653947325E+02  0.00000000000E+00 0.  1.
        -13    1    3    3    0    0  0.41492891754E+02 -0.93978006304E+01  0.13537708695E+02  0.44645809204E+02  0.00000000000E+00 0. -1.
         13    1    3    3    0    0 -0.41364397974E+00  0.72640345541E+02 -0.14546652361E+02  0.74083709388E+02  0.00000000000E+00 0.  1.
         -1    1    1    2    0  502 -0.45932090940E+02 -0.42784493375E+02  0.42186668675E+02  0.75630581548E+02  0.00000000000E+00 0.  1.
<scales pt_clust_5="13000.00000" pt_clust_6="13000.00000" pt_clust_7="13000.00000" pt_clust_8="13000.00000" pt_clust_9="62.77160"></scales>
<clustering>
<clus scale="   62.772">  2  9  1 -1</clus>
<clus scale="   80.433">  5  6 -1 -1</clus>
<clus scale="   91.698">  7  8 -1 -1</clus>
<clus scale="  101.902">  2  5  1 -1</clus>
<clus scale="   62.772">  2  5  1 -1</clus>
</clustering>
</event>
<event>
 9    1  0.4067873E-005  0.1030156E+03  0.7546771E-02  0.1274782E+00
          1   -1    0    0  502    0 -0.00000000000E+00  0.00000000000E+00  0.33267872653E+03  0.33267872653E+03  0.00000000000E+00 0. -1.
         21   -1    0    0  501  502  0.00000000000E+00 -0.00000000000E+00 -0.56080115151E+02  0.56080115151E+02  0.00000000000E+00 0.  1.
        -24    2    1    2    0    0  0.18775898047E+01 -0.60973536491E+02  0.20924310117E+03  0.23511139353E+03  0.88166855923E+02 0.  0.
         23    2    1    2    0    0  0.48266668488E+01  0.32154102608E+02  0.76871482678E+02  0.12256593341E+03  0.89755223561E+02 0.  0.
         11    1    3    3    0    0  0.67518046034E+00 -0.77817925125E+02  0.20248060156E+03  0.21692044474E+03  0.00000000000E+00 0. -1.
        -12    1    3    3    0    0  0.12024093444E+01  0.16844388634E+02  0.67624996088E+01  0.18190948783E+02  0.00000000000E+00 0.  1.
        -13    1    4    4    0    0 -0.40837228895E+02  0.24971633911E+01  0.35770276197E+02  0.54345448273E+02  0.00000000000E+00 0.  1.
         13    1    4    4    0    0  0.45663895744E+02  0.29656939217E+02  0.41101206482E+02  0.68220485139E+02  0.00000000000E+00 0. -1.
          2    1    1    2  501    0 -0.67042566535E+01  0.28819433883E+02 -0.95159724692E+01  0.31081514742E+02  0.00000000000E+00 0. -1.
<scales pt_clust_5="13000.00000" pt_clust_6="13000.00000" pt_clust_7="13000.00000" pt_clust_8="13000.00000" pt_clust_9="29.58896"></scales>
<clustering>
<clus scale="   29.589">  2  9  1 -1</clus>
<clus scale="   88.167">  5  6 -1 -1</clus>
<clus scale="   89.755">  7  8 -1 -1</clus>
<clus scale="  101.635">  1  5  2 -1</clus>
<clus scale="   29.589">  2  5  1 -1</clus>
</clustering>
</event>
<event>
 9    1  0.4067873E-005  0.9931998E+02  0.7546771E-02  0.1287962E+00
         -4   -1    0    0    0  501 -0.00000000000E+00  0.00000000000E+00  0.12444394211E+03  0.12444394211E+03  0.00000000000E+00 0.  1.
         21   -1    0    0  501  502  0.00000000000E+00 -0.00000000000E+00 -0.17318282886E+03  0.17318282886E+03  0.00000000000E+00 0.  1.
        -24    2    1    2    0    0 -0.74195605438E+01  0.37401819013E+01 -0.93695015399E+01  0.83650155989E+02  0.82707449474E+02 0.  0.
         23    2    1    2    0    0  0.80467587202E+01 -0.82075527632E+02 -0.49954929157E+02  0.13492679836E+03  0.94385398269E+02 0.  0.
         13    1    3    3    0    0 -0.60879365696E+01 -0.34299762278E+02  0.15556572637E+02  0.38151587336E+02  0.00000000000E+00 0. -1.
        -14    1    3    3    0    0 -0.13316239742E+01  0.38039944179E+02 -0.24926074177E+02  0.45498568653E+02  0.00000000000E+00 0.  1.
        -13    1    4    4    0    0  0.33531485260E+02 -0.82877954382E+02 -0.59837893755E+02  0.10758108270E+03  0.00000000000E+00 0.  1.
         13    1    4    4    0    0 -0.25484726540E+02  0.80242675061E+00  0.98829645984E+01  0.27345715656E+02  0.00000000000E+00 0. -1.
         -3    1    1    2    0  502 -0.62719817649E+00  0.78335345730E+02  0.10585543947E+02  0.79049816628E+02  0.00000000000E+00 0.  1.
<scales pt_clust_5="13000.00000" pt_clust_6="13000.00000" pt_clust_7="13000.00000" pt_clust_8="13000.00000" pt_clust_9="78.33790"></scales>
<clustering>
<clus scale="   78.338">  2  9  1 -1</clus>
<clus scale="   82.707">  5  6 -1 -1</clus>
<clus scale="   88.297">  1  5  2 -1</clus>
<clus scale="   94.385">  7  8 -1 -1</clus>
<clus scale="   78.338">  2  5  1 -1</clus>
</clustering>
</event>
<event>
 9    1  0.4067873E-005  0.1008332E+03  0.7546771E-02  0.1284951E+00
         21   -1    0    0  501  502  0.00000000000E+00  0.00000000000E+00  0.10792700064E+03  0.10792700064E+03  0.00000000000E+00 0.  1.
         -2   -1    0    0    0  501 -0.00000000000E+00 -0.00000000000E+00 -0.25673025675E+03  0.25673025675E+03  0.00000000000E+00 0.  1.
         23    2    1    2    0    0  0.19237657628E+02  0.28736502309E+02 -0.15053846688E+03  0.17996488834E+03  0.92356142130E+02 0.  0.
        -24    2    1    2    0    0  0.92889411501E+01 -0.60691564112E+02 -0.54218580367E+02  0.11422450718E+03  0.79610509363E+02 0.  0.
         13    1    4    4    0    0 -0.17140744613E+01 -0.28232566317E+02  0.18525138333E+02  0.33811190490E+02  0.00000000000E+00 0. -1.
        -14    1    4    4    0    0  0.11003015611E+02 -0.32458997795E+02 -0.72743718700E+02  0.80413316688E+02  0.00000000000E+00 0.  1.
        -11    1    3    3    0    0 -0.34223006625E+02  0.20801041864E+02 -0.38410024253E+02  0.55490787417E+02  0.00000000000E+00 0. -1.
         11    1    3    3    0    0  0.53460664253E+02  0.79354604450E+01 -0.11212844263E+03  0.12447410093E+03  0.00000000000E+00 0.  1.
         -1    1    1    2    0  502 -0.28526598779E+02  0.31955061803E+02  0.55953791138E+02  0.70467861862E+02  0.00000000000E+00 0.  1.
<scales pt_clust_5="13000.00000" pt_clust_6="13000.00000" pt_clust_7="13000.00000" pt_clust_8="13000.00000" pt_clust_9="42.83565"></scales>
<clustering>
<clus scale="   42.836">  1  9  2 -1</clus>
<clus scale="   79.611">  5  6 -1 -1</clus>
<clus scale="   89.306">  1  5  2 -1</clus>
<clus scale="   92.356">  7  8 -1 -1</clus>
<clus scale="   42.836">  1  5  2 -1</clus>
</clustering>
</event>
<event>
 9    1  0.4067873E-005  0.2810699E+03  0.7546771E-02  0.1118613E+00
         -2   -1    0    0    0  501 -0.00000000000E+00  0.00000000000E+00  0.12072600622E+04  0.12072600622E+04  0.00000000000E+00 0.  1.
         21   -1    0    0  501  502  0.00000000000E+00 -0.00000000000E+00 -0.13987170442E+03  0.13987170442E+03  0.00000000000E+00 0.  1.
        -24    2    1    2    0    0  0.86311048198E+02 -0.10077316231E+03  0.55658070207E+03  0.57746564524E+03  0.77972214502E+02 0.  0.
         23    2    1    2    0    0 -0.28238158163E+03 -0.71511029217E+02  0.34185554083E+03  0.45874762104E+03  0.93439734943E+02 0.  0.
         13    1    3    3    0    0  0.63444881055E+02 -0.73116869530E+02  0.23895663931E+03  0.25782087777E+03  0.00000000000E+00 0. -1.
        -14    1    3    3    0    0  0.22866167143E+02 -0.27656292782E+02  0.31762406276E+03  0.31964476747E+03  0.00000000000E+00 0.  1.
        -13    1    4    4    0    0 -0.16784482296E+03 -0.46983259057E+02  0.13283782830E+03  0.21914652599E+03  0.00000000000E+00 0.  1.
         13    1    4    4    0    0 -0.11453675867E+03 -0.24527770160E+02  0.20901771254E+03  0.23960109505E+03  0.00000000000E+00 0. -1.
         -1    1    1    2    0  502  0.19607053343E+03  0.17228419153E+03  0.16895211485E+03  0.31091850032E+03  0.00000000000E+00 0.  1.
<scales pt_clust_5="13000.00000" pt_clust_6="13000.00000" pt_clust_7="13000.00000" pt_clust_8="13000.00000" pt_clust_9="265.08356"></scales>
<clustering>
<clus scale="   77.972">  5  6 -1 -1</clus>
<clus scale="   93.440">  7  8 -1 -1</clus>
<clus scale="  153.898">  1  5  2 -1</clus>
<clus scale="  265.084">  2  9  1 -1</clus>
<clus scale="  265.084">  2  5  1 -1</clus>
</clustering>
</event>
<event>
 9    1  0.4067873E-005  0.1519504E+03  0.7546771E-02  0.1212979E+00
         21   -1    0    0  501  502  0.00000000000E+00  0.00000000000E+00  0.42076925790E+02  0.42076925790E+02  0.00000000000E+00 0. -1.
          1   -1    0    0  502    0 -0.00000000000E+00 -0.00000000000E+00 -0.10691042841E+04  0.10691042841E+04  0.00000000000E+00 0. -1.
        -24    2    1    2    0    0 -0.59301070078E+02 -0.46162050774E+02 -0.35092402689E+03  0.36785493105E+03  0.80759060184E+02 0.  0.
         23    2    1    2    0    0 -0.10047815512E+02  0.14292440244E+03 -0.51941204547E+03  0.54654116832E+03  0.91597119329E+02 0.  0.
         13    1    3    3    0    0 -0.72465782437E+02 -0.48148215167E+02 -0.33898554882E+03  0.34997248829E+03  0.00000000000E+00 0. -1.
        -14    1    3    3    0    0  0.13164712359E+02  0.19861643938E+01 -0.11938478075E+02  0.17882442765E+02  0.00000000000E+00 0.  1.
        -13    1    4    4    0    0 -0.41690275652E+02  0.12654614287E+03 -0.38133137898E+03  0.40393765108E+03  0.00000000000E+00 0. -1.
         13    1    4    4    0    0  0.31642460141E+02  0.16378259572E+02 -0.13808066649E+03  0.14260351724E+03  0.00000000000E+00 0.  1.
          2    1    1    2  501    0  0.69348885590E+02 -0.96762351670E+02 -0.15669128592E+03  0.19678511051E+03  0.00000000000E+00 0. -1.
<scales pt_clust_5="13000.00000" pt_clust_6="13000.00000" pt_clust_7="13000.00000" pt_clust_8="13000.00000" pt_clust_9="121.23904"></scales>
<clustering>
<clus scale="   80.759">  5  6 -1 -1</clus>
<clus scale="   91.597">  7  8 -1 -1</clus>
<clus scale="  110.316">  2  5  1 -1</clus>
<clus scale="  121.239">  1  9  2 -1</clus>
<clus scale="  121.239">  1  5  2 -1</clus>
</clustering>
</event>
<event>
 9    1  0.4067873E-005  0.9507250E+02  0.7546771E-02  0.1296368E+00
          1   -1    0    0  502    0 -0.00000000000E+00  0.00000000000E+00  0.39053474236E+03  0.39053474236E+03  0.00000000000E+00 0. -1.
         21   -1    0    0  501  502  0.00000000000E+00 -0.00000000000E+00 -0.12880476838E+03  0.12880476838E+03  0.00000000000E+00 0. -1.
        -24    2    1    2    0    0  0.32615116700E+02 -0.88974852756E+01  0.26948209632E+03  0.28312169147E+03  0.79964872671E+02 0.  0.
         23    2    1    2    0    0 -0.28931554617E+02 -0.16716821195E+02  0.92279620646E+02  0.13289303557E+03  0.89602140331E+02 0.  0.
         11    1    3    3    0    0  0.62709100759E+01 -0.39606811635E+02  0.18698706187E+03  0.19123855560E+03  0.00000000000E+00 0. -1.
        -12    1    3    3    0    0  0.26344206624E+02  0.30709326359E+02  0.82495034445E+02  0.91883135864E+02  0.00000000000E+00 0.  1.
        -11    1    4    4    0    0  0.27353929247E+02  0.14818471806E+02  0.30433946046E+02  0.43520680416E+02  0.00000000000E+00 0.  1.
         11    1    4    4    0    0 -0.56285483864E+02 -0.31535293001E+02  0.61845674600E+02  0.89372355150E+02  0.00000000000E+00 0. -1.
          2    1    1    2  501    0 -0.36835620834E+01  0.25614306470E+02 -0.10003174298E+03  0.10332478371E+03  0.00000000000E+00 0. -1.
<scales pt_clust_5="13000.00000" pt_clust_6="13000.00000" pt_clust_7="13000.00000" pt_clust_8="13000.00000" pt_clust_9="25.87782"></scales>
<clustering>
<clus scale="   25.878">  2  9  1 -1</clus>
<clus scale="   79.965">  5  6 -1 -1</clus>
<clus scale="   86.050">  1  5  2 -1</clus>
<clus scale="   89.602">  7  8 -1 -1</clus>
<clus scale="   25.878">  2  5  1 -1</clus>
</clustering>
</event>
<event>
 9    1  0.4067873E-005  0.1077671E+03  0.7546771E-02  0.1281412E+00
         21   -1    0    0  501  502  0.00000000000E+00  0.00000000000E+00  0.25223778064E+03  0.25223778064E+03  0.00000000000E+00 0.  1.
         -2   -1    0    0    0  501 -0.00000000000E+00 -0.00000000000E+00 -0.74426400387E+02  0.74426400387E+02  0.00000000000E+00 0.  1.
        -24    2    1    2    0    0 -0.14505176541E-02 -0.48251682772E+02  0.32404177194E+02  0.84668881113E+02  0.61567555066E+02 0.  0.
         23    2    1    2    0    0  0.16133939243E+02 -0.35933668642E+02  0.11243846194E+03  0.15015648200E+03  0.91394905906E+02 0.  0.
         13    1    3    3    0    0  0.22280200732E+02 -0.15800797370E+02  0.35945411467E+02  0.45145820933E+02  0.00000000000E+00 0. -1.
        -14    1    3    3    0    0 -0.22281651249E+02 -0.32450885403E+02 -0.35412342727E+01  0.39523060180E+02  0.00000000000E+00 0.  1.
        -11    1    4    4    0    0  0.32802429848E+02  0.12533620758E+02  0.85116246344E+02  0.92075330273E+02  0.00000000000E+00 0.  1.
         11    1    4    4    0    0 -0.16668490605E+02 -0.48467289399E+02  0.27322215595E+02  0.58081151726E+02  0.00000000000E+00 0. -1.
         -1    1    1    2    0  502 -0.16132488725E+02  0.84185351414E+02  0.32968741120E+02  0.91838817916E+02  0.00000000000E+00 0.  1.
<scales pt_clust_5="13000.00000" pt_clust_6="13000.00000" pt_clust_7="13000.00000" pt_clust_8="13000.00000" pt_clust_9="57.10266"></scales>
<clustering>
<clus scale="   61.568">  5  6 -1 -1</clus>
<clus scale="   78.223">  2  5  1 -1</clus>
<clus scale="   57.103">  1  9  2 -1</clus>
<clus scale="   91.395">  7  8 -1 -1</clus>
<clus scale="   57.103">  1  5  2 -1</clus>
</clustering>
</event>
<event>
 9    1  0.4067873E-005  0.9345541E+02  0.7546771E-02  0.1300965E+00
         21   -1    0    0  501  502  0.00000000000E+00  0.00000000000E+00  0.17901166405E+02  0.17901166405E+02  0.00000000000E+00 0.  1.
          1   -1    0    0  502    0 -0.00000000000E+00 -0.00000000000E+00 -0.88012933532E+03  0.88012933532E+03  0.00000000000E+00 0. -1.
        -24    2    1    2    0    0  0.23406779808E+02 -0.31658220070E+02 -0.37098536595E+03  0.38139596840E+03  0.79262997207E+02 0.  0.
         23    2    1    2    0    0 -0.18613003066E+02 -0.22934065641E+02 -0.21371211808E+03  0.23374483926E+03  0.89952016185E+02 0.  0.
         13    1    3    3    0    0  0.82825167581E+01 -0.48256289218E+02 -0.12286265471E+03  0.13225922068E+03  0.00000000000E+00 0. -1.
        -14    1    3    3    0    0  0.15124263050E+02  0.16598069148E+02 -0.24812271124E+03  0.24913674772E+03  0.00000000000E+00 0.  1.
        -13    1    4    4    0    0  0.26395640061E+02 -0.17371539362E+02 -0.26873980335E+02  0.41481453845E+02  0.00000000000E+00 0.  1.
         13    1    4    4    0    0 -0.45008643127E+02 -0.55625262785E+01 -0.18683813775E+03  0.19226338541E+03  0.00000000000E+00 0. -1.
          2    1    1    2  501    0 -0.47937767421E+01  0.54592285711E+02 -0.27753068489E+03  0.28288969407E+03  0.00000000000E+00 0. -1.
<scales pt_clust_5="13000.00000" pt_clust_6="13000.00000" pt_clust_7="13000.00000" pt_clust_8="13000.00000" pt_clust_9="54.80238"></scales>
<clustering>
<clus scale="   54.802">  1  9  2 -1</clus>
<clus scale="   79.263">  5  6 -1 -1</clus>
<clus scale="   83.218">  2  5  1 -1</clus>
<clus scale="   89.952">  7  8 -1 -1</clus>
<clus scale="   54.802">  1  5  2 -1</clus>
</clustering>
</event>
<event>
 9    1  0.4067873E-005  0.9208940E+02  0.7546771E-02  0.1304936E+00
         21   -1    0    0  501  502  0.00000000000E+00  0.00000000000E+00  0.22004073037E+03  0.22004073037E+03  0.00000000000E+00 0. -1.
          1   -1    0    0  502    0 -0.00000000000E+00 -0.00000000000E+00 -0.68305154877E+02  0.68305154877E+02  0.00000000000E+00 0. -1.
        -24    2    1    2    0    0  0.11373496772E+02  0.10113385064E+02  0.23424959233E+02  0.85364104394E+02  0.80663899098E+02 0.  0.
         23    2    1    2    0    0  0.93678550871E+01  0.29537120367E+02  0.12484938349E+03  0.15810031040E+03  0.91913771559E+02 0.  0.
         13    1    3    3    0    0  0.77622459612E+00  0.22345037757E+02  0.49704088993E+02  0.54501373373E+02  0.00000000000E+00 0. -1.
        -14    1    3    3    0    0  0.10597272176E+02 -0.12231652692E+02 -0.26279129760E+02  0.30862731021E+02  0.00000000000E+00 0.  1.
        -13    1    4    4    0    0 -0.28984819351E+02  0.15125252803E+02  0.71402347946E+01  0.33464548078E+02  0.00000000000E+00 0.  1.
         13    1    4    4    0    0  0.38352674438E+02  0.14411867564E+02  0.11770914869E+03  0.12463576232E+03  0.00000000000E+00 0. -1.
          2    1    1    2  501    0 -0.20741351859E+02 -0.39650505431E+02  0.34612327742E+01  0.44881470455E+02  0.00000000000E+00 0. -1.
<scales pt_clust_5="13000.00000" pt_clust_6="13000.00000" pt_clust_7="13000.00000" pt_clust_8="13000.00000" pt_clust_9="44.74783"></scales>
<clustering>
<clus scale="   44.748">  1  9  2 -1</clus>
<clus scale="   80.664">  5  6 -1 -1</clus>
<clus scale="   80.864">  2  5  1 -1</clus>
<clus scale="   91.914">  7  8 -1 -1</clus>
<clus scale="   44.748">  1  5  2 -1</clus>
</clustering>
</event>
<event>
 9    1  0.4067873E-005  0.9181942E+02  0.7546771E-02  0.1303407E+00
         21   -1    0    0  501  502  0.00000000000E+00  0.00000000000E+00  0.15922068293E+03  0.15922068293E+03  0.00000000000E+00 0.  1.
         -2   -1    0    0    0  501 -0.00000000000E+00 -0.00000000000E+00 -0.10293849759E+03  0.10293849759E+03  0.00000000000E+00 0.  1.
         23    2    1    2    0    0 -0.18151794616E+02  0.10173251166E+02 -0.39545565690E+02  0.10152382930E+03  0.91160591614E+02 0.  0.
        -24    2    1    2    0    0 -0.13783316585E+02 -0.33541979599E+01  0.34502286371E+02  0.91157560313E+02  0.83174891508E+02 0.  0.
         11    1    4    4    0    0  0.28022029134E+02  0.16552132721E+02 -0.13860349745E+01  0.32574964426E+02  0.00000000000E+00 0. -1.
        -12    1    4    4    0    0 -0.41805345719E+02 -0.19906330681E+02  0.35888321345E+02  0.58582595887E+02  0.00000000000E+00 0.  1.
        -13    1    3    3    0    0 -0.53891149142E+02  0.16836948343E+02 -0.30003945095E+02  0.63937277910E+02  0.00000000000E+00 0.  1.
         13    1    3    3    0    0  0.35739354526E+02 -0.66636971769E+01 -0.95416205951E+01  0.37586551392E+02  0.00000000000E+00 0. -1.
         -1    1    1    2    0  502  0.31935111201E+02 -0.68190532063E+01  0.61325464652E+02  0.69477790904E+02  0.00000000000E+00 0.  1.
<scales pt_clust_5="13000.00000" pt_clust_6="13000.00000" pt_clust_7="13000.00000" pt_clust_8="13000.00000" pt_clust_9="32.65503"></scales>
<clustering>
<clus scale="   32.655">  1  9  2 -1</clus>
<clus scale="   83.175">  5  6 -1 -1</clus>
<clus scale="   83.896">  1  5  2 -1</clus>
<clus scale="   91.161">  7  8 -1 -1</clus>
<clus scale="   32.655">  1  5  2 -1</clus>
</clustering>
</event>
<event>
 9    1  0.4067873E-005  0.9611429E+02  0.7546771E-02  0.1291303E+00
          1   -1    0    0  502    0 -0.00000000000E+00  0.00000000000E+00  0.16081491827E+03  0.16081491827E+03  0.00000000000E+00 0. -1.
         21   -1    0    0  501  502  0.00000000000E+00 -0.00000000000E+00 -0.99945513967E+02  0.99945513967E+02  0.00000000000E+00 0.  1.
        -24    2    1    2    0    0 -0.50855423103E+02 -0.97582330738E+00  0.41156469270E+02  0.10757320625E+03  0.85386845890E+02 0.  0.
         23    2    1    2    0    0  0.30942244265E+01  0.78191378727E+00 -0.18247510646E+02  0.92177676433E+02  0.90297102799E+02 0.  0.
         13    1    3    3    0    0 -0.73099001189E+02  0.76405471033E+00  0.17730789549E+02  0.75222527560E+02  0.00000000000E+00 0. -1.
        -14    1    3    3    0    0  0.22243578086E+02 -0.17398780177E+01  0.23425679722E+02  0.32350678695E+02  0.00000000000E+00 0.  1.
        -13    1    4    4    0    0 -0.21455234220E+02  0.24917779002E+02 -0.39749787420E+02  0.51587482840E+02  0.00000000000E+00 0.  1.
         13    1    4    4    0    0  0.24549458646E+02 -0.24135865215E+02  0.21502276774E+02  0.40590193594E+02  0.00000000000E+00 0. -1.
          2    1    1    2  501    0  0.47761198676E+02  0.19390952010E+00  0.37960445673E+02  0.61009549544E+02  0.00000000000E+00 0. -1.
<scales pt_clust_5="13000.00000" pt_clust_6="13000.00000" pt_clust_7="13000.00000" pt_clust_8="13000.00000" pt_clust_9="47.76162"></scales>
<clustering>
<clus scale="   47.762">  2  9  1 -1</clus>
<clus scale="   85.387">  5  6 -1 -1</clus>
<clus scale="   90.297">  7  8 -1 -1</clus>
<clus scale="   91.517">  1  5  2 -1</clus>
<clus scale="   47.762">  2  5  1 -1</clus>
</clustering>
</event>
<event>
 9    1  0.4067873E-005  0.1476934E+03  0.7546771E-02  0.1205664E+00
          1   -1    0    0  502    0 -0.00000000000E+00  0.00000000000E+00  0.61472433701E+03  0.61472433701E+03  0.00000000000E+00 0. -1.
         21   -1    0    0  501  502  0.00000000000E+00 -0.00000000000E+00 -0.41911172370E+02  0.41911172370E+02  0.00000000000E+00 0. -1.
        -24    2    1    2    0    0  0.96824042532E+02 -0.61079855990E+02  0.26914470597E+03  0.30383450492E+03  0.82285415547E+02 0.  0.
         23    2    1    2    0    0 -0.78187671939E+02  0.84615304151E+02  0.26441358315E+03  0.30338261839E+03  0.94092552562E+02 0.  0.
         13    1    3    3    0    0  0.53746496935E+02 -0.49251067196E+02  0.74901960900E+02  0.10452108543E+03  0.00000000000E+00 0. -1.
        -14    1    3    3    0    0  0.43077545597E+02 -0.11828788794E+02  0.19424274507E+03  0.19931341949E+03  0.00000000000E+00 0.  1.
        -11    1    4    4    0    0 -0.93975070160E+02  0.61069692827E+02  0.24381575682E+03  0.26834109724E+03  0.00000000000E+00 0. -1.
         11    1    4    4    0    0  0.15787398221E+02  0.23545611324E+02  0.20597826332E+02  0.35041521154E+02  0.00000000000E+00 0.  1.
          2    1    1    2  501    0 -0.18636370593E+02 -0.23535448161E+02  0.39254875522E+02  0.49418386065E+02  0.00000000000E+00 0. -1.
<scales pt_clust_5="13000.00000" pt_clust_6="13000.00000" pt_clust_7="13000.00000" pt_clust_8="13000.00000" pt_clust_9="30.02052"></scales>
<clustering>
<clus scale="   30.021">  2  9  1 -1</clus>
<clus scale="   82.285">  5  6 -1 -1</clus>
<clus scale="   94.093">  7  8 -1 -1</clus>
<clus scale="  140.466">  1  5  2 -1</clus>
<clus scale="   30.021">  2  5  1 -1</clus>
</clustering>
</event>
<event>
 9    1  0.4067873E-005  0.9565249E+02  0.7546771E-02  0.1292465E+00
         21   -1    0    0  501  502  0.00000000000E+00  0.00000000000E+00  0.50619651478E+02  0.50619651478E+02  0.00000000000E+00 0. -1.
          1   -1    0    0  502    0 -0.00000000000E+00 -0.00000000000E+00 -0.73744578250E+03  0.73744578250E+03  0.00000000000E+00 0. -1.
         23    2    1    2    0    0 -0.58556660139E+02  0.45846267780E+01 -0.49714121943E+03  0.50777697122E+03  0.85077371825E+02 0.  0.
        -24    2    1    2    0    0  0.22488256033E+02  0.35106141875E+01 -0.21833497355E+03  0.23352000382E+03  0.79645372980E+02 0.  0.
         11    1    4    4    0    0 -0.21116928080E+02  0.24458556088E+02 -0.62650732796E+02  0.70492977929E+02  0.00000000000E+00 0. -1.
        -12    1    4    4    0    0  0.43605184113E+02 -0.20947941900E+02 -0.15568424076E+03  0.16302702589E+03  0.00000000000E+00 0.  1.
        -13    1    3    3    0    0 -0.57316283499E+02 -0.32743266008E+02 -0.31211230483E+03  0.31901625139E+03  0.00000000000E+00 0.  1.
         13    1    3    3    0    0 -0.12403766399E+01  0.37327892786E+02 -0.18502891460E+03  0.18876071984E+03  0.00000000000E+00 0. -1.
          2    1    1    2  501    0  0.36068404106E+02 -0.80952409655E+01  0.28650061959E+02  0.46768458936E+02  0.00000000000E+00 0. -1.
<scales pt_clust_5="13000.00000" pt_clust_6="13000.00000" pt_clust_7="13000.00000" pt_clust_8="13000.00000" pt_clust_9="36.96570"></scales>
<clustering>
<clus scale="   36.966">  1  9  2 -1</clus>
<clus scale="   79.645">  5  6 -1 -1</clus>
<clus scale="   85.077">  7  8 -1 -1</clus>
<clus scale="   90.855">  1  5  2 -1</clus>
<clus scale="   36.966">  1  5  2 -1</clus>
</clustering>
</event>
<event>
 9    1  0.4067873E-005  0.9092888E+02  0.7546771E-02  0.1307493E+00
         21   -1    0    0  501  502  0.00000000000E+00  0.00000000000E+00  0.19646921302E+03  0.19646921302E+03  0.00000000000E+00 0.  1.
          3   -1    0    0  502    0 -0.00000000000E+00 -0.00000000000E+00 -0.10345180310E+03  0.10345180310E+03  0.00000000000E+00 0. -1.
         23    2    1    2    0    0  0.12259596430E+02 -0.22828166395E+02 -0.23043911218E+02  0.96714321964E+02  0.90284081338E+02 0.  0.
        -24    2    1    2    0    0 -0.34642947609E+01 -0.90390538808E+01 -0.25604430166E+01  0.80064499963E+02  0.79435901534E+02 0.  0.
         13    1    4    4    0    0 -0.10860811495E+02 -0.33821558454E+02 -0.26893193518E+02  0.44554448714E+02  0.00000000000E+00 0. -1.
        -14    1    4    4    0    0  0.73965167344E+01  0.24782504573E+02  0.24332750502E+02  0.35510051249E+02  0.00000000000E+00 0.  1.
        -11    1    3    3    0    0 -0.37389882647E+02 -0.77587247020E+01  0.36569970219E+01  0.38361110001E+02  0.00000000000E+00 0.  1.
         11    1    3    3    0    0  0.49649479076E+02 -0.15069441693E+02 -0.26700908240E+02  0.58353211962E+02  0.00000000000E+00 0. -1.
          4    1    1    2  501    0 -0.87953016688E+01  0.31867220275E+02  0.11862176415E+03  0.12314219419E+03  0.00000000000E+00 0. -1.
<scales pt_clust_5="13000.00000" pt_clust_6="13000.00000" pt_clust_7="13000.00000" pt_clust_8="13000.00000" pt_clust_9="33.05869"></scales>
<clustering>
<clus scale="   33.059">  1  9  2 -1</clus>
<clus scale="   79.436">  5  6 -1 -1</clus>
<clus scale="   80.168">  1  5  2 -1</clus>
<clus scale="   90.284">  7  8 -1 -1</clus>
<clus scale="   33.059">  1  5  2 -1</clus>
</clustering>
</event>
<event>
 9    1  0.4067873E-005  0.1685974E+03  0.7546771E-02  0.1198393E+00
          1   -1    0    0  502    0 -0.00000000000E+00  0.00000000000E+00  0.88613258793E+03  0.88613258793E+03  0.00000000000E+00 0. -1.
         21   -1    0    0  501  502  0.00000000000E+00 -0.00000000000E+00 -0.61708375461E+02  0.61708375461E+02  0.00000000000E+00 0. -1.
         23    2    1    2    0    0 -0.38502197996E+02 -0.51015631296E+02  0.11543888447E+03  0.15981630749E+03  0.90167079376E+02 0.  0.
        -24    2    1    2    0    0 -0.16836269545E+02 -0.10662108236E+03  0.51451165337E+03  0.53164273454E+03  0.79184850553E+02 0.  0.
         13    1    4    4    0    0 -0.37188744801E+02 -0.93979954129E+02  0.31798490623E+03  0.33366095832E+03  0.00000000000E+00 0. -1.
        -14    1    4    4    0    0  0.20352475256E+02 -0.12641128230E+02  0.19652674715E+03  0.19798177622E+03  0.00000000000E+00 0.  1.
        -13    1    3    3    0    0 -0.25473487878E+02  0.18894461171E+02  0.65942030911E+02  0.73172745529E+02  0.00000000000E+00 0.  1.
         13    1    3    3    0    0 -0.13028710118E+02 -0.69910092467E+02  0.49496853562E+02  0.86643561957E+02  0.00000000000E+00 0. -1.
          2    1    1    2  501    0  0.55338467541E+02  0.15763671365E+03  0.19447367463E+03  0.25638192137E+03  0.00000000000E+00 0. -1.
<scales pt_clust_5="13000.00000" pt_clust_6="13000.00000" pt_clust_7="13000.00000" pt_clust_8="13000.00000" pt_clust_9="148.84500"></scales>
<clustering>
<clus scale="   79.185">  5  6 -1 -1</clus>
<clus scale="   90.167">  7  8 -1 -1</clus>
<clus scale="  110.522">  1  7  2 -1</clus>
<clus scale="  148.845">  2  9  1 -1</clus>
<clus scale="  148.845">  2  5  1 -1</clus>
</clustering>
</event>
<event>
 9    1  0.4067873E-005  0.1688357E+03  0.7546771E-02  0.1181361E+00
          3   -1    0    0  502    0 -0.00000000000E+00  0.00000000000E+00  0.44858989706E+03  0.44858989706E+03  0.00000000000E+00 0. -1.
         21   -1    0    0  501  502  0.00000000000E+00 -0.00000000000E+00 -0.92262134703E+02  0.92262134703E+02  0.00000000000E+00 0. -1.
         23    2    1    2    0    0 -0.91228995714E+02  0.11761598436E+03  0.19163700319E+03  0.26007270084E+03  0.93577878233E+02 0.  0.
        -24    2    1    2    0    0  0.92543640890E+02 -0.88126026703E+02  0.42747543052E+02  0.15531406142E+03  0.77230714012E+02 0.  0.
         13    1    4    4    0    0  0.89767045986E+02 -0.46630287569E+02  0.86328436066E+01  0.10152355516E+03  0.00000000000E+00 0. -1.
        -14    1    4    4    0    0  0.27765949041E+01 -0.41495739135E+02  0.34114699445E+02  0.53790506261E+02  0.00000000000E+00 0.  1.
        -11    1    3    3    0    0  0.44076402535E+01  0.51872445873E+02  0.27004198095E+02  0.58646437643E+02  0.00000000000E+00 0.  1.
         11    1    3    3    0    0 -0.95636635968E+02  0.65743538486E+02  0.16463280510E+03  0.20142626320E+03  0.00000000000E+00 0. -1.
          4    1    1    2  501    0 -0.13146451764E+01 -0.29489957655E+02  0.12194321611E+03  0.12546526949E+03  0.00000000000E+00 0. -1.
<scales pt_clust_5="13000.00000" pt_clust_6="13000.00000" pt_clust_7="13000.00000" pt_clust_8="13000.00000" pt_clust_9="29.51926"></scales>
<clustering>
<clus scale="   29.519">  2  9  1 -1</clus>
<clus scale="   77.231">  5  6 -1 -1</clus>
<clus scale="   93.578">  7  8 -1 -1</clus>
<clus scale="  160.354">  2  5  1 -1</clus>
<clus scale="   29.519">  2  5  1 -1</clus>
</clustering>
</event>
<event>
 9    1  0.4067873E-005  0.1003469E+03  0.7546771E-02  0.1284550E+00
         21   -1    0    0  501  502  0.00000000000E+00  0.00000000000E+00  0.58899759211E+02  0.58899759211E+02  0.00000000000E+00 0. -1.
          3   -1    0    0  502    0 -0.00000000000E+00 -0.00000000000E+00 -0.25794423096E+03  0.25794423096E+03  0.00000000000E+00 0. -1.
        -24    2    1    2    0    0  0.34475758236E+02 -0.28587612855E+02 -0.11485872831E+03  0.14718796276E+03  0.80411065140E+02 0.  0.
         23    2    1    2    0    0 -0.78113238507E-01  0.52635954367E+02 -0.53130043256E+02  0.11744513559E+03  0.90553898782E+02 0.  0.
         13    1    3    3    0    0  0.24835831498E+02  0.16998916504E+02 -0.88886936278E+02  0.93843855043E+02  0.00000000000E+00 0. -1.
        -14    1    3    3    0    0  0.96399267379E+01 -0.45586529359E+02 -0.25971792033E+02  0.53344107715E+02  0.00000000000E+00 0.  1.
        -11    1    4    4    0    0 -0.38209460106E+02  0.14906060094E+02  0.12858030449E+01  0.41034214488E+02  0.00000000000E+00 0.  1.
         11    1    4    4    0    0  0.38131346868E+02  0.37729894272E+02 -0.54415846301E+02  0.76410921107E+02  0.00000000000E+00 0. -1.
          4    1    1    2  501    0 -0.34397644998E+02 -0.24048341512E+02 -0.31055700185E+02  0.52210891822E+02  0.00000000000E+00 0. -1.
<scales pt_clust_5="13000.00000" pt_clust_6="13000.00000" pt_clust_7="13000.00000" pt_clust_8="13000.00000" pt_clust_9="41.97047"></scales>
<clustering>
<clus scale="   41.970">  1  9  2 -1</clus>
<clus scale="   80.411">  5  6 -1 -1</clus>
<clus scale="   90.554">  7  8 -1 -1</clus>
<clus scale="   91.299">  2  5  1 -1</clus>
<clus scale="   41.970">  1  5  2 -1</clus>
</clustering>
</event>
<event>
 9    1  0.4067873E-005  0.1333135E+03  0.7546771E-02  0.1224598E+00
         21   -1    0    0  501  502  0.00000000000E+00  0.00000000000E+00  0.49114598252E+02  0.49114598252E+02  0.00000000000E+00 0. -1.
         -4   -1    0    0    0  501 -0.00000000000E+00 -0.00000000000E+00 -0.58235069136E+03  0.58235069136E+03  0.00000000000E+00 0.  1.
        -24    2    1    2    0    0  0.67949287136E+02  0.61880761275E+02 -0.31820645448E+03  0.34101685398E+03  0.81183820973E+02 0.  0.
         23    2    1    2    0    0 -0.94345631702E+02 -0.61774403162E+02 -0.22066536781E+03  0.26345695991E+03  0.89438191310E+02 0.  0.
         13    1    3    3    0    0  0.48304258357E+02  0.55917607610E+01 -0.66717520382E+02  0.82557838452E+02  0.00000000000E+00 0. -1.
        -14    1    3    3    0    0  0.19645028779E+02  0.56289000514E+02 -0.25148893410E+03  0.25845901553E+03  0.00000000000E+00 0.  1.
        -11    1    4    4    0    0 -0.10750745761E+03 -0.40911167799E+02 -0.15287126967E+03  0.19131440662E+03  0.00000000000E+00 0. -1.
         11    1    4    4    0    0  0.13161825906E+02 -0.20863235363E+02 -0.67794098145E+02  0.72142553284E+02  0.00000000000E+00 0.  1.
         -3    1    1    2    0  502  0.26396344566E+02 -0.10635811271E+00  0.56357291816E+01  0.26991475727E+02  0.00000000000E+00 0.  1.
<scales pt_clust_5="13000.00000" pt_clust_6="13000.00000" pt_clust_7="13000.00000" pt_clust_8="13000.00000" pt_clust_9="26.39656"></scales>
<clustering>
<clus scale="   26.397">  1  9  2 -1</clus>
<clus scale="   81.184">  5  6 -1 -1</clus>
<clus scale="   89.438">  7  8 -1 -1</clus>
<clus scale="  127.922">  2  5  1 -1</clus>
<clus scale="   26.397">  1  5  2 -1</clus>
</clustering>
</event>
<event>
 9    1  0.4067873E-005  0.9514977E+02  0.7546771E-02  0.1297696E+00
         21   -1    0    0  501  502  0.00000000000E+00  0.00000000000E+00  0.52320157980E+03  0.52320157980E+03  0.00000000000E+00 0.  1.
         -2   -1    0    0    0  501 -0.00000000000E+00 -0.00000000000E+00 -0.80323685084E+02  0.80323685084E+02  0.00000000000E+00 0.  1.
         23    2    1    2    0    0  0.24477282283E+01  0.15772945470E+02 -0.24515969502E+02  0.96487753123E+02  0.91946052443E+02 0.  0.
        -24    2    1    2    0    0  0.32224505067E+02 -0.77093901941E+02  0.20571457272E+03  0.23604217035E+03  0.80097018130E+02 0.  0.
         11    1    4    4    0    0  0.15907577008E+02  0.15190672115E+02  0.36845446813E+02  0.42911472551E+02  0.00000000000E+00 0. -1.
        -12    1    4    4    0    0  0.16316928059E+02 -0.92284574056E+02  0.16886912590E+03  0.19313069780E+03  0.00000000000E+00 0.  1.
        -13    1    3    3    0    0 -0.27350872966E+02 -0.24129150432E+02 -0.28842532570E+02  0.46499224054E+02  0.00000000000E+00 0.  1.
         13    1    3    3    0    0  0.29798601195E+02  0.39902095902E+02  0.43265630675E+01  0.49988529069E+02  0.00000000000E+00 0. -1.
         -1    1    1    2    0  502 -0.34672233295E+02  0.61320956471E+02  0.26167929150E+03  0.27099534141E+03  0.00000000000E+00 0.  1.
<scales pt_clust_5="13000.00000" pt_clust_6="13000.00000" pt_clust_7="13000.00000" pt_clust_8="13000.00000" pt_clust_9="70.44447"></scales>
<clustering>
<clus scale="   70.444">  1  9  2 -1</clus>
<clus scale="   80.097">  5  6 -1 -1</clus>
<clus scale="   83.755">  1  5  2 -1</clus>
<clus scale="   91.946">  7  8 -1 -1</clus>
<clus scale="   70.444">  1  5  2 -1</clus>
</clustering>
</event>
<event>
 9    1  0.4067873E-005  0.1009194E+03  0.7546771E-02  0.1288300E+00
         -2   -1    0    0    0  501 -0.00000000000E+00  0.00000000000E+00  0.26599366956E+03  0.26599366956E+03  0.00000000000E+00 0.  1.
         21   -1    0    0  501  502  0.00000000000E+00 -0.00000000000E+00 -0.58158726800E+02  0.58158726800E+02  0.00000000000E+00 0. -1.
        -24    2    1    2    0    0 -0.25279845917E+02 -0.72264889509E+01  0.15877446632E+03  0.17949963826E+03  0.79495259150E+02 0.  0.
         23    2    1    2    0    0  0.28571004698E+02 -0.23368608057E+02  0.30173997421E+02  0.10854748457E+03  0.97517650375E+02 0.  0.
         11    1    3    3    0    0  0.23527689265E+02  0.84732114306E+00  0.99722848892E+02  0.10246422159E+03  0.00000000000E+00 0. -1.
        -12    1    3    3    0    0 -0.48807535182E+02 -0.80738100940E+01  0.59051617425E+02  0.77035416664E+02  0.00000000000E+00 0.  1.
        -11    1    4    4    0    0 -0.18588293710E+01 -0.50345081691E+02  0.42652760557E+02  0.66010154372E+02  0.00000000000E+00 0.  1.
         11    1    4    4    0    0  0.30429834069E+02  0.26976473634E+02 -0.12478763136E+02  0.42537330200E+02  0.00000000000E+00 0. -1.
         -1    1    1    2    0  502 -0.32911587808E+01  0.30595097008E+02  0.18886479021E+02  0.36105273533E+02  0.00000000000E+00 0.  1.
<scales pt_clust_5="13000.00000" pt_clust_6="13000.00000" pt_clust_7="13000.00000" pt_clust_8="13000.00000" pt_clust_9="30.77161"></scales>
<clustering>
<clus scale="   30.772">  2  9  1 -1</clus>
<clus scale="   79.495">  5  6 -1 -1</clus>
<clus scale="   83.633">  1  5  2 -1</clus>
<clus scale="   97.518">  7  8 -1 -1</clus>
<clus scale="   30.772">  2  5  1 -1</clus>
</clustering>
</event>
<event>
 9    1  0.4067873E-005  0.1146895E+03  0.7546771E-02  0.1256901E+00
         21   -1    0    0  501  502  0.00000000000E+00  0.00000000000E+00  0.25517490259E+03  0.25517490259E+03  0.00000000000E+00 0.  1.
         -4   -1    0    0    0  501 -0.00000000000E+00 -0.00000000000E+00 -0.93125121237E+02  0.93125121237E+02  0.00000000000E+00 0.  1.
         23    2    1    2    0    0  0.33685002056E+02  0.59237981025E+02  0.20824816973E+02  0.11674909685E+03  0.92481678476E+02 0.  0.
        -24    2    1    2    0    0  0.22921351358E+02 -0.80403463828E+02  0.12277541080E+03  0.16836356324E+03  0.79261482357E+02 0.  0.
         11    1    4    4    0    0  0.38437279611E+02 -0.60878834442E+01  0.48134952478E+02  0.61898791901E+02  0.00000000000E+00 0. -1.
        -12    1    4    4    0    0 -0.15515928253E+02 -0.74315580384E+02  0.74640458324E+02  0.10646477134E+03  0.00000000000E+00 0.  1.
        -13    1    3    3    0    0  0.14259032355E+02 -0.24513139460E+02  0.10122024811E+02  0.30110951432E+02  0.00000000000E+00 0. -1.
         13    1    3    3    0    0  0.19425969700E+02  0.83751120484E+02  0.10702792163E+02  0.86638145417E+02  0.00000000000E+00 0.  1.
         -3    1    1    2    0  502 -0.56606353414E+02  0.21165482803E+02  0.18449553579E+02  0.63187363740E+02  0.00000000000E+00 0.  1.
<scales pt_clust_5="13000.00000" pt_clust_6="13000.00000" pt_clust_7="13000.00000" pt_clust_8="13000.00000" pt_clust_9="60.43394"></scales>
<clustering>
<clus scale="   60.434">  1  9  2 -1</clus>
<clus scale="   79.261">  5  6 -1 -1</clus>
<clus scale="   92.482">  7  8 -1 -1</clus>
<clus scale="  104.323">  1  5  2 -1</clus>
<clus scale="   60.434">  1  5  2 -1</clus>
</clustering>
</event>
<event>
 9    1  0.4067873E-005  0.1317166E+03  0.7546771E-02  0.1226084E+00
          3   -1    0    0  502    0 -0.00000000000E+00  0.00000000000E+00  0.34985851486E+03  0.34985851486E+03  0.00000000000E+00 0. -1.
         21   -1    0    0  501  502  0.00000000000E+00 -0.00000000000E+00 -0.81563111227E+02  0.81563111227E+02  0.00000000000E+00 0.  1.
        -24    2    1    2    0    0 -0.24198893530E+02  0.92969203701E+02  0.22043655214E+03  0.25492661463E+03  0.84654864253E+02 0.  0.
         23    2    1    2    0    0 -0.38240973508E+01 -0.10175198015E+03  0.55128450898E+02  0.14624154463E+03  0.89327230412E+02 0.  0.
         13    1    3    3    0    0 -0.22426018674E+02  0.10777928511E+03  0.17172269030E+03  0.20398034949E+03  0.00000000000E+00 0. -1.
        -14    1    3    3    0    0 -0.17728748561E+01 -0.14810081410E+02  0.48713861834E+02  0.50946265137E+02  0.00000000000E+00 0.  1.
        -11    1    4    4    0    0 -0.40457278124E+01 -0.52585574629E+02 -0.20041102268E+02  0.56420354064E+02  0.00000000000E+00 0.  1.
         11    1    4    4    0    0  0.22163046155E+00 -0.49166405517E+02  0.75169553166E+02  0.89821190566E+02  0.00000000000E+00 0. -1.
          4    1    1    2  501    0  0.28022990881E+02  0.87827764451E+01 -0.72695993997E+01  0.30253466833E+02  0.00000000000E+00 0. -1.
<scales pt_clust_5="13000.00000" pt_clust_6="13000.00000" pt_clust_7="13000.00000" pt_clust_8="13000.00000" pt_clust_9="29.36708"></scales>
<clustering>
<clus scale="   29.367">  2  9  1 -1</clus>
<clus scale="   84.655">  5  6 -1 -1</clus>
<clus scale="   89.327">  7  8 -1 -1</clus>
<clus scale="  128.594">  1  5  2 -1</clus>
<clus scale="   29.367">  2  5  1 -1</clus>
</clustering>
</event>
<event>
 9    1  0.4067873E-005  0.1708744E+03  0.7546771E-02  0.1177363E+00
         -2   -1    0    0    0  501 -0.00000000000E+00  0.00000000000E+00  0.10265420066E+03  0.10265420066E+03  0.00000000000E+00 0.  1.
         21   -1    0    0  501  502  0.00000000000E+00 -0.00000000000E+00 -0.42823829735E+03  0.42823829735E+03  0.00000000000E+00 0.  1.
        -24    2    1    2    0    0  0.11262906161E+03  0.78318363247E+02 -0.85573860624E+02  0.18073998704E+03  0.80777383916E+02 0.  0.
         23    2    1    2    0    0 -0.16569177905E+03 -0.46503822431E+02 -0.16421731177E+03  0.25231394821E+03  0.84134605456E+02 0.  0.
         11    1    3    3    0    0  0.65183704467E+01  0.48545792936E+02 -0.25478111959E+02  0.55211569023E+02  0.00000000000E+00 0. -1.
        -12    1    3    3    0    0  0.10611069116E+03  0.29772570312E+02 -0.60095748665E+02  0.12552841802E+03  0.00000000000E+00 0.  1.
        -13    1    4    4    0    0 -0.33160487285E+02  0.24171316085E+02 -0.29350532311E+02  0.50451205984E+02  0.00000000000E+00 0.  1.
         13    1    4    4    0    0 -0.13253129176E+03 -0.70675138516E+02 -0.13486677945E+03  0.20186274223E+03  0.00000000000E+00 0. -1.
         -1    1    1    2    0  502  0.53062717435E+02 -0.31814540816E+02 -0.75792924296E+02  0.97838562757E+02  0.00000000000E+00 0.  1.
<scales pt_clust_5="13000.00000" pt_clust_6="13000.00000" pt_clust_7="13000.00000" pt_clust_8="13000.00000" pt_clust_9="61.86935"></scales>
<clustering>
<clus scale="   61.869">  2  9  1 -1</clus>
<clus scale="   80.777">  5  6 -1 -1</clus>
<clus scale="   84.135">  7  8 -1 -1</clus>
<clus scale="  169.247">  1  5  2 -1</clus>
<clus scale="   61.869">  2  5  1 -1</clus>
</clustering>
</event>
<event>
 9    1  0.4067873E-005  0.1238980E+03  0.7546771E-02  0.1238186E+00
         21   -1    0    0  501  502  0.00000000000E+00  0.00000000000E+00  0.16390124968E+03  0.16390124968E+03  0.00000000000E+00 0. -1.
          1   -1    0    0  502    0 -0.00000000000E+00 -0.00000000000E+00 -0.16866052556E+03  0.16866052556E+03  0.00000000000E+00 0. -1.
        -24    2    1    2    0    0  0.29781190160E+02 -0.85250571312E+02 -0.77350886126E+02  0.14577045537E+03  0.84328446435E+02 0.  0.
         23    2    1    2    0    0  0.51007183067E+01  0.75936562538E+02  0.88936489702E+02  0.14715985027E+03  0.89184883655E+02 0.  0.
         13    1    3    3    0    0  0.27349457014E+01 -0.54365760231E+02  0.40688150156E+01  0.54586363398E+02  0.00000000000E+00 0. -1.
        -14    1    3    3    0    0  0.27046244459E+02 -0.30884811082E+02 -0.81419701141E+02  0.91184091972E+02  0.00000000000E+00 0.  1.
        -11    1    4    4    0    0  0.36308444882E+02  0.77877424239E+02  0.63266696388E+02  0.10670459806E+03  0.00000000000E+00 0. -1.
         11    1    4    4    0    0 -0.31207726575E+02 -0.19408617004E+01  0.25669793314E+02  0.40455252204E+02  0.00000000000E+00 0.  1.
          2    1    1    2  501    0 -0.34881908467E+02  0.93140087739E+01 -0.16344879458E+02  0.39631469595E+02  0.00000000000E+00 0. -1.
<scales pt_clust_5="13000.00000" pt_clust_6="13000.00000" pt_clust_7="13000.00000" pt_clust_8="13000.00000" pt_clust_9="36.10401"></scales>
<clustering>
<clus scale="   36.104">  1  9  2 -1</clus>
<clus scale="   84.328">  5  6 -1 -1</clus>
<clus scale="   89.185">  7  8 -1 -1</clus>
<clus scale="  120.449">  2  5  1 -1</clus>
<clus scale="   36.104">  1  5  2 -1</clus>
</clustering>
</event>
<event>
 9    1  0.4067873E-005  0.1604421E+03  0.7546771E-02  0.1189897E+00
         21   -1    0    0  501  502  0.00000000000E+00  0.00000000000E+00  0.48419934855E+02  0.48419934855E+02  0.00000000000E+00 0. -1.
         -2   -1    0    0    0  501 -0.00000000000E+00 -0.00000000000E+00 -0.83361529878E+03  0.83361529878E+03  0.00000000000E+00 0.  1.
         23    2    1    2    0    0 -0.10468274727E+03  0.58070195319E+02 -0.43639357886E+03  0.46110738859E+03  0.88600468258E+02 0.  0.
        -24    2    1    2    0    0  0.15655337927E+03 -0.54698718378E+02 -0.28407704173E+03  0.33791446227E+03  0.77366063761E+02 0.  0.
         13    1    4    4    0    0  0.91332674031E+02 -0.38012345088E+02 -0.23387052133E+03  0.25393309448E+03  0.00000000000E+00 0. -1.
        -14    1    4    4    0    0  0.65220705238E+02 -0.16686373289E+02 -0.50206520392E+02  0.83981367786E+02  0.00000000000E+00 0.  1.
        -11    1    3    3    0    0 -0.46448295299E+01  0.46105219178E+02 -0.17311644426E+03  0.17921096214E+03  0.00000000000E+00 0.  1.
         11    1    3    3    0    0 -0.10003791774E+03  0.11964976141E+02 -0.26327713460E+03  0.28189642645E+03  0.00000000000E+00 0. -1.
         -1    1    1    2    0  502 -0.51870631995E+02 -0.33714769418E+01 -0.64724743335E+02  0.83013382778E+02  0.00000000000E+00 0.  1.
<scales pt_clust_5="13000.00000" pt_clust_6="13000.00000" pt_clust_7="13000.00000" pt_clust_8="13000.00000" pt_clust_9="51.98009"></scales>
<clustering>
<clus scale="   51.980">  1  9  2 -1</clus>
<clus scale="   77.366">  5  6 -1 -1</clus>
<clus scale="   88.600">  7  8 -1 -1</clus>
<clus scale="  154.522">  1  5  2 -1</clus>
<clus scale="   51.980">  1  5  2 -1</clus>
</clustering>
</event>
<event>
 9    1  0.4067873E-005  0.1327686E+03  0.7546771E-02  0.1235196E+00
          1   -1    0    0  502    0 -0.00000000000E+00  0.00000000000E+00  0.22114857452E+03  0.22114857452E+03  0.00000000000E+00 0. -1.
         21   -1    0    0  501  502  0.00000000000E+00 -0.00000000000E+00 -0.15002274426E+03  0.15002274426E+03  0.00000000000E+00 0. -1.
        -24    2    1    2    0    0 -0.34523415070E+02  0.53880309213E+02  0.78687556414E+02  0.13045065938E+03  0.82040776984E+02 0.  0.
         23    2    1    2    0    0  0.63203212296E+02  0.53347935294E+02  0.24707851612E+02  0.12512761101E+03  0.90585831461E+02 0.  0.
         13    1    3    3    0    0 -0.53019408018E+02  0.59835104244E+02  0.76916915075E+02  0.11093921377E+03  0.00000000000E+00 0. -1.
        -14    1    3    3    0    0  0.18495992948E+02 -0.59547950317E+01  0.17706413389E+01  0.19511445609E+02  0.00000000000E+00 0.  1.
        -11    1    4    4    0    0  0.55448320462E+02 -0.60631858388E+01 -0.88163362576E+01  0.56471286948E+02  0.00000000000E+00 0.  1.
         11    1    4    4    0    0  0.77548918345E+01  0.59411121132E+02  0.33524187869E+02  0.68656324063E+02  0.00000000000E+00 0. -1.
          2    1    1    2  501    0 -0.28679797226E+02 -0.10722824451E+03 -0.32269577762E+02  0.11559304840E+03  0.00000000000E+00 0. -1.
<scales pt_clust_5="13000.00000" pt_clust_6="13000.00000" pt_clust_7="13000.00000" pt_clust_8="13000.00000" pt_clust_9="97.06544"></scales>
<clustering>
<clus scale="   82.041">  5  6 -1 -1</clus>
<clus scale="   90.586">  7  8 -1 -1</clus>
<clus scale="  104.046">  1  5  2 -1</clus>
<clus scale="   97.065">  2  9  1 -1</clus>
<clus scale="   97.065">  2  5  1 -1</clus>
</clustering>
</event>
<event>
 9    1  0.4067873E-005  0.9304481E+02  0.7546771E-02  0.1302413E+00
          3   -1    0    0  502    0 -0.00000000000E+00  0.00000000000E+00  0.59159035817E+02  0.59159035817E+02  0.00000000000E+00 0. -1.
         21   -1    0    0  501  502  0.00000000000E+00 -0.00000000000E+00 -0.24942113285E+03  0.24942113285E+03  0.00000000000E+00 0. -1.
         23    2    1    2    0    0 -0.30593772677E+01 -0.37937935951E+02 -0.53150249391E+02  0.11294451143E+03  0.92102480304E+02 0.  0.
        -24    2    1    2    0    0 -0.98521448865E+01 -0.16757541007E+02 -0.80694911860E+02  0.11600417322E+03  0.81039616636E+02 0.  0.
         11    1    4    4    0    0  0.26899954241E+02 -0.30940639704E+02 -0.56378406243E+02  0.69709794247E+02  0.00000000000E+00 0. -1.
        -12    1    4    4    0    0 -0.36752099127E+02  0.14183098697E+02 -0.24316505617E+02  0.46294378971E+02  0.00000000000E+00 0.  1.
        -13    1    3    3    0    0 -0.46371119743E+02 -0.24402036252E+02 -0.39301335399E+02  0.65500649490E+02  0.00000000000E+00 0.  1.
         13    1    3    3    0    0  0.43311742475E+02 -0.13535899698E+02 -0.13848913991E+02  0.47443861939E+02  0.00000000000E+00 0. -1.
          4    1    1    2  501    0  0.12911522154E+02  0.54695476957E+02 -0.56416935780E+02  0.79631484017E+02  0.00000000000E+00 0. -1.
<scales pt_clust_5="13000.00000" pt_clust_6="13000.00000" pt_clust_7="13000.00000" pt_clust_8="13000.00000" pt_clust_9="56.19878"></scales>
<clustering>
<clus scale="   56.199">  2  9  1 -1</clus>
<clus scale="   81.040">  5  6 -1 -1</clus>
<clus scale="   82.109">  2  5  1 -1</clus>
<clus scale="   92.102">  7  8 -1 -1</clus>
<clus scale="   56.199">  2  5  1 -1</clus>
</clustering>
</event>
<event>
 9    1  0.4067873E-005  0.2166433E+03  0.7546771E-02  0.1167493E+00
          3   -1    0    0  502    0 -0.00000000000E+00  0.00000000000E+00  0.11233021589E+04  0.11233021589E+04  0.00000000000E+00 0. -1.
         21   -1    0    0  501  502  0.00000000000E+00 -0.00000000000E+00 -0.85112727314E+02  0.85112727314E+02  0.00000000000E+00 0.  1.
        -24    2    1    2    0    0  0.53023104812E+02 -0.42971408773E+02  0.28982583556E+03  0.30791385203E+03  0.78447012033E+02 0.  0.
         23    2    1    2    0    0  0.50440978857E+02 -0.17590045337E+03  0.14546562809E+03  0.25081213295E+03  0.90891227510E+02 0.  0.
         11    1    3    3    0    0  0.72495379009E+02 -0.28816481083E+02  0.24372579240E+03  0.25590668503E+03  0.00000000000E+00 0. -1.
        -12    1    3    3    0    0 -0.19472274197E+02 -0.14154927690E+02  0.46100043157E+02  0.52007167000E+02  0.00000000000E+00 0.  1.
        -13    1    4    4    0    0  0.76062951636E+02 -0.14712073955E+03  0.12190176112E+03  0.20564562719E+03  0.00000000000E+00 0.  1.
         13    1    4    4    0    0 -0.25621972779E+02 -0.28779713811E+02  0.23563866971E+02  0.45166505762E+02  0.00000000000E+00 0. -1.
          4    1    1    2  501    0 -0.10346408367E+03  0.21887186214E+03  0.60289796794E+03  0.64968890124E+03  0.00000000000E+00 0. -1.
<scales pt_clust_5="13000.00000" pt_clust_6="13000.00000" pt_clust_7="13000.00000" pt_clust_8="13000.00000" pt_clust_9="196.65484"></scales>
<clustering>
<clus scale="   78.447">  5  6 -1 -1</clus>
<clus scale="   90.891">  7  8 -1 -1</clus>
<clus scale="  103.980">  1  5  2 -1</clus>
<clus scale="  196.655">  2  9  1 -1</clus>
<clus scale="  196.655">  2  5  1 -1</clus>
</clustering>
</event>
<event>
 9    1  0.4067873E-005  0.8947212E+02  0.7546771E-02  0.1305072E+00
         -2   -1    0    0    0  501 -0.00000000000E+00  0.00000000000E+00  0.10973421837E+03  0.10973421837E+03  0.00000000000E+00 0.  1.
         21   -1    0    0  501  502  0.00000000000E+00 -0.00000000000E+00 -0.33807987488E+03  0.33807987488E+03  0.00000000000E+00 0.  1.
         23    2    1    2    0    0 -0.25876366116E+02 -0.34870557164E+01  0.48925720948E+02  0.10103376180E+03  0.84453235414E+02 0.  0.
        -24    2    1    2    0    0  0.62798811803E+02 -0.59991747068E+02 -0.23003705170E+03  0.25946534460E+03  0.82840324794E+02 0.  0.
         13    1    4    4    0    0  0.27214346462E+02  0.18113737520E+02 -0.46394344330E+02  0.56755293375E+02  0.00000000000E+00 0. -1.
        -14    1    4    4    0    0  0.35584465341E+02 -0.78105484588E+02 -0.18364270737E+03  0.20271005122E+03  0.00000000000E+00 0.  1.
        -11    1    3    3    0    0 -0.44945328017E+02 -0.18602811076E+02  0.57425656158E+02  0.75258574765E+02  0.00000000000E+00 0.  1.
         11    1    3    3    0    0  0.19068961901E+02  0.15115755359E+02 -0.84999352098E+01  0.25775187034E+02  0.00000000000E+00 0. -1.
         -1    1    1    2    0  502 -0.36922445686E+02  0.63478802785E+02 -0.47234325761E+02  0.87314986850E+02  0.00000000000E+00 0.  1.
<scales pt_clust_5="13000.00000" pt_clust_6="13000.00000" pt_clust_7="13000.00000" pt_clust_8="13000.00000" pt_clust_9="73.43586"></scales>
<clustering>
<clus scale="   73.436">  2  9  1 -1</clus>
<clus scale="   82.840">  5  6 -1 -1</clus>
<clus scale="   84.453">  7  8 -1 -1</clus>
<clus scale="   87.951">  2  5  1 -1</clus>
<clus scale="   73.436">  2  5  1 -1</clus>
</clustering>
</event>
<event>
 9    1  0.4067873E-005  0.1275414E+03  0.7546771E-02  0.1233898E+00
         21   -1    0    0  501  502  0.00000000000E+00  0.00000000000E+00  0.28004745787E+03  0.28004745787E+03  0.00000000000E+00 0.  1.
         -2   -1    0    0    0  501 -0.00000000000E+00 -0.00000000000E+00 -0.23828224738E+03  0.23828224738E+03  0.00000000000E+00 0.  1.
        -24    2    1    2    0    0 -0.51651000428E+02 -0.69546003978E+02 -0.15992624178E+03  0.19922722295E+03  0.81305664247E+02 0.  0.
         23    2    1    2    0    0  0.31262136275E+02  0.98591172866E+02  0.26723858538E+02  0.14057241068E+03  0.91372301586E+02 0.  0.
         13    1    3    3    0    0 -0.41333381588E+02 -0.17472379205E+02 -0.19178646473E+02  0.48801157252E+02  0.00000000000E+00 0. -1.
        -14    1    3    3    0    0 -0.10317618840E+02 -0.52073624773E+02 -0.14074759531E+03  0.15042606570E+03  0.00000000000E+00 0.  1.
        -13    1    4    4    0    0  0.39785507404E+02  0.27959407603E+02  0.45921612308E+02  0.66883552162E+02  0.00000000000E+00 0. -1.
         13    1    4    4    0    0 -0.85233711289E+01  0.70631765262E+02 -0.19197753770E+02  0.73688858515E+02  0.00000000000E+00 0.  1.
         -1    1    1    2    0  502  0.20388864153E+02 -0.29045168888E+02  0.17496759374E+03  0.17853007163E+03  0.00000000000E+00 0.  1.
<scales pt_clust_5="13000.00000" pt_clust_6="13000.00000" pt_clust_7="13000.00000" pt_clust_8="13000.00000" pt_clust_9="35.48701"></scales>
<clustering>
<clus scale="   35.487">  1  9  2 -1</clus>
<clus scale="   81.306">  5  6 -1 -1</clus>
<clus scale="   91.372">  7  8 -1 -1</clus>
<clus scale="  120.534">  2  5  1 -1</clus>
<clus scale="   35.487">  1  5  2 -1</clus>
</clustering>
</event>
<event>
 9    1  0.4067873E-005  0.1672116E+03  0.7546771E-02  0.1195765E+00
          1   -1    0    0  502    0 -0.00000000000E+00  0.00000000000E+00  0.34073813371E+03  0.34073813371E+03  0.00000000000E+00 0. -1.
         21   -1    0    0  501  502  0.00000000000E+00 -0.00000000000E+00 -0.46341782808E+03  0.46341782808E+03  0.00000000000E+00 0. -1.
        -24    2    1    2    0    0 -0.54392941834E+02 -0.57369048355E+02  0.25070158087E+03  0.27793325884E+03  0.90254162726E+02 0.  0.
         23    2    1    2    0    0 -0.90952538164E+02  0.26138114082E+02 -0.12492524954E+02  0.13591337704E+03  0.96751318710E+02 0.  0.
         13    1    3    3    0    0 -0.65758038557E+02 -0.62306520822E+02  0.24955612733E+03  0.26548913887E+03  0.00000000000E+00 0. -1.
        -14    1    3    3    0    0  0.11365096724E+02  0.49374724670E+01  0.11454535360E+01  0.12444119965E+02  0.00000000000E+00 0.  1.
        -13    1    4    4    0    0 -0.49901613937E+02  0.20199504906E+01  0.40771651956E+02  0.64471535400E+02  0.00000000000E+00 0. -1.
         13    1    4    4    0    0 -0.41050924227E+02  0.24118163591E+02 -0.53264176910E+02  0.71441841639E+02  0.00000000000E+00 0.  1.
          2    1    1    2  501    0  0.14534548000E+03  0.31230934273E+02 -0.36088875029E+03  0.39030932591E+03  0.00000000000E+00 0. -1.
<scales pt_clust_5="13000.00000" pt_clust_6="13000.00000" pt_clust_7="13000.00000" pt_clust_8="13000.00000" pt_clust_9="136.37782"></scales>
<clustering>
<clus scale="   90.254">  5  6 -1 -1</clus>
<clus scale="   96.751">  7  8 -1 -1</clus>
<clus scale="  119.982">  1  5  2 -1</clus>
<clus scale="  136.378">  2  9  1 -1</clus>
<clus scale="  136.378">  2  5  1 -1</clus>
</clustering>
</event>
<event>
 9    1  0.4067873E-005  0.9874327E+02  0.7546771E-02  0.1289232E+00
         -4   -1    0    0    0  501 -0.00000000000E+00  0.00000000000E+00  0.74404600928E+03  0.74404600928E+03  0.00000000000E+00 0.  1.
         21   -1    0    0  501  502  0.00000000000E+00 -0.00000000000E+00 -0.69810008192E+02  0.69810008192E+02  0.00000000000E+00 0. -1.
        -24    2    1    2    0    0 -0.80536271742E+01  0.39909190808E+02  0.59507260146E+03  0.60166315817E+03  0.78927501300E+02 0.  0.
         23    2    1    2    0    0  0.69416864290E+02  0.40779246683E+01  0.74332586946E+02  0.13653805147E+03  0.91005359734E+02 0.  0.
         13    1    3    3    0    0  0.35426825435E+02  0.18541436463E+02  0.24174769985E+03  0.24503223300E+03  0.00000000000E+00 0. -1.
        -14    1    3    3    0    0 -0.43480452609E+02  0.21367754345E+02  0.35332490162E+03  0.35663092517E+03  0.00000000000E+00 0.  1.
        -11    1    4    4    0    0 -0.17674632601E+02 -0.15685917681E+02  0.25448463365E+02  0.34728445671E+02  0.00000000000E+00 0.  1.
         11    1    4    4    0    0  0.87091496891E+02  0.19763842349E+02  0.48884123581E+02  0.10180960580E+03  0.00000000000E+00 0. -1.
         -3    1    1    2    0  502 -0.61363237116E+02 -0.43987115476E+02  0.48308126813E+01  0.75654807834E+02  0.00000000000E+00 0.  1.
<scales pt_clust_5="13000.00000" pt_clust_6="13000.00000" pt_clust_7="13000.00000" pt_clust_8="13000.00000" pt_clust_9="75.50042"></scales>
<clustering>
<clus scale="   75.500">  2  9  1 -1</clus>
<clus scale="   78.928">  5  6 -1 -1</clus>
<clus scale="   87.737">  1  5  2 -1</clus>
<clus scale="   91.005">  7  8 -1 -1</clus>
<clus scale="   75.500">  2  5  1 -1</clus>
</clustering>
</event>
<event>
 9    1  0.4067873E-005  0.1471991E+03  0.7546771E-02  0.1207215E+00
         -2   -1    0    0    0  501 -0.00000000000E+00  0.00000000000E+00  0.19132963502E+03  0.19132963502E+03  0.00000000000E+00 0.  1.
         21   -1    0    0  501  502  0.00000000000E+00 -0.00000000000E+00 -0.37920881412E+03  0.37920881412E+03  0.00000000000E+00 0.  1.
        -24    2    1    2    0    0 -0.10579663276E+03 -0.62896460793E+02  0.13094395932E+03  0.19736273062E+03  0.81589427455E+02 0.  0.
         23    2    1    2    0    0  0.52191967171E+02  0.69648692764E+01 -0.14160054897E+03  0.17975997636E+03  0.97418801014E+02 0.  0.
         11    1    3    3    0    0 -0.38210587586E+02 -0.29498209767E+02  0.23860469009E+01  0.48331010779E+02  0.00000000000E+00 0. -1.
        -12    1    3    3    0    0 -0.67586045178E+02 -0.33398251025E+02  0.12855791242E+03  0.14903171984E+03  0.00000000000E+00 0.  1.
        -13    1    4    4    0    0  0.78878752821E+02  0.57334182436E+01 -0.12617188251E+03  0.14890961577E+03  0.00000000000E+00 0. -1.
         13    1    4    4    0    0 -0.26686785650E+02  0.12314510328E+01 -0.15428666458E+02  0.30850360592E+02  0.00000000000E+00 0.  1.
         -1    1    1    2    0  502  0.53604665593E+02  0.55931591516E+02 -0.17722258945E+03  0.19341574216E+03  0.00000000000E+00 0.  1.
<scales pt_clust_5="13000.00000" pt_clust_6="13000.00000" pt_clust_7="13000.00000" pt_clust_8="13000.00000" pt_clust_9="77.47131"></scales>
<clustering>
<clus scale="   77.471">  2  9  1 -1</clus>
<clus scale="   81.589">  5  6 -1 -1</clus>
<clus scale="   97.419">  7  8 -1 -1</clus>
<clus scale="  137.237">  1  5  2 -1</clus>
<clus scale="   77.471">  2  5  1 -1</clus>
</clustering>
</event>
<event>
 9    1  0.4067873E-005  0.9410573E+02  0.7546771E-02  0.1300502E+00
         21   -1    0    0  501  502  0.00000000000E+00  0.00000000000E+00  0.15565091890E+03  0.15565091890E+03  0.00000000000E+00 0. -1.
          1   -1    0    0  502    0 -0.00000000000E+00 -0.00000000000E+00 -0.27331743447E+03  0.27331743447E+03  0.00000000000E+00 0. -1.
        -24    2    1    2    0    0 -0.17432202271E+02  0.10047232006E+02 -0.19607138044E+03  0.21298976413E+03  0.80720659373E+02 0.  0.
         23    2    1    2    0    0 -0.89283804026E+00  0.18377141756E+01 -0.35951906332E+02  0.99554664852E+02  0.92813885663E+02 0.  0.
         11    1    3    3    0    0 -0.47699104875E+02  0.64991602055E+01 -0.15174907165E+03  0.15920183553E+03  0.00000000000E+00 0. -1.
        -12    1    3    3    0    0  0.30266902603E+02  0.35480718008E+01 -0.44322308789E+02  0.53787928600E+02  0.00000000000E+00 0.  1.
        -13    1    4    4    0    0  0.11301286192E+02 -0.19394271018E+02  0.25161581517E+02  0.33718867157E+02  0.00000000000E+00 0.  1.
         13    1    4    4    0    0 -0.12194124232E+02  0.21231985194E+02 -0.61113487849E+02  0.65835797695E+02  0.00000000000E+00 0. -1.
          2    1    1    2  501    0  0.18325040312E+02 -0.11884946182E+02  0.11435677121E+03  0.11642392439E+03  0.00000000000E+00 0. -1.
<scales pt_clust_5="13000.00000" pt_clust_6="13000.00000" pt_clust_7="13000.00000" pt_clust_8="13000.00000" pt_clust_9="21.84168"></scales>
<clustering>
<clus scale="   21.842">  1  9  2 -1</clus>
<clus scale="   80.721">  5  6 -1 -1</clus>
<clus scale="   82.203">  2  5  1 -1</clus>
<clus scale="   92.814">  7  8 -1 -1</clus>
<clus scale="   21.842">  1  5  2 -1</clus>
</clustering>
</event>
<event>
 9    1  0.4067873E-005  0.1006866E+03  0.7546771E-02  0.1286989E+00
         21   -1    0    0  501  502  0.00000000000E+00  0.00000000000E+00  0.82718093677E+02  0.82718093677E+02  0.00000000000E+00 0. -1.
         -4   -1    0    0    0  501 -0.00000000000E+00 -0.00000000000E+00 -0.34034569573E+03  0.34034569573E+03  0.00000000000E+00 0.  1.
        -24    2    1    2    0    0  0.31363308478E+02  0.21101389417E+02 -0.27055538817E+03  0.28460206491E+03  0.79807214802E+02 0.  0.
         23    2    1    2    0    0  0.80541930708E+01 -0.76904685714E+01  0.41250189372E+01  0.95904927898E+02  0.95166832883E+02 0.  0.
         11    1    3    3    0    0 -0.58785973411E+01  0.38974019659E+02 -0.74944926189E+02  0.84677470891E+02  0.00000000000E+00 0. -1.
        -12    1    3    3    0    0  0.37241905819E+02 -0.17872630242E+02 -0.19561046198E+03  0.19992459402E+03  0.00000000000E+00 0.  1.
        -11    1    4    4    0    0  0.16176611590E+02  0.22904290660E+02 -0.35467950016E+02  0.45213546327E+02  0.00000000000E+00 0.  1.
         11    1    4    4    0    0 -0.81224185197E+01 -0.30594759231E+02  0.39592968953E+02  0.50691381570E+02  0.00000000000E+00 0. -1.
         -3    1    1    2    0  502 -0.39417501549E+02 -0.13410920845E+02  0.88027671772E+01  0.42556796593E+02  0.00000000000E+00 0.  1.
<scales pt_clust_5="13000.00000" pt_clust_6="13000.00000" pt_clust_7="13000.00000" pt_clust_8="13000.00000" pt_clust_9="41.63643"></scales>
<clustering>
<clus scale="   41.636">  1  9  2 -1</clus>
<clus scale="   79.807">  5  6 -1 -1</clus>
<clus scale="   86.315">  2  5  1 -1</clus>
<clus scale="   95.167">  7  8 -1 -1</clus>
<clus scale="   41.636">  1  5  2 -1</clus>
</clustering>
</event>
<event>
 9    1  0.4067873E-005  0.9170066E+02  0.7546771E-02  0.1306040E+00
         21   -1    0    0  501  502  0.00000000000E+00  0.00000000000E+00  0.30112212764E+03  0.30112212764E+03  0.00000000000E+00 0.  1.
         -4   -1    0    0    0  501 -0.00000000000E+00 -0.00000000000E+00 -0.18118041761E+03  0.18118041761E+03  0.00000000000E+00 0.  1.
         23    2    1    2    0    0 -0.13380682371E+02 -0.23121164774E+02 -0.12226053464E+03  0.15473981933E+03  0.91011770856E+02 0.  0.
        -24    2    1    2    0    0 -0.17196256214E+02 -0.31492092181E+02  0.10821775567E+02  0.87866087464E+02  0.79472482044E+02 0.  0.
         11    1    4    4    0    0  0.20080123371E+02 -0.43542827571E+02  0.41864665861E+01  0.48132272852E+02  0.00000000000E+00 0. -1.
        -12    1    4    4    0    0 -0.37276379585E+02  0.12050735390E+02  0.66353089805E+01  0.39733814612E+02  0.00000000000E+00 0.  1.
        -13    1    3    3    0    0  0.18595433420E+02  0.92572148146E+01 -0.10342330366E+03  0.10548870039E+03  0.00000000000E+00 0.  1.
         13    1    3    3    0    0 -0.31976115790E+02 -0.32378379589E+02 -0.18837230982E+02  0.49251118941E+02  0.00000000000E+00 0. -1.
         -3    1    1    2    0  502  0.30576938584E+02  0.54613256955E+02  0.23138046910E+03  0.23969663846E+03  0.00000000000E+00 0.  1.
<scales pt_clust_5="13000.00000" pt_clust_6="13000.00000" pt_clust_7="13000.00000" pt_clust_8="13000.00000" pt_clust_9="62.59039"></scales>
<clustering>
<clus scale="   62.590">  1  9  2 -1</clus>
<clus scale="   79.472">  5  6 -1 -1</clus>
<clus scale="   80.260">  1  5  2 -1</clus>
<clus scale="   91.012">  7  8 -1 -1</clus>
<clus scale="   62.590">  1  5  2 -1</clus>
</clustering>
</event>
<event>
 9    1  0.4067873E-005  0.1130112E+03  0.7546771E-02  0.1275953E+00
         21   -1    0    0  501  502  0.00000000000E+00  0.00000000000E+00  0.14410349262E+03  0.14410349262E+03  0.00000000000E+00 0. -1.
          1   -1    0    0  502    0 -0.00000000000E+00 -0.00000000000E+00 -0.13278598439E+03  0.13278598439E+03  0.00000000000E+00 0. -1.
        -24    2    1    2    0    0  0.28846742387E+01 -0.97542624414E+01 -0.43905274305E+02  0.85780316343E+02  0.72987139818E+02 0.  0.
         23    2    1    2    0    0  0.29910823033E+02  0.41661596309E+02  0.45224132294E+01  0.12281457784E+03  0.11150166980E+03 0.  0.
         13    1    3    3    0    0  0.16616992508E+02  0.23279672522E+02  0.68854248811E+00  0.28610167485E+02  0.00000000000E+00 0. -1.
        -14    1    3    3    0    0 -0.13732318269E+02 -0.33033934964E+02 -0.44593816793E+02  0.57170148858E+02  0.00000000000E+00 0.  1.
        -11    1    4    4    0    0 -0.13803175632E+02  0.32819787231E+02  0.48509301525E+02  0.60173236791E+02  0.00000000000E+00 0.  1.
         11    1    4    4    0    0  0.43713998665E+02  0.88418090782E+01 -0.43986888296E+02  0.62641341054E+02  0.00000000000E+00 0. -1.
          2    1    1    2  501    0 -0.32795497272E+02 -0.31907333868E+02  0.50700369300E+02  0.68294582823E+02  0.00000000000E+00 0. -1.
<scales pt_clust_5="13000.00000" pt_clust_6="13000.00000" pt_clust_7="13000.00000" pt_clust_8="13000.00000" pt_clust_9="45.75612"></scales>
<clustering>
<clus scale="   45.756">  1  9  2 -1</clus>
<clus scale="   72.987">  5  6 -1 -1</clus>
<clus scale="   75.273">  2  5  1 -1</clus>
<clus scale="  111.502">  7  8 -1 -1</clus>
<clus scale="   45.756">  1  5  2 -1</clus>
</clustering>
</event>
<event>
 9    1  0.4067873E-005  0.1600119E+03  0.7546771E-02  0.1189981E+00
          1   -1    0    0  502    0 -0.00000000000E+00  0.00000000000E+00  0.27402546166E+02  0.27402546166E+02  0.00000000000E+00 0. -1.
         21   -1    0    0  501  502  0.00000000000E+00 -0.00000000000E+00 -0.15219577691E+04  0.15219577691E+04  0.00000000000E+00 0.  1.
         23    2    1    2    0    0 -0.12679133692E+03 -0.71360951071E+02 -0.34046944054E+03  0.38103504300E+03  0.89999086671E+02 0.  0.
        -24    2    1    2    0    0  0.97124821920E+02  0.30377805810E+02 -0.87774519830E+03  0.88739140331E+03  0.81675133337E+02 0.  0.
         11    1    4    4    0    0  0.63470610767E+02  0.70455322913E+01 -0.24057501635E+03  0.24890660186E+03  0.00000000000E+00 0. -1.
        -12    1    4    4    0    0  0.33654211153E+02  0.23332273519E+02 -0.63717018195E+03  0.63848480145E+03  0.00000000000E+00 0.  1.
        -11    1    3    3    0    0 -0.77524946046E+01 -0.45232238497E+02 -0.62652932274E+02  0.77662387901E+02  0.00000000000E+00 0. -1.
         11    1    3    3    0    0 -0.11903884231E+03 -0.26128712574E+02 -0.27781650826E+03  0.30337265510E+03  0.00000000000E+00 0.  1.
          2    1    1    2  501    0  0.29666514996E+02  0.40983145261E+02 -0.27634058410E+03  0.28093386895E+03  0.00000000000E+00 0. -1.
<scales pt_clust_5="13000.00000" pt_clust_6="13000.00000" pt_clust_7="13000.00000" pt_clust_8="13000.00000" pt_clust_9="50.59368"></scales>
<clustering>
<clus scale="   50.594">  2  9  1 -1</clus>
<clus scale="   81.675">  5  6 -1 -1</clus>
<clus scale="   89.999">  7  8 -1 -1</clus>
<clus scale="  155.482">  2  5  1 -1</clus>
<clus scale="   50.594">  2  5  1 -1</clus>
</clustering>
</event>
<event>
 9    1  0.4067873E-005  0.1339516E+03  0.7546771E-02  0.1224602E+00
         21   -1    0    0  501  502  0.00000000000E+00  0.00000000000E+00  0.16423852299E+03  0.16423852299E+03  0.00000000000E+00 0.  1.
          3   -1    0    0  502    0 -0.00000000000E+00 -0.00000000000E+00 -0.15859850757E+03  0.15859850757E+03  0.00000000000E+00 0. -1.
         23    2    1    2    0    0  0.30618700499E+02 -0.10013794886E+03 -0.80044803903E+02  0.16012979220E+03  0.90935505152E+02 0.  0.
        -24    2    1    2    0    0 -0.17041477730E+02  0.81141941844E+02  0.65695798506E+02  0.13197044910E+03  0.78903959381E+02 0.  0.
         11    1    4    4    0    0 -0.34435667053E+02  0.20936884260E+02 -0.11839369634E+01  0.40318358035E+02  0.00000000000E+00 0. -1.
        -12    1    4    4    0    0  0.17394189323E+02  0.60205057584E+02  0.66879735469E+02  0.91652091069E+02  0.00000000000E+00 0.  1.
        -13    1    3    3    0    0  0.26226243106E+02 -0.37244070998E+02 -0.85469000748E+02  0.96849815389E+02  0.00000000000E+00 0. -1.
         13    1    3    3    0    0  0.43924573936E+01 -0.62893877860E+02  0.54241968449E+01  0.63279976814E+02  0.00000000000E+00 0.  1.
          4    1    1    2  501    0 -0.13577222769E+02  0.18996007014E+02  0.19989020811E+02  0.30736789253E+02  0.00000000000E+00 0. -1.
<scales pt_clust_5="13000.00000" pt_clust_6="13000.00000" pt_clust_7="13000.00000" pt_clust_8="13000.00000" pt_clust_9="23.34929"></scales>
<clustering>
<clus scale="   23.349">  1  9  2 -1</clus>
<clus scale="   78.904">  5  6 -1 -1</clus>
<clus scale="   90.936">  7  8 -1 -1</clus>
<clus scale="  126.094">  1  5  2 -1</clus>
<clus scale="   23.349">  1  5  2 -1</clus>
</clustering>
</event>
<event>
 9    1  0.4067873E-005  0.9369592E+02  0.7546771E-02  0.1301479E+00
         -4   -1    0    0    0  501 -0.00000000000E+00  0.00000000000E+00  0.54356687946E+03  0.54356687946E+03  0.00000000000E+00 0.  1.
         21   -1    0    0  501  502  0.00000000000E+00 -0.00000000000E+00 -0.12767346171E+03  0.12767346171E+03  0.00000000000E+00 0.  1.
        -24    2    1    2    0    0  0.10225860960E+02 -0.13095664529E+02  0.25966304231E+03  0.27197716773E+03  0.79187243701E+02 0.  0.
         23    2    1    2    0    0 -0.60693076718E+02  0.71349011451E+02 -0.78211272845E+02  0.15247727687E+03  0.91422020137E+02 0.  0.
         11    1    3    3    0    0 -0.19316077710E+02  0.24417106045E+02  0.13345955813E+03  0.13704291146E+03  0.00000000000E+00 0. -1.
        -12    1    3    3    0    0  0.29541938670E+02 -0.37512770574E+02  0.12620348418E+03  0.13493425627E+03  0.00000000000E+00 0.  1.
        -13    1    4    4    0    0  0.82785323940E+01  0.41578116159E+02  0.21788046144E+01  0.42450218274E+02  0.00000000000E+00 0. -1.
         13    1    4    4    0    0 -0.68971609112E+02  0.29770895292E+02 -0.80390077459E+02  0.11002705860E+03  0.00000000000E+00 0.  1.
         -3    1    1    2    0  502  0.50467215758E+02 -0.58253346922E+02  0.23444164829E+03  0.24678589657E+03  0.00000000000E+00 0.  1.
<scales pt_clust_5="13000.00000" pt_clust_6="13000.00000" pt_clust_7="13000.00000" pt_clust_8="13000.00000" pt_clust_9="77.07398"></scales>
<clustering>
<clus scale="   77.074">  2  9  1 -1</clus>
<clus scale="   79.187">  5  6 -1 -1</clus>
<clus scale="   81.802">  1  5  2 -1</clus>
<clus scale="   91.422">  7  8 -1 -1</clus>
<clus scale="   77.074">  2  5  1 -1</clus>
</clustering>
</event>
<event>
 9    1  0.4067873E-005  0.8372518E+02  0.7546771E-02  0.1326388E+00
         21   -1    0    0  501  502  0.00000000000E+00  0.00000000000E+00  0.13258656775E+03  0.13258656775E+03  0.00000000000E+00 0.  1.
         -2   -1    0    0    0  501 -0.00000000000E+00 -0.00000000000E+00 -0.83608726979E+02  0.83608726979E+02  0.00000000000E+00 0.  1.
        -24    2    1    2    0    0  0.19640438590E+02  0.24623196232E+01 -0.49972835776E+01  0.72810369231E+02  0.69889678626E+02 0.  0.
         23    2    1    2    0    0 -0.25886251297E+02  0.19954719900E+02  0.72661128285E+02  0.11354031828E+03  0.80891751484E+02 0.  0.
         11    1    3    3    0    0  0.22248547608E+02  0.22439600396E+02 -0.28008638878E+02  0.42225790560E+02  0.00000000000E+00 0. -1.
        -12    1    3    3    0    0 -0.26081090175E+01 -0.19977280773E+02  0.23011355300E+02  0.30584578671E+02  0.00000000000E+00 0.  1.
        -11    1    4    4    0    0 -0.38848780492E+02 -0.19653359433E+02  0.49269070903E+02  0.65748943948E+02  0.00000000000E+00 0. -1.
         11    1    4    4    0    0  0.12962529195E+02  0.39608079333E+02  0.23392057383E+02  0.47791374328E+02  0.00000000000E+00 0.  1.
         -1    1    1    2    0  502  0.62458127063E+01 -0.22417039523E+02 -0.18686003934E+02  0.29844607224E+02  0.00000000000E+00 0.  1.
<scales pt_clust_5="13000.00000" pt_clust_6="13000.00000" pt_clust_7="13000.00000" pt_clust_8="13000.00000" pt_clust_9="23.27089"></scales>
<clustering>
<clus scale="   23.271">  1  9  2 -1</clus>
<clus scale="   69.890">  5  6 -1 -1</clus>
<clus scale="   73.151">  2  5  1 -1</clus>
<clus scale="   80.892">  7  8 -1 -1</clus>
<clus scale="   23.271">  1  5  2 -1</clus>
</clustering>
</event>
<event>
 9    1  0.4067873E-005  0.1043711E+03  0.7546771E-02  0.1276842E+00
         21   -1    0    0  501  502  0.00000000000E+00  0.00000000000E+00  0.23830119048E+03  0.23830119048E+03  0.00000000000E+00 0.  1.
         -2   -1    0    0    0  501 -0.00000000000E+00 -0.00000000000E+00 -0.64971579137E+03  0.64971579137E+03  0.00000000000E+00 0.  1.
         23    2    1    2    0    0 -0.15999526783E+02  0.49339556213E+02 -0.48000972858E+03  0.49155203866E+03  0.92323835047E+02 0.  0.
        -24    2    1    2    0    0  0.39833853906E+02 -0.27587851729E+02 -0.14922252399E+03  0.17627016311E+03  0.80349133508E+02 0.  0.
         11    1    4    4    0    0  0.26405169012E+02 -0.23773770194E+02 -0.10786179156E+02  0.37131748687E+02  0.00000000000E+00 0. -1.
        -12    1    4    4    0    0  0.13428684894E+02 -0.38140815353E+01 -0.13843634484E+03  0.13913841442E+03  0.00000000000E+00 0.  1.
        -11    1    3    3    0    0 -0.39445447862E+02 -0.80152886557E+01 -0.12962206330E+03  0.13572791718E+03  0.00000000000E+00 0. -1.
         11    1    3    3    0    0  0.23445921079E+02  0.57354844869E+02 -0.35038766528E+03  0.35582412147E+03  0.00000000000E+00 0.  1.
         -1    1    1    2    0  502 -0.23834327123E+02 -0.21751704484E+02  0.21781765168E+03  0.22019478009E+03  0.00000000000E+00 0.  1.
<scales pt_clust_5="13000.00000" pt_clust_6="13000.00000" pt_clust_7="13000.00000" pt_clust_8="13000.00000" pt_clust_9="32.26781"></scales>
<clustering>
<clus scale="   32.268">  1  9  2 -1</clus>
<clus scale="   80.349">  5  6 -1 -1</clus>
<clus scale="   92.324">  7  8 -1 -1</clus>
<clus scale="   93.945">  1  5  2 -1</clus>
<clus scale="   32.268">  1  5  2 -1</clus>
</clustering>
</event>
<event>
 9    1  0.4067873E-005  0.1280674E+03  0.7546771E-02  0.1232366E+00
         -2   -1    0    0    0  501 -0.00000000000E+00  0.00000000000E+00  0.46806653460E+03  0.46806653460E+03  0.00000000000E+00 0.  1.
         21   -1    0    0  501  502  0.00000000000E+00 -0.00000000000E+00 -0.41498125175E+02  0.41498125175E+02  0.00000000000E+00 0. -1.
         23    2    1    2    0    0 -0.32180168652E+02  0.84469245118E+02  0.21160190558E+03  0.24629419616E+03  0.87834207413E+02 0.  0.
        -24    2    1    2    0    0  0.55710332502E+02 -0.80826113422E+02  0.16587649194E+03  0.20871067725E+03  0.80053947195E+02 0.  0.
         13    1    4    4    0    0  0.17526434468E+02  0.14062211820E+02  0.45511471631E+02  0.50756435616E+02  0.00000000000E+00 0. -1.
        -14    1    4    4    0    0  0.38183898034E+02 -0.94888325241E+02  0.12036502031E+03  0.15795424163E+03  0.00000000000E+00 0.  1.
        -11    1    3    3    0    0 -0.21525290070E+02  0.56770478319E+02  0.20766301859E+03  0.21635654511E+03  0.00000000000E+00 0.  1.
         11    1    3    3    0    0 -0.10654878583E+02  0.27698766799E+02  0.39388869898E+01  0.29937651052E+02  0.00000000000E+00 0. -1.
         -1    1    1    2    0  502 -0.23530163850E+02 -0.36431316965E+01  0.49090011909E+02  0.54559786369E+02  0.00000000000E+00 0.  1.
<scales pt_clust_5="13000.00000" pt_clust_6="13000.00000" pt_clust_7="13000.00000" pt_clust_8="13000.00000" pt_clust_9="23.81054"></scales>
<clustering>
<clus scale="   23.811">  2  9  1 -1</clus>
<clus scale="   80.054">  5  6 -1 -1</clus>
<clus scale="   87.834">  7  8 -1 -1</clus>
<clus scale="  122.862">  2  5  1 -1</clus>
<clus scale="   23.811">  2  5  1 -1</clus>
</clustering>
</event>
<event>
 9    1  0.4067873E-005  0.1287387E+03  0.7546771E-02  0.1233400E+00
         21   -1    0    0  501  502  0.00000000000E+00  0.00000000000E+00  0.11202605642E+03  0.11202605642E+03  0.00000000000E+00 0. -1.
          1   -1    0    0  502    0 -0.00000000000E+00 -0.00000000000E+00 -0.37367800371E+03  0.37367800371E+03  0.00000000000E+00 0. -1.
         23    2    1    2    0    0 -0.71388837086E+02  0.35471776494E+02 -0.16277741399E+03  0.20476744441E+03  0.95281723299E+02 0.  0.
        -24    2    1    2    0    0  0.91974871562E+02 -0.72370011235E+02  0.29982195620E+02  0.14532938460E+03  0.80776868285E+02 0.  0.
         13    1    4    4    0    0  0.32314725183E+02 -0.31289254932E+02  0.52821180885E+02  0.69378210469E+02  0.00000000000E+00 0. -1.
        -14    1    4    4    0    0  0.59660146378E+02 -0.41080756303E+02 -0.22838985265E+02  0.75951174134E+02  0.00000000000E+00 0.  1.
        -11    1    3    3    0    0  0.17095097830E+02  0.12883006760E+02 -0.75391160082E+02  0.78371176152E+02  0.00000000000E+00 0.  1.
         11    1    3    3    0    0 -0.88483934916E+02  0.22588769734E+02 -0.87386253911E+02  0.12639626826E+03  0.00000000000E+00 0. -1.
          2    1    1    2  501    0 -0.20586034475E+02  0.36898234741E+02 -0.12885672892E+03  0.13560723111E+03  0.00000000000E+00 0. -1.
<scales pt_clust_5="13000.00000" pt_clust_6="13000.00000" pt_clust_7="13000.00000" pt_clust_8="13000.00000" pt_clust_9="42.25241"></scales>
<clustering>
<clus scale="   42.252">  1  9  2 -1</clus>
<clus scale="   80.777">  5  6 -1 -1</clus>
<clus scale="   95.282">  7  8 -1 -1</clus>
<clus scale="  118.406">  1  5  2 -1</clus>
<clus scale="   42.252">  1  5  2 -1</clus>
</clustering>
</event>
<event>
 9    1  0.4067873E-005  0.1103300E+03  0.7546771E-02  0.1262880E+00
         21   -1    0    0  501  502  0.00000000000E+00  0.00000000000E+00  0.55505950166E+02  0.55505950166E+02  0.00000000000E+00 0.  1.
         -4   -1    0    0    0  501 -0.00000000000E+00 -0.00000000000E+00 -0.33695322802E+03  0.33695322802E+03  0.00000000000E+00 0.  1.
        -24    2    1    2    0    0 -0.76809479956E+02  0.92770443325E+01 -0.15465560138E+03  0.19195592348E+03  0.83324436729E+02 0.  0.
         23    2    1    2    0    0  0.34133928295E+02 -0.37210592494E+02 -0.78655355612E+02  0.13037058608E+03  0.90884935467E+02 0.  0.
         13    1    3    3    0    0 -0.50372956237E+01  0.36062573800E+02 -0.40321363182E+02  0.54329512285E+02  0.00000000000E+00 0. -1.
        -14    1    3    3    0    0 -0.71772184333E+02 -0.26785529467E+02 -0.11433423820E+03  0.13762641119E+03  0.00000000000E+00 0.  1.
        -11    1    4    4    0    0  0.30735682922E+02  0.71235149333E+01  0.83720187057E+01  0.32642263507E+02  0.00000000000E+00 0.  1.
         11    1    4    4    0    0  0.33982453728E+01 -0.44334107427E+02 -0.87027374318E+02  0.97728322576E+02  0.00000000000E+00 0. -1.
         -3    1    1    2    0  502  0.42675551662E+02  0.27933548161E+02 -0.48136320858E+02  0.70132668623E+02  0.00000000000E+00 0.  1.
<scales pt_clust_5="13000.00000" pt_clust_6="13000.00000" pt_clust_7="13000.00000" pt_clust_8="13000.00000" pt_clust_9="51.00476"></scales>
<clustering>
<clus scale="   51.005">  1  9  2 -1</clus>
<clus scale="   83.324">  5  6 -1 -1</clus>
<clus scale="   90.885">  7  8 -1 -1</clus>
<clus scale="  104.190">  2  5  1 -1</clus>
<clus scale="   51.005">  1  5  2 -1</clus>
</clustering>
</event>
<event>
 9    1  0.4067873E-005  0.9699355E+02  0.7546771E-02  0.1294670E+00
         21   -1    0    0  501  502  0.00000000000E+00  0.00000000000E+00  0.44065697995E+03  0.44065697995E+03  0.00000000000E+00 0.  1.
         -2   -1    0    0    0  501 -0.00000000000E+00 -0.00000000000E+00 -0.18835058793E+03  0.18835058793E+03  0.00000000000E+00 0.  1.
         23    2    1    2    0    0  0.16461835367E+01 -0.14114677448E+01 -0.60723033089E+02  0.11120384492E+03  0.93135955553E+02 0.  0.
        -24    2    1    2    0    0  0.50298150972E+02 -0.17150296817E+02 -0.77839719224E+02  0.12306147670E+03  0.79126913788E+02 0.  0.
         11    1    4    4    0    0  0.36648999016E+02 -0.31629403094E+02 -0.63151311942E+01  0.48820581223E+02  0.00000000000E+00 0. -1.
        -12    1    4    4    0    0  0.13649151956E+02  0.14479106277E+02 -0.71524588030E+02  0.74240895473E+02  0.00000000000E+00 0.  1.
        -13    1    3    3    0    0  0.25615028798E+02  0.26952856787E+02  0.31539908920E+01  0.37316669839E+02  0.00000000000E+00 0.  1.
         13    1    3    3    0    0 -0.23968845261E+02 -0.28364324532E+02 -0.63877023981E+02  0.73887175084E+02  0.00000000000E+00 0. -1.
         -1    1    1    2    0  502 -0.51944334509E+02  0.18561764562E+02  0.39086914434E+03  0.39474224627E+03  0.00000000000E+00 0.  1.
<scales pt_clust_5="13000.00000" pt_clust_6="13000.00000" pt_clust_7="13000.00000" pt_clust_8="13000.00000" pt_clust_9="55.16115"></scales>
<clustering>
<clus scale="   55.161">  1  9  2 -1</clus>
<clus scale="   79.127">  5  6 -1 -1</clus>
<clus scale="   83.633">  1  5  2 -1</clus>
<clus scale="   93.136">  7  8 -1 -1</clus>
<clus scale="   55.161">  1  5  2 -1</clus>
</clustering>
</event>
<event>
 9    1  0.4067873E-005  0.8994041E+02  0.7546771E-02  0.1309244E+00
         21   -1    0    0  501  502  0.00000000000E+00  0.00000000000E+00  0.52237917626E+02  0.52237917626E+02  0.00000000000E+00 0. -1.
          1   -1    0    0  502    0 -0.00000000000E+00 -0.00000000000E+00 -0.31161971756E+03  0.31161971756E+03  0.00000000000E+00 0. -1.
         23    2    1    2    0    0  0.23247051937E+02 -0.56922965489E+01 -0.11573113227E+03  0.14795063959E+03  0.89010500016E+02 0.  0.
        -24    2    1    2    0    0  0.41785249952E+02  0.12449321409E+02 -0.10996129931E+03  0.14235544080E+03  0.79199693569E+02 0.  0.
         13    1    4    4    0    0  0.55698161280E+02  0.28146603550E+02 -0.10267062004E+03  0.12014896038E+03  0.00000000000E+00 0. -1.
        -14    1    4    4    0    0 -0.13912911328E+02 -0.15697282142E+02 -0.72906792701E+01  0.22206480416E+02  0.00000000000E+00 0.  1.
        -11    1    3    3    0    0  0.22425108948E+01  0.23071502447E+02 -0.10933373998E+03  0.11176399142E+03  0.00000000000E+00 0.  1.
         11    1    3    3    0    0  0.21004541042E+02 -0.28763798996E+02 -0.63973922894E+01  0.36186648162E+02  0.00000000000E+00 0. -1.
          2    1    1    2  501    0 -0.65032301889E+02 -0.67570248596E+01 -0.33689368353E+02  0.73551554803E+02  0.00000000000E+00 0. -1.
<scales pt_clust_5="13000.00000" pt_clust_6="13000.00000" pt_clust_7="13000.00000" pt_clust_8="13000.00000" pt_clust_9="65.38240"></scales>
<clustering>
<clus scale="   65.382">  1  9  2 -1</clus>
<clus scale="   79.200">  5  6 -1 -1</clus>
<clus scale="   80.243">  1  5  2 -1</clus>
<clus scale="   89.011">  7  8 -1 -1</clus>
<clus scale="   65.382">  1  5  2 -1</clus>
</clustering>
</event>
<event>
 9    1  0.4067873E-005  0.1246364E+03  0.7546771E-02  0.1238318E+00
         -2   -1    0    0    0  501 -0.00000000000E+00  0.00000000000E+00  0.16886475023E+03  0.16886475023E+03  0.00000000000E+00 0.  1.
         21   -1    0    0  501  502  0.00000000000E+00 -0.00000000000E+00 -0.15521407066E+03  0.15521407066E+03  0.00000000000E+00 0.  1.
        -24    2    1    2    0    0  0.52863558654E+02 -0.47662651533E+02  0.40607322920E+02  0.11622222187E+03  0.82415811573E+02 0.  0.
         23    2    1    2    0    0 -0.63080438951E+02  0.85286027220E+02  0.25504553123E+02  0.14249544713E+03  0.91660362233E+02 0.  0.
         13    1    3    3    0    0  0.21568778085E+02 -0.20658991717E+02 -0.24818795045E+02  0.38832701610E+02  0.00000000000E+00 0. -1.
        -14    1    3    3    0    0  0.31294780570E+02 -0.27003659816E+02  0.65426117965E+02  0.77389520262E+02  0.00000000000E+00 0.  1.
        -13    1    4    4    0    0 -0.71890563425E+02  0.27913177924E+02  0.33162153516E+02  0.83947168131E+02  0.00000000000E+00 0. -1.
         13    1    4    4    0    0  0.88101244740E+01  0.57372849296E+02 -0.76576003930E+01  0.58548278996E+02  0.00000000000E+00 0.  1.
         -1    1    1    2    0  502  0.10216880297E+02 -0.37623375687E+02 -0.52461196473E+02  0.65361151891E+02  0.00000000000E+00 0.  1.
<scales pt_clust_5="13000.00000" pt_clust_6="13000.00000" pt_clust_7="13000.00000" pt_clust_8="13000.00000" pt_clust_9="38.98593"></scales>
<clustering>
<clus scale="   38.986">  2  9  1 -1</clus>
<clus scale="   82.416">  5  6 -1 -1</clus>
<clus scale="   91.660">  7  8 -1 -1</clus>
<clus scale="  118.004">  1  5  2 -1</clus>
<clus scale="   38.986">  2  5  1 -1</clus>
</clustering>
</event>
<event>
 9    1  0.4067873E-005  0.1033272E+03  0.7546771E-02  0.1276736E+00
         21   -1    0    0  501  502  0.00000000000E+00  0.00000000000E+00  0.37978329394E+03  0.37978329394E+03  0.00000000000E+00 0. -1.
          1   -1    0    0  502    0 -0.00000000000E+00 -0.00000000000E+00 -0.53601776088E+02  0.53601776088E+02  0.00000000000E+00 0. -1.
        -24    2    1    2    0    0  0.95346373671E+01 -0.52321898107E+02  0.47099943733E+02  0.11997428927E+03  0.96679548271E+02 0.  0.
         23    2    1    2    0    0 -0.33704805617E+01  0.50542052527E+01  0.14100872885E+03  0.16734113224E+03  0.89903769664E+02 0.  0.
         13    1    3    3    0    0 -0.45952620382E+01 -0.70892996376E+02  0.42334805290E+01  0.71167799781E+02  0.00000000000E+00 0. -1.
        -14    1    3    3    0    0  0.14129899405E+02  0.18571098269E+02  0.42866463204E+02  0.48806489484E+02  0.00000000000E+00 0.  1.
        -13    1    4    4    0    0 -0.30053469548E+02  0.21098347905E+02  0.12874271306E+03  0.13387694903E+03  0.00000000000E+00 0.  1.
         13    1    4    4    0    0  0.26682988986E+02 -0.16044142652E+02  0.12266015785E+02  0.33464183210E+02  0.00000000000E+00 0. -1.
          2    1    1    2  501    0 -0.61641568054E+01  0.47267692854E+02  0.13807284528E+03  0.14606964852E+03  0.00000000000E+00 0. -1.
<scales pt_clust_5="13000.00000" pt_clust_6="13000.00000" pt_clust_7="13000.00000" pt_clust_8="13000.00000" pt_clust_9="47.66793"></scales>
<clustering>
<clus scale="   47.668">  1  9  2 -1</clus>
<clus scale="   89.904">  7  8 -1 -1</clus>
<clus scale="   96.680">  5  6 -1 -1</clus>
<clus scale="   97.017">  1  7  2 -1</clus>
<clus scale="   47.668">  1  5  2 -1</clus>
</clustering>
</event>
<event>
 9    1  0.4067873E-005  0.1346617E+03  0.7546771E-02  0.1224374E+00
         -2   -1    0    0    0  501 -0.00000000000E+00  0.00000000000E+00  0.25117290256E+03  0.25117290256E+03  0.00000000000E+00 0.  1.
         21   -1    0    0  501  502  0.00000000000E+00 -0.00000000000E+00 -0.93179272118E+02  0.93179272118E+02  0.00000000000E+00 0. -1.
        -24    2    1    2    0    0 -0.52077985314E+02 -0.91011587788E+02  0.13917245021E+03  0.19028216428E+03  0.76440208531E+02 0.  0.
         23    2    1    2    0    0  0.49526603467E+02  0.71007701783E+02  0.31750472858E+02  0.13011522774E+03  0.91798157935E+02 0.  0.
         11    1    3    3    0    0 -0.56836470298E+02 -0.27261658864E+02  0.49465177292E+02  0.80127312225E+02  0.00000000000E+00 0. -1.
        -12    1    3    3    0    0  0.47584849837E+01 -0.63749928924E+02  0.89707272916E+02  0.11015485205E+03  0.00000000000E+00 0.  1.
        -11    1    4    4    0    0  0.39205766101E+02  0.39296173358E+02  0.63311317460E+02  0.84199787736E+02  0.00000000000E+00 0.  1.
         11    1    4    4    0    0  0.10320837366E+02  0.31711528425E+02 -0.31560844603E+02  0.45915440007E+02  0.00000000000E+00 0. -1.
         -1    1    1    2    0  502  0.25513818470E+01  0.20003886005E+02 -0.12929292619E+02  0.23954782660E+02  0.00000000000E+00 0.  1.
<scales pt_clust_5="13000.00000" pt_clust_6="13000.00000" pt_clust_7="13000.00000" pt_clust_8="13000.00000" pt_clust_9="20.16594"></scales>
<clustering>
<clus scale="   20.166">  2  9  1 -1</clus>
<clus scale="   76.440">  5  6 -1 -1</clus>
<clus scale="   91.798">  7  8 -1 -1</clus>
<clus scale="  124.700">  1  5  2 -1</clus>
<clus scale="   20.166">  2  5  1 -1</clus>
</clustering>
</event>
<event>
 9    1  0.4067873E-005  0.1596469E+03  0.7546771E-02  0.1190080E+00
          1   -1    0    0  502    0 -0.00000000000E+00  0.00000000000E+00  0.75102087340E+03  0.75102087340E+03  0.00000000000E+00 0. -1.
         21   -1    0    0  501  502  0.00000000000E+00 -0.00000000000E+00 -0.12593014417E+03  0.12593014417E+03  0.00000000000E+00 0.  1.
        -24    2    1    2    0    0  0.12971096189E+03 -0.35821534171E+02  0.38667017922E+03  0.41703211074E+03  0.79333712541E+02 0.  0.
         23    2    1    2    0    0 -0.75248245589E+02 -0.11342193190E+03 -0.10049425939E+02  0.16500005600E+03  0.92721057035E+02 0.  0.
         13    1    3    3    0    0  0.13210183438E+03 -0.49609113094E+02  0.36395500262E+03  0.39035266450E+03  0.00000000000E+00 0. -1.
        -14    1    3    3    0    0 -0.23908724897E+01  0.13787578923E+02  0.22715176598E+02  0.26679446240E+02  0.00000000000E+00 0.  1.
        -11    1    4    4    0    0 -0.43625748496E+02  0.32939383165E+01 -0.15356246314E+01  0.43776867230E+02  0.00000000000E+00 0. -1.
         11    1    4    4    0    0 -0.31622497093E+02 -0.11671587021E+03 -0.85138013074E+01  0.12122318877E+03  0.00000000000E+00 0.  1.
          2    1    1    2  501    0 -0.54462716305E+02  0.14924346607E+03  0.24846997595E+03  0.29491885084E+03  0.00000000000E+00 0. -1.
<scales pt_clust_5="13000.00000" pt_clust_6="13000.00000" pt_clust_7="13000.00000" pt_clust_8="13000.00000" pt_clust_9="129.96136"></scales>
<clustering>
<clus scale="   79.334">  5  6 -1 -1</clus>
<clus scale="   92.721">  7  8 -1 -1</clus>
<clus scale="  156.211">  1  5  2 -1</clus>
<clus scale="  129.961">  2  9  1 -1</clus>
<clus scale="  129.961">  2  5  1 -1</clus>
</clustering>
</event>
<event>
 9    1  0.4067873E-005  0.9719794E+02  0.7546771E-02  0.1295166E+00
          3   -1    0    0  502    0 -0.00000000000E+00  0.00000000000E+00  0.20741581940E+03  0.20741581940E+03  0.00000000000E+00 0. -1.
         21   -1    0    0  501  502  0.00000000000E+00 -0.00000000000E+00 -0.18566727697E+03  0.18566727697E+03  0.00000000000E+00 0. -1.
         23    2    1    2    0    0 -0.15820369567E+02 -0.20950539335E+02  0.16365473125E+03  0.18966201982E+03  0.92193283441E+02 0.  0.
        -24    2    1    2    0    0  0.35863107897E+02  0.54585623521E+02 -0.73139909750E+02  0.12428934218E+03  0.76371731536E+02 0.  0.
         13    1    4    4    0    0  0.50022270727E+02  0.44283361834E+02 -0.22161345563E+02  0.70387278262E+02  0.00000000000E+00 0. -1.
        -14    1    4    4    0    0 -0.14159162830E+02  0.10302261687E+02 -0.50978564187E+02  0.53902063917E+02  0.00000000000E+00 0.  1.
        -13    1    3    3    0    0 -0.23637743737E+02 -0.40832826724E+02  0.16142886926E+03  0.16818246786E+03  0.00000000000E+00 0. -1.
         13    1    3    3    0    0  0.78173741703E+01  0.19882287390E+02  0.22258619922E+01  0.21479551959E+02  0.00000000000E+00 0.  1.
          4    1    1    2  501    0 -0.20042738330E+02 -0.33635084187E+02 -0.68766279062E+02  0.79131734368E+02  0.00000000000E+00 0. -1.
<scales pt_clust_5="13000.00000" pt_clust_6="13000.00000" pt_clust_7="13000.00000" pt_clust_8="13000.00000" pt_clust_9="39.15393"></scales>
<clustering>
<clus scale="   39.154">  2  9  1 -1</clus>
<clus scale="   76.372">  5  6 -1 -1</clus>
<clus scale="   82.344">  2  5  1 -1</clus>
<clus scale="   92.193">  7  8 -1 -1</clus>
<clus scale="   39.154">  2  5  1 -1</clus>
</clustering>
</event>
<event>
 9    1  0.4067873E-005  0.1021356E+03  0.7546771E-02  0.1280328E+00
         21   -1    0    0  501  502  0.00000000000E+00  0.00000000000E+00  0.67149271981E+02  0.67149271981E+02  0.00000000000E+00 0. -1.
         -4   -1    0    0    0  501 -0.00000000000E+00 -0.00000000000E+00 -0.61115749112E+03  0.61115749112E+03  0.00000000000E+00 0.  1.
        -24    2    1    2    0    0 -0.38377264830E+02  0.22757226039E+02 -0.53730517957E+03  0.54569085668E+03  0.84207774468E+02 0.  0.
         23    2    1    2    0    0  0.12890285504E+02  0.53128504263E+00 -0.18585683613E+02  0.96103742787E+02  0.93402676719E+02 0.  0.
         13    1    3    3    0    0 -0.19365937270E+02  0.20008727275E+02 -0.44386259801E+02  0.52397793395E+02  0.00000000000E+00 0. -1.
        -14    1    3    3    0    0 -0.19011327560E+02  0.27484987637E+01 -0.49291891977E+03  0.49329306329E+03  0.00000000000E+00 0.  1.
        -13    1    4    4    0    0 -0.23166396863E+02 -0.26649430859E+02 -0.33376841099E+02  0.48588966139E+02  0.00000000000E+00 0.  1.
         13    1    4    4    0    0  0.36056682366E+02  0.27180715901E+02  0.14791157486E+02  0.47514776649E+02  0.00000000000E+00 0. -1.
         -3    1    1    2    0  502  0.25486979326E+02 -0.23288511082E+02  0.11882644045E+02  0.36512163632E+02  0.00000000000E+00 0.  1.
<scales pt_clust_5="13000.00000" pt_clust_6="13000.00000" pt_clust_7="13000.00000" pt_clust_8="13000.00000" pt_clust_9="34.52450"></scales>
<clustering>
<clus scale="   34.524">  1  9  2 -1</clus>
<clus scale="   84.208">  5  6 -1 -1</clus>
<clus scale="   93.403">  7  8 -1 -1</clus>
<clus scale="   93.801">  2  5  1 -1</clus>
<clus scale="   34.524">  1  5  2 -1</clus>
</clustering>
</event>
<event>
 9    1  0.4067873E-005  0.9522919E+02  0.7546771E-02  0.1297364E+00
         -4   -1    0    0    0  501 -0.00000000000E+00  0.00000000000E+00  0.31368823883E+03  0.31368823883E+03  0.00000000000E+00 0.  1.
         21   -1    0    0  501  502  0.00000000000E+00 -0.00000000000E+00 -0.71100877193E+02  0.71100877193E+02  0.00000000000E+00 0.  1.
         23    2    1    2    0    0 -0.17253891444E+02  0.40850335569E+01  0.13171790651E+03  0.16170972550E+03  0.92119727297E+02 0.  0.
        -24    2    1    2    0    0  0.98178647992E+01  0.41920937795E+02  0.14071096709E+03  0.16774079884E+03  0.80521077000E+02 0.  0.
         13    1    4    4    0    0  0.61842726869E+01  0.29580100637E+02  0.14926399983E+03  0.15229238073E+03  0.00000000000E+00 0. -1.
        -14    1    4    4    0    0  0.36335921123E+01  0.12340837159E+02 -0.85530327336E+01  0.15448418118E+02  0.00000000000E+00 0.  1.
        -13    1    3    3    0    0  0.18183260720E+02 -0.25121677053E+02  0.10295367256E+03  0.10752296648E+03  0.00000000000E+00 0.  1.
         13    1    3    3    0    0 -0.35437152164E+02  0.29206710610E+02  0.28764233956E+02  0.54186759021E+02  0.00000000000E+00 0. -1.
         -3    1    1    2    0  502  0.74360266447E+01 -0.46005971352E+02 -0.29841511968E+02  0.55338591678E+02  0.00000000000E+00 0.  1.
<scales pt_clust_5="13000.00000" pt_clust_6="13000.00000" pt_clust_7="13000.00000" pt_clust_8="13000.00000" pt_clust_9="46.60305"></scales>
<clustering>
<clus scale="   46.603">  2  9  1 -1</clus>
<clus scale="   80.521">  5  6 -1 -1</clus>
<clus scale="   84.061">  2  5  1 -1</clus>
<clus scale="   92.120">  7  8 -1 -1</clus>
<clus scale="   46.603">  2  5  1 -1</clus>
</clustering>
</event>
<event>
 9    1  0.4067873E-005  0.1377174E+03  0.7546771E-02  0.1233310E+00
          1   -1    0    0  502    0 -0.00000000000E+00  0.00000000000E+00  0.10743424511E+03  0.10743424511E+03  0.00000000000E+00 0. -1.
         21   -1    0    0  501  502  0.00000000000E+00 -0.00000000000E+00 -0.55248139039E+03  0.55248139039E+03  0.00000000000E+00 0.  1.
        -24    2    1    2    0    0  0.35895441292E+02  0.40859333925E+02  0.47145535345E+02  0.10776315879E+03  0.80201178386E+02 0.  0.
         23    2    1    2    0    0  0.54403137328E+02 -0.95092664455E+02 -0.24215699862E+03  0.28083544866E+03  0.90698517391E+02 0.  0.
         13    1    3    3    0    0 -0.21175932876E+02  0.29840829936E+02  0.73548365084E+01  0.37322766302E+02  0.00000000000E+00 0. -1.
        -14    1    3    3    0    0  0.57071374168E+02  0.11018503990E+02  0.39790698837E+02  0.70440392486E+02  0.00000000000E+00 0.  1.
        -13    1    4    4    0    0 -0.50401291452E+01 -0.43922666289E+02 -0.26941477141E+02  0.51773030685E+02  0.00000000000E+00 0. -1.
         13    1    4    4    0    0  0.59443266473E+02 -0.51169998166E+02 -0.21521552148E+03  0.22906241797E+03  0.00000000000E+00 0.  1.
          2    1    1    2  501    0 -0.90298578620E+02  0.54233330530E+02 -0.25003568200E+03  0.27131702806E+03  0.00000000000E+00 0. -1.
<scales pt_clust_5="13000.00000" pt_clust_6="13000.00000" pt_clust_7="13000.00000" pt_clust_8="13000.00000" pt_clust_9="103.63324"></scales>
<clustering>
<clus scale="   80.201">  5  6 -1 -1</clus>
<clus scale="   90.699">  7  8 -1 -1</clus>
<clus scale="   96.903">  1  5  2 -1</clus>
<clus scale="  103.633">  2  9  1 -1</clus>
<clus scale="  103.633">  2  5  1 -1</clus>
</clustering>
</event>
<event>
 9    1  0.4067873E-005  0.1175980E+03  0.7546771E-02  0.1251177E+00
          3   -1    0    0  502    0 -0.00000000000E+00  0.00000000000E+00  0.62626476042E+03  0.62626476042E+03  0.00000000000E+00 0. -1.
         21   -1    0    0  501  502  0.00000000000E+00 -0.00000000000E+00 -0.10892855222E+03  0.10892855222E+03  0.00000000000E+00 0.  1.
        -24    2    1    2    0    0  0.31540948580E+02  0.70689876986E+02  0.34758342140E+03  0.36494938341E+03  0.79886966843E+02 0.  0.
         23    2    1    2    0    0  0.46613456853E+02 -0.50111002344E+02 -0.58074042876E+02  0.12850716023E+03  0.91965041503E+02 0.  0.
         11    1    3    3    0    0  0.43373212251E+02  0.24171878275E+02  0.88686919423E+02  0.10164096082E+03  0.00000000000E+00 0. -1.
        -12    1    3    3    0    0 -0.11832263671E+02  0.46517998710E+02  0.25889650198E+03  0.26330842258E+03  0.00000000000E+00 0.  1.
        -11    1    4    4    0    0  0.14097287604E+02 -0.54487020030E+02 -0.73236036783E+02  0.92363877968E+02  0.00000000000E+00 0.  1.
         11    1    4    4    0    0  0.32516169249E+02  0.43760176860E+01  0.15161993907E+02  0.36143282262E+02  0.00000000000E+00 0. -1.
          4    1    1    2  501    0 -0.78154405434E+02 -0.20578874642E+02  0.22782682967E+03  0.24173676900E+03  0.00000000000E+00 0. -1.
<scales pt_clust_5="13000.00000" pt_clust_6="13000.00000" pt_clust_7="13000.00000" pt_clust_8="13000.00000" pt_clust_9="80.81836"></scales>
<clustering>
<clus scale="   79.887">  5  6 -1 -1</clus>
<clus scale="   80.818">  2  9  1 -1</clus>
<clus scale="   91.965">  7  8 -1 -1</clus>
<clus scale="  108.414">  1  5  2 -1</clus>
<clus scale="   80.818">  2  5  1 -1</clus>
</clustering>
</event>
<event>
 9    1  0.4067873E-005  0.1288428E+03  0.7546771E-02  0.1234163E+00
         21   -1    0    0  501  502  0.00000000000E+00  0.00000000000E+00  0.33193286778E+02  0.33193286778E+02  0.00000000000E+00 0. -1.
          1   -1    0    0  502    0 -0.00000000000E+00 -0.00000000000E+00 -0.99971959830E+03  0.99971959830E+03  0.00000000000E+00 0. -1.
        -24    2    1    2    0    0  0.86634008403E+02  0.29390000824E+02 -0.71656542221E+03  0.72682347857E+03  0.80231796259E+02 0.  0.
         23    2    1    2    0    0 -0.47235081788E+02 -0.11248754732E+02 -0.93030733344E+02  0.14327523612E+03  0.97546852863E+02 0.  0.
         13    1    3    3    0    0  0.72548392269E+02  0.55547234226E+02 -0.50784436254E+03  0.51599870254E+03  0.00000000000E+00 0. -1.
        -14    1    3    3    0    0  0.14085616134E+02 -0.26157233402E+02 -0.20872105967E+03  0.21082477604E+03  0.00000000000E+00 0.  1.
        -13    1    4    4    0    0 -0.24887264070E+02 -0.40344631531E+02 -0.95382244572E+02  0.10651214854E+03  0.00000000000E+00 0.  1.
         13    1    4    4    0    0 -0.22347817718E+02  0.29095876799E+02  0.23515112278E+01  0.36763087581E+02  0.00000000000E+00 0. -1.
          2    1    1    2  501    0 -0.39398926615E+02 -0.18141246092E+02 -0.15693015597E+03  0.16281417039E+03  0.00000000000E+00 0. -1.
<scales pt_clust_5="13000.00000" pt_clust_6="13000.00000" pt_clust_7="13000.00000" pt_clust_8="13000.00000" pt_clust_9="43.37490"></scales>
<clustering>
<clus scale="   43.375">  1  9  2 -1</clus>
<clus scale="   80.232">  5  6 -1 -1</clus>
<clus scale="   97.547">  7  8 -1 -1</clus>
<clus scale="  116.285">  2  5  1 -1</clus>
<clus scale="   43.375">  1  5  2 -1</clus>
</clustering>
</event>
<event>
 9    1  0.4067873E-005  0.9584021E+02  0.7546771E-02  0.1295380E+00
          1   -1    0    0  502    0 -0.00000000000E+00  0.00000000000E+00  0.28049559529E+03  0.28049559529E+03  0.00000000000E+00 0. -1.
         21   -1    0    0  501  502  0.00000000000E+00 -0.00000000000E+00 -0.12681362560E+03  0.12681362560E+03  0.00000000000E+00 0. -1.
        -24    2    1    2    0    0 -0.41437997569E+02  0.13117497857E+02  0.19144092253E+03  0.21176369381E+03  0.79404400390E+02 0.  0.
         23    2    1    2    0    0 -0.24102259686E+01  0.35256928089E+02  0.29863950519E+02  0.10154760767E+03  0.90394695176E+02 0.  0.
         11    1    3    3    0    0 -0.47142543319E+02  0.32716704397E+02  0.17873312893E+03  0.18771876175E+03  0.00000000000E+00 0. -1.
        -12    1    3    3    0    0  0.57045457504E+01 -0.19599206539E+02  0.12707793606E+02  0.24044932055E+02  0.00000000000E+00 0.  1.
        -13    1    4    4    0    0 -0.18683448924E+02  0.59140468628E+02  0.36404370781E+02  0.71916232557E+02  0.00000000000E+00 0. -1.
         13    1    4    4    0    0  0.16273222955E+02 -0.23883540539E+02 -0.65404202626E+01  0.29631375116E+02  0.00000000000E+00 0.  1.
          2    1    1    2  501    0  0.43848223537E+02 -0.48374425946E+02 -0.67622903366E+02  0.93997919406E+02  0.00000000000E+00 0. -1.
<scales pt_clust_5="13000.00000" pt_clust_6="13000.00000" pt_clust_7="13000.00000" pt_clust_8="13000.00000" pt_clust_9="65.28975"></scales>
<clustering>
<clus scale="   65.290">  2  9  1 -1</clus>
<clus scale="   79.404">  5  6 -1 -1</clus>
<clus scale="   85.552">  1  5  2 -1</clus>
<clus scale="   90.395">  7  8 -1 -1</clus>
<clus scale="   65.290">  2  5  1 -1</clus>
</clustering>
</event>
<event>
 9    1  0.4067873E-005  0.9579252E+02  0.7546771E-02  0.1293843E+00
          1   -1    0    0  502    0 -0.00000000000E+00  0.00000000000E+00  0.98705154679E+02  0.98705154679E+02  0.00000000000E+00 0. -1.
         21   -1    0    0  501  502  0.00000000000E+00 -0.00000000000E+00 -0.13774461440E+03  0.13774461440E+03  0.00000000000E+00 0. -1.
        -24    2    1    2    0    0  0.32659415004E+02  0.92802990507E+01  0.34836484633E+02  0.94940589256E+02  0.81531426381E+02 0.  0.
         23    2    1    2    0    0 -0.22952524736E+02 -0.30317323263E+02 -0.61627454462E+02  0.11530220344E+03  0.89725673548E+02 0.  0.
         11    1    3    3    0    0  0.55300536577E+02 -0.12224312105E+02  0.17785874117E+02  0.59362618459E+02  0.00000000000E+00 0. -1.
        -12    1    3    3    0    0 -0.22641121573E+02  0.21504611156E+02  0.17050610516E+02  0.35577970797E+02  0.00000000000E+00 0.  1.
        -13    1    4    4    0    0 -0.33777361446E+02 -0.58204660140E+02 -0.46343773259E+02  0.81709472695E+02  0.00000000000E+00 0. -1.
         13    1    4    4    0    0  0.10824836711E+02  0.27887336877E+02 -0.15283681203E+02  0.33592730747E+02  0.00000000000E+00 0.  1.
          2    1    1    2  501    0 -0.97068902682E+01  0.21037024212E+02 -0.12248489892E+02  0.26206976381E+02  0.00000000000E+00 0. -1.
<scales pt_clust_5="13000.00000" pt_clust_6="13000.00000" pt_clust_7="13000.00000" pt_clust_8="13000.00000" pt_clust_9="23.16852"></scales>
<clustering>
<clus scale="   23.169">  2  9  1 -1</clus>
<clus scale="   81.531">  5  6 -1 -1</clus>
<clus scale="   88.164">  1  5  2 -1</clus>
<clus scale="   89.726">  7  8 -1 -1</clus>
<clus scale="   23.169">  2  5  1 -1</clus>
</clustering>
</event>
<event>
 9    1  0.4067873E-005  0.9721721E+02  0.7546771E-02  0.1291216E+00
         21   -1    0    0  501  502  0.00000000000E+00  0.00000000000E+00  0.13096783713E+03  0.13096783713E+03  0.00000000000E+00 0.  1.
          1   -1    0    0  502    0 -0.00000000000E+00 -0.00000000000E+00 -0.20325986658E+03  0.20325986658E+03  0.00000000000E+00 0. -1.
         23    2    1    2    0    0  0.20645620411E+02 -0.22866700351E+02 -0.13360980960E+03  0.16401751404E+03  0.90005755723E+02 0.  0.
        -24    2    1    2    0    0 -0.43777038171E+02  0.33599403396E+02 -0.63593566777E+01  0.97888351677E+02  0.80599869709E+02 0.  0.
         11    1    4    4    0    0  0.23675288956E+02  0.77178995385E+01  0.28182874087E+01  0.25060487313E+02  0.00000000000E+00 0. -1.
        -12    1    4    4    0    0 -0.67452327128E+02  0.25881503858E+02 -0.91776440864E+01  0.72827864364E+02  0.00000000000E+00 0.  1.
        -13    1    3    3    0    0 -0.12852308242E+02  0.18695025578E+02 -0.29545435265E+01  0.22878267765E+02  0.00000000000E+00 0.  1.
         13    1    3    3    0    0  0.33497928653E+02 -0.41561725929E+02 -0.13065526607E+03  0.14113924627E+03  0.00000000000E+00 0. -1.
          2    1    1    2  501    0  0.23131417760E+02 -0.10732703045E+02  0.67677136827E+02  0.72321837997E+02  0.00000000000E+00 0. -1.
<scales pt_clust_5="13000.00000" pt_clust_6="13000.00000" pt_clust_7="13000.00000" pt_clust_8="13000.00000" pt_clust_9="25.50007"></scales>
<clustering>
<clus scale="   25.500">  1  9  2 -1</clus>
<clus scale="   80.600">  5  6 -1 -1</clus>
<clus scale="   88.580">  1  5  2 -1</clus>
<clus scale="   90.006">  7  8 -1 -1</clus>
<clus scale="   25.500">  1  5  2 -1</clus>
</clustering>
</event>
<event>
 9    1  0.4067873E-005  0.1023773E+03  0.7546771E-02  0.1281606E+00
         21   -1    0    0  501  502  0.00000000000E+00  0.00000000000E+00  0.96641850726E+02  0.96641850726E+02  0.00000000000E+00 0.  1.
          1   -1    0    0  502    0 -0.00000000000E+00 -0.00000000000E+00 -0.29878070413E+03  0.29878070413E+03  0.00000000000E+00 0. -1.
        -24    2    1    2    0    0  0.83181114288E+01  0.44820315687E+02 -0.24352867366E+03  0.26044294252E+03  0.80288602775E+02 0.  0.
         23    2    1    2    0    0 -0.20938431376E+02 -0.15661199693E+02  0.30118717803E+02  0.10126664344E+03  0.93081173329E+02 0.  0.
         11    1    3    3    0    0 -0.94943065009E+01  0.58089585203E+02 -0.22139605970E+03  0.22908678927E+03  0.00000000000E+00 0. -1.
        -12    1    3    3    0    0  0.17812417930E+02 -0.13269269516E+02 -0.22132613959E+02  0.31356153250E+02  0.00000000000E+00 0.  1.
        -13    1    4    4    0    0 -0.55834701715E+02 -0.49595672664E+01  0.32311642651E+02  0.64700490523E+02  0.00000000000E+00 0. -1.
         13    1    4    4    0    0  0.34896270339E+02 -0.10701632426E+02 -0.21929248485E+01  0.36566152922E+02  0.00000000000E+00 0.  1.
          2    1    1    2  501    0  0.12620319947E+02 -0.29159115995E+02  0.11271102454E+02  0.33712968895E+02  0.00000000000E+00 0. -1.
<scales pt_clust_5="13000.00000" pt_clust_6="13000.00000" pt_clust_7="13000.00000" pt_clust_8="13000.00000" pt_clust_9="31.77305"></scales>
<clustering>
<clus scale="   31.773">  1  9  2 -1</clus>
<clus scale="   80.289">  5  6 -1 -1</clus>
<clus scale="   90.903">  2  5  1 -1</clus>
<clus scale="   93.081">  7  8 -1 -1</clus>
<clus scale="   31.773">  1  5  2 -1</clus>
</clustering>
</event>
<event>
 9    1  0.4067873E-005  0.1137570E+03  0.7546771E-02  0.1260259E+00
          1   -1    0    0  502    0 -0.00000000000E+00  0.00000000000E+00  0.29618605531E+02  0.29618605531E+02  0.00000000000E+00 0. -1.
         21   -1    0    0  501  502  0.00000000000E+00 -0.00000000000E+00 -0.57885011235E+03  0.57885011235E+03  0.00000000000E+00 0. -1.
         23    2    1    2    0    0  0.73790178056E+02 -0.48489378973E+01 -0.19336451645E+03  0.22861113699E+03  0.96977900348E+02 0.  0.
        -24    2    1    2    0    0 -0.39592830102E+02 -0.14016191564E+02 -0.28271056863E+03  0.29692861275E+03  0.80481610509E+02 0.  0.
         11    1    4    4    0    0  0.21216877895E+02  0.63947630814E+01 -0.12004081615E+03  0.12206902328E+03  0.00000000000E+00 0. -1.
        -12    1    4    4    0    0 -0.60809707997E+02 -0.20410954645E+02 -0.16266975249E+03  0.17485958947E+03  0.00000000000E+00 0.  1.
        -11    1    3    3    0    0  0.35185619580E+02 -0.47074890545E+02 -0.13318334667E+03  0.14557430053E+03  0.00000000000E+00 0.  1.
         11    1    3    3    0    0  0.38604558477E+02  0.42225952648E+02 -0.60181169776E+02  0.83036836452E+02  0.00000000000E+00 0. -1.
          2    1    1    2  501    0 -0.34197347955E+02  0.18865129461E+02 -0.73156421735E+02  0.82928968146E+02  0.00000000000E+00 0. -1.
<scales pt_clust_5="13000.00000" pt_clust_6="13000.00000" pt_clust_7="13000.00000" pt_clust_8="13000.00000" pt_clust_9="39.05577"></scales>
<clustering>
<clus scale="   39.056">  2  9  1 -1</clus>
<clus scale="   80.482">  5  6 -1 -1</clus>
<clus scale="   96.978">  7  8 -1 -1</clus>
<clus scale="  100.066">  2  5  1 -1</clus>
<clus scale="   39.056">  2  5  1 -1</clus>
</clustering>
</event>
<event>
 9    1  0.4067873E-005  0.9257246E+02  0.7546771E-02  0.1300115E+00
         -2   -1    0    0    0  501 -0.00000000000E+00  0.00000000000E+00  0.27223455540E+03  0.27223455540E+03  0.00000000000E+00 0.  1.
         21   -1    0    0  501  502  0.00000000000E+00 -0.00000000000E+00 -0.96574385559E+02  0.96574385559E+02  0.00000000000E+00 0.  1.
        -24    2    1    2    0    0 -0.24960384718E+02 -0.29324886312E+02  0.21183651533E+03  0.23002294492E+03  0.80949837565E+02 0.  0.
         23    2    1    2    0    0 -0.68143202719E+01 -0.41107971812E+01 -0.17590194795E+02  0.89056509755E+02  0.86938560849E+02 0.  0.
         13    1    3    3    0    0 -0.33815712301E+02 -0.17143109937E+02  0.32158194758E+02  0.49714566345E+02  0.00000000000E+00 0. -1.
        -14    1    3    3    0    0  0.88553275836E+01 -0.12181776375E+02  0.17967832057E+03  0.18030837858E+03  0.00000000000E+00 0.  1.
        -11    1    4    4    0    0 -0.36784434966E+02 -0.27397724737E+02  0.28382859546E+01  0.45954171124E+02  0.00000000000E+00 0.  1.
         11    1    4    4    0    0  0.29970114694E+02  0.23286927556E+02 -0.20428480750E+02  0.43102338631E+02  0.00000000000E+00 0. -1.
         -1    1    1    2    0  502  0.31774704990E+02  0.33435683493E+02 -0.18586150696E+02  0.49729486279E+02  0.00000000000E+00 0.  1.
<scales pt_clust_5="13000.00000" pt_clust_6="13000.00000" pt_clust_7="13000.00000" pt_clust_8="13000.00000" pt_clust_9="46.12566"></scales>
<clustering>
<clus scale="   46.126">  2  9  1 -1</clus>
<clus scale="   80.950">  5  6 -1 -1</clus>
<clus scale="   86.939">  7  8 -1 -1</clus>
<clus scale="   86.973">  1  5  2 -1</clus>
<clus scale="   46.126">  2  5  1 -1</clus>
</clustering>
</event>
<event>
 9    1  0.4067873E-005  0.9387359E+02  0.7546771E-02  0.1298445E+00
         21   -1    0    0  501  502  0.00000000000E+00  0.00000000000E+00  0.12706078988E+03  0.12706078988E+03  0.00000000000E+00 0. -1.
          3   -1    0    0  502    0 -0.00000000000E+00 -0.00000000000E+00 -0.23046623045E+03  0.23046623045E+03  0.00000000000E+00 0. -1.
        -24    2    1    2    0    0  0.18316620212E+02  0.24854507802E+02 -0.19036738729E+03  0.20917938789E+03  0.81012523987E+02 0.  0.
         23    2    1    2    0    0  0.90249608718E+01 -0.19595753045E+02  0.61049372765E+02  0.11031241130E+03  0.89310462526E+02 0.  0.
         13    1    3    3    0    0  0.24154765241E+02  0.44932195236E+02 -0.17736879432E+03  0.18455905302E+03  0.00000000000E+00 0. -1.
        -14    1    3    3    0    0 -0.58381450284E+01 -0.20077687434E+02 -0.12998592961E+02  0.24620334869E+02  0.00000000000E+00 0.  1.
        -13    1    4    4    0    0  0.30273964532E+02  0.13736748957E+02  0.62461586898E+02  0.70757763095E+02  0.00000000000E+00 0. -1.
         13    1    4    4    0    0 -0.21249003660E+02 -0.33332502002E+02 -0.14122141332E+01  0.39554648210E+02  0.00000000000E+00 0.  1.
          4    1    1    2  501    0 -0.27341581084E+02 -0.52587547565E+01  0.25912573956E+02  0.38035221135E+02  0.00000000000E+00 0. -1.
<scales pt_clust_5="13000.00000" pt_clust_6="13000.00000" pt_clust_7="13000.00000" pt_clust_8="13000.00000" pt_clust_9="27.84271"></scales>
<clustering>
<clus scale="   27.843">  1  9  2 -1</clus>
<clus scale="   81.013">  5  6 -1 -1</clus>
<clus scale="   86.017">  2  5  1 -1</clus>
<clus scale="   89.310">  7  8 -1 -1</clus>
<clus scale="   27.843">  1  5  2 -1</clus>
</clustering>
</event>
<event>
 9    1  0.4067873E-005  0.1799474E+03  0.7546771E-02  0.1169372E+00
         21   -1    0    0  501  502  0.00000000000E+00  0.00000000000E+00  0.10101278860E+03  0.10101278860E+03  0.00000000000E+00 0.  1.
          1   -1    0    0  502    0 -0.00000000000E+00 -0.00000000000E+00 -0.57578376862E+03  0.57578376862E+03  0.00000000000E+00 0. -1.
         23    2    1    2    0    0 -0.91749500310E+02 -0.13080880347E+03 -0.43077181489E+03  0.46868552543E+03  0.92589693648E+02 0.  0.
        -24    2    1    2    0    0  0.50276009264E+02  0.12759327083E+03 -0.19792787934E+02  0.15998267418E+03  0.79968629568E+02 0.  0.
         11    1    4    4    0    0  0.84286338019E+00  0.50185230384E+02 -0.42049773423E+02  0.65478631723E+02  0.00000000000E+00 0. -1.
        -12    1    4    4    0    0  0.49433145884E+02  0.77408040448E+02  0.22256985489E+02  0.94504042459E+02  0.00000000000E+00 0.  1.
        -13    1    3    3    0    0 -0.86586207669E+02 -0.63554884037E+02 -0.33308145512E+03  0.34997092792E+03  0.00000000000E+00 0. -1.
         13    1    3    3    0    0 -0.51632926404E+01 -0.67253919430E+02 -0.97690359769E+02  0.11871459751E+03  0.00000000000E+00 0.  1.
          2    1    1    2  501    0  0.41473491046E+02  0.32155326349E+01 -0.24206377194E+02  0.48128357613E+02  0.00000000000E+00 0. -1.
<scales pt_clust_5="13000.00000" pt_clust_6="13000.00000" pt_clust_7="13000.00000" pt_clust_8="13000.00000" pt_clust_9="41.59796"></scales>
<clustering>
<clus scale="   41.598">  1  9  2 -1</clus>
<clus scale="   79.969">  5  6 -1 -1</clus>
<clus scale="   92.590">  7  8 -1 -1</clus>
<clus scale="  173.791">  1  5  2 -1</clus>
<clus scale="   41.598">  1  5  2 -1</clus>
</clustering>
</event>
<event>
 9    1  0.4105626E-005  0.9766965E+02  0.7546771E-02  0.1290684E+00
          1   -1    0    0  502    0 -0.00000000000E+00  0.00000000000E+00  0.16442484121E+03  0.16442484121E+03  0.00000000000E+00 0. -1.
         21   -1    0    0  501  502  0.00000000000E+00 -0.00000000000E+00 -0.23367377474E+03  0.23367377474E+03  0.00000000000E+00 0. -1.
         23    2    1    2    0    0  0.34681399540E+02  0.23230685915E+02  0.11518155486E+03  0.15235844851E+03  0.90575062849E+02 0.  0.
        -24    2    1    2    0    0 -0.25068020678E+02  0.43673102148E+02 -0.10961058488E+03  0.14491084695E+03  0.80305216107E+02 0.  0.
         11    1    4    4    0    0 -0.51017617760E+02  0.46004677788E+02 -0.81252947109E+02  0.10640145259E+03  0.00000000000E+00 0. -1.
        -12    1    4    4    0    0  0.25949597082E+02 -0.23315756406E+01 -0.28357637776E+02  0.38509394359E+02  0.00000000000E+00 0.  1.
        -13    1    3    3    0    0  0.40724680514E+02 -0.55630358829E+01  0.88675090928E+01  0.42048539674E+02  0.00000000000E+00 0.  1.
         13    1    3    3    0    0 -0.60432809742E+01  0.28793721798E+02  0.10631404577E+03  0.11030990884E+03  0.00000000000E+00 0. -1.
          2    1    1    2  501    0 -0.96133788617E+01 -0.66903788063E+02 -0.74819903500E+02  0.10082932049E+03  0.00000000000E+00 0. -1.
<scales pt_clust_5="13000.00000" pt_clust_6="13000.00000" pt_clust_7="13000.00000" pt_clust_8="13000.00000" pt_clust_9="67.59093"></scales>
<clustering>
<clus scale="   67.591">  2  9  1 -1</clus>
<clus scale="   80.305">  5  6 -1 -1</clus>
<clus scale="   88.230">  2  5  1 -1</clus>
<clus scale="   90.575">  7  8 -1 -1</clus>
<clus scale="   67.591">  2  5  1 -1</clus>
</clustering>
</event>
<event>
 9    1  0.4067873E-005  0.9315700E+02  0.7546771E-02  0.1303665E+00
         21   -1    0    0  501  502  0.00000000000E+00  0.00000000000E+00  0.84226525919E+02  0.84226525919E+02  0.00000000000E+00 0.  1.
         -2   -1    0    0    0  501 -0.00000000000E+00 -0.00000000000E+00 -0.17075297993E+03  0.17075297993E+03  0.00000000000E+00 0.  1.
        -24    2    1    2    0    0 -0.88756799650E+01 -0.82196380354E+01 -0.29700611455E+02  0.84939808971E+02  0.78653065312E+02 0.  0.
         23    2    1    2    0    0 -0.24810728310E+02  0.24925178273E+02  0.39064283562E+01  0.98609605828E+02  0.92042150279E+02 0.  0.
         13    1    3    3    0    0 -0.19108122330E+02  0.29268135703E+02 -0.30025898286E+02  0.46079265124E+02  0.00000000000E+00 0. -1.
        -14    1    3    3    0    0  0.10232442365E+02 -0.37487773738E+02  0.32528683081E+00  0.38860543847E+02  0.00000000000E+00 0.  1.
        -11    1    4    4    0    0  0.16365094828E+02  0.47603463243E+02  0.96418100234E+01  0.51253005200E+02  0.00000000000E+00 0.  1.
         11    1    4    4    0    0 -0.41175823138E+02 -0.22678284970E+02 -0.57353816672E+01  0.47356600629E+02  0.00000000000E+00 0. -1.
         -1    1    1    2    0  502  0.33686408275E+02 -0.16705540238E+02 -0.60732270911E+02  0.71430091048E+02  0.00000000000E+00 0.  1.
<scales pt_clust_5="13000.00000" pt_clust_6="13000.00000" pt_clust_7="13000.00000" pt_clust_8="13000.00000" pt_clust_9="37.60120"></scales>
<clustering>
<clus scale="   37.601">  1  9  2 -1</clus>
<clus scale="   78.653">  5  6 -1 -1</clus>
<clus scale="   79.955">  2  5  1 -1</clus>
<clus scale="   92.042">  7  8 -1 -1</clus>
<clus scale="   37.601">  1  5  2 -1</clus>
</clustering>
</event>
<event>
 9    1  0.4067873E-005  0.8277987E+02  0.7546771E-02  0.1332196E+00
          1   -1    0    0  502    0 -0.00000000000E+00  0.00000000000E+00  0.13545969696E+03  0.13545969696E+03  0.00000000000E+00 0. -1.
         21   -1    0    0  501  502  0.00000000000E+00 -0.00000000000E+00 -0.25326275920E+03  0.25326275920E+03  0.00000000000E+00 0. -1.
         23    2    1    2    0    0 -0.10089341607E+02  0.14329033784E+02  0.97233786647E+02  0.11934338134E+03  0.66942642461E+02 0.  0.
        -24    2    1    2    0    0  0.13637942596E+02  0.46165990678E+02 -0.91297591097E+02  0.13159792781E+03  0.81642343727E+02 0.  0.
         11    1    4    4    0    0 -0.31387299630E+02  0.27141549865E+02 -0.62019480001E+02  0.74620655362E+02  0.00000000000E+00 0. -1.
        -12    1    4    4    0    0  0.45025242226E+02  0.19024440812E+02 -0.29278111096E+02  0.56977272443E+02  0.00000000000E+00 0.  1.
        -11    1    3    3    0    0 -0.30366310398E+02  0.28883076226E+02  0.75011242201E+02  0.85924567826E+02  0.00000000000E+00 0. -1.
         11    1    3    3    0    0  0.20276968791E+02 -0.14554042443E+02  0.22222544445E+02  0.33418813509E+02  0.00000000000E+00 0.  1.
          2    1    1    2  501    0 -0.35486009891E+01 -0.60495024461E+02 -0.12373925779E+03  0.13778114701E+03  0.00000000000E+00 0. -1.
<scales pt_clust_5="13000.00000" pt_clust_6="13000.00000" pt_clust_7="13000.00000" pt_clust_8="13000.00000" pt_clust_9="60.59901"></scales>
<clustering>
<clus scale="   60.599">  2  9  1 -1</clus>
<clus scale="   66.943">  7  8 -1 -1</clus>
<clus scale="   68.325">  1  7  2 -1</clus>
<clus scale="   81.642">  5  6 -1 -1</clus>
<clus scale="   60.599">  2  5  1 -1</clus>
</clustering>
</event>
<event>
 9    1  0.4067873E-005  0.1048181E+03  0.7546771E-02  0.1284266E+00
         -4   -1    0    0    0  501 -0.00000000000E+00  0.00000000000E+00  0.10842298630E+03  0.10842298630E+03  0.00000000000E+00 0.  1.
         21   -1    0    0  501  502  0.00000000000E+00 -0.00000000000E+00 -0.14894723005E+03  0.14894723005E+03  0.00000000000E+00 0. -1.
        -24    2    1    2    0    0  0.14036804980E+02  0.54753782788E+01  0.31501620038E+02  0.87686470347E+02  0.80433533775E+02 0.  0.
         23    2    1    2    0    0  0.25496893348E+02  0.15291396908E+02 -0.48182028348E+02  0.11906062140E+03  0.10473779319E+03 0.  0.
         13    1    3    3    0    0  0.42362730655E+02 -0.16992015897E+02  0.18843049402E+02  0.49380057346E+02  0.00000000000E+00 0. -1.
        -14    1    3    3    0    0 -0.28325925675E+02  0.22467394176E+02  0.12658570636E+02  0.38306413000E+02  0.00000000000E+00 0.  1.
        -11    1    4    4    0    0 -0.27761594962E+02 -0.26341907533E+02 -0.44033579650E+01  0.38522614250E+02  0.00000000000E+00 0.  1.
         11    1    4    4    0    0  0.53258488310E+02  0.41633304440E+02 -0.43778670383E+02  0.80538007153E+02  0.00000000000E+00 0. -1.
         -3    1    1    2    0  502 -0.39533698328E+02 -0.20766775186E+02 -0.23843835444E+02  0.50623124595E+02  0.00000000000E+00 0.  1.
<scales pt_clust_5="13000.00000" pt_clust_6="13000.00000" pt_clust_7="13000.00000" pt_clust_8="13000.00000" pt_clust_9="44.65616"></scales>
<clustering>
<clus scale="   44.656">  2  9  1 -1</clus>
<clus scale="   80.434">  5  6 -1 -1</clus>
<clus scale="   80.538">  1  5  2 -1</clus>
<clus scale="  104.738">  7  8 -1 -1</clus>
<clus scale="   44.656">  2  5  1 -1</clus>
</clustering>
</event>
<event>
 9    1  0.4067873E-005  0.2079994E+03  0.7546771E-02  0.1144255E+00
          1   -1    0    0  502    0 -0.00000000000E+00  0.00000000000E+00  0.49592888001E+03  0.49592888001E+03  0.00000000000E+00 0. -1.
         21   -1    0    0  501  502  0.00000000000E+00 -0.00000000000E+00 -0.16647347422E+03  0.16647347422E+03  0.00000000000E+00 0. -1.
        -24    2    1    2    0    0  0.68696143314E+02 -0.15228182550E+03  0.62942588109E+02  0.19504499124E+03  0.78561216433E+02 0.  0.
         23    2    1    2    0    0 -0.35042640082E+02  0.21605546953E+03  0.54529398166E+02  0.24344531306E+03  0.91565346347E+02 0.  0.
         13    1    3    3    0    0  0.81242310515E+02 -0.14259605696E+03  0.69061972662E+02  0.17805477962E+03  0.00000000000E+00 0. -1.
        -14    1    3    3    0    0 -0.12546167201E+02 -0.96857685417E+01 -0.61193845531E+01  0.16990211623E+02  0.00000000000E+00 0.  1.
        -11    1    4    4    0    0 -0.41886564387E+02  0.15596565180E+03 -0.77308452468E+00  0.16149416856E+03  0.00000000000E+00 0. -1.
         11    1    4    4    0    0  0.68439243043E+01  0.60089817723E+02  0.55302482691E+02  0.81951144505E+02  0.00000000000E+00 0.  1.
          2    1    1    2  501    0 -0.33653503232E+02 -0.63773644030E+02  0.21198341951E+03  0.22391204992E+03  0.00000000000E+00 0. -1.
<scales pt_clust_5="13000.00000" pt_clust_6="13000.00000" pt_clust_7="13000.00000" pt_clust_8="13000.00000" pt_clust_9="72.10854"></scales>
<clustering>
<clus scale="   72.109">  2  9  1 -1</clus>
<clus scale="   78.561">  5  6 -1 -1</clus>
<clus scale="   91.565">  7  8 -1 -1</clus>
<clus scale="  202.611">  1  5  2 -1</clus>
<clus scale="   72.109">  2  5  1 -1</clus>
</clustering>
</event>
<event>
 9    1  0.4067873E-005  0.1291744E+03  0.7546771E-02  0.1231162E+00
         21   -1    0    0  501  502  0.00000000000E+00  0.00000000000E+00  0.66658273835E+02  0.66658273835E+02  0.00000000000E+00 0.  1.
         -2   -1    0    0    0  501 -0.00000000000E+00 -0.00000000000E+00 -0.64508308716E+03  0.64508308716E+03  0.00000000000E+00 0.  1.
        -24    2    1    2    0    0  0.27917724070E+02  0.96953924880E+02 -0.53784497616E+03  0.55300730891E+03  0.79752131380E+02 0.  0.
         23    2    1    2    0    0 -0.44049985321E+01 -0.55890747499E+02 -0.34759960341E+02  0.11105907159E+03  0.89345860968E+02 0.  0.
         11    1    3    3    0    0  0.40741070545E+02  0.15861619401E+02 -0.13575950992E+03  0.14262563000E+03  0.00000000000E+00 0. -1.
        -12    1    3    3    0    0 -0.12823346476E+02  0.81092305479E+02 -0.40208546624E+03  0.41038167891E+03  0.00000000000E+00 0.  1.
        -11    1    4    4    0    0  0.21942971939E+02 -0.71541726463E+02 -0.24340847196E+02  0.78690466291E+02  0.00000000000E+00 0.  1.
         11    1    4    4    0    0 -0.26347970471E+02  0.15650978964E+02 -0.10419113144E+02  0.32368605302E+02  0.00000000000E+00 0. -1.
         -1    1    1    2    0  502 -0.23512725537E+02 -0.41063177381E+02 -0.58198768260E+01  0.47674980494E+02  0.00000000000E+00 0.  1.
<scales pt_clust_5="13000.00000" pt_clust_6="13000.00000" pt_clust_7="13000.00000" pt_clust_8="13000.00000" pt_clust_9="47.31842"></scales>
<clustering>
<clus scale="   47.318">  1  9  2 -1</clus>
<clus scale="   79.752">  5  6 -1 -1</clus>
<clus scale="   89.346">  7  8 -1 -1</clus>
<clus scale="  122.734">  2  5  1 -1</clus>
<clus scale="   47.318">  1  5  2 -1</clus>
</clustering>
</event>
<event>
 9    1  0.4067873E-005  0.1942873E+03  0.7546771E-02  0.1165399E+00
          3   -1    0    0  502    0 -0.00000000000E+00  0.00000000000E+00  0.32853932729E+03  0.32853932729E+03  0.00000000000E+00 0. -1.
         21   -1    0    0  501  502  0.00000000000E+00 -0.00000000000E+00 -0.33901518098E+03  0.33901518098E+03  0.00000000000E+00 0. -1.
        -24    2    1    2    0    0  0.63773582554E+02  0.10971276563E+03  0.57093603951E+02  0.16169542185E+03  0.82351497015E+02 0.  0.
         23    2    1    2    0    0  0.10675065417E+03 -0.11252445500E+03  0.14206162601E+03  0.23561547013E+03  0.10618704742E+03 0.  0.
         13    1    3    3    0    0  0.30384824046E+02  0.30255218002E+00 -0.61247315904E+01  0.30997441946E+02  0.00000000000E+00 0. -1.
        -14    1    3    3    0    0  0.33388758507E+02  0.10941021345E+03  0.63218335541E+02  0.13069797990E+03  0.00000000000E+00 0.  1.
        -11    1    4    4    0    0  0.11322369512E+03 -0.49292019192E+02  0.10459942573E+03  0.16183432317E+03  0.00000000000E+00 0. -1.
         11    1    4    4    0    0 -0.64730409474E+01 -0.63232435804E+02  0.37462200287E+02  0.73781146963E+02  0.00000000000E+00 0.  1.
          4    1    1    2  501    0 -0.17052423673E+03  0.28116893645E+01 -0.20963108366E+03  0.27024361629E+03  0.00000000000E+00 0. -1.
<scales pt_clust_5="13000.00000" pt_clust_6="13000.00000" pt_clust_7="13000.00000" pt_clust_8="13000.00000" pt_clust_9="162.70177"></scales>
<clustering>
<clus scale="   82.351">  5  6 -1 -1</clus>
<clus scale="  106.187">  7  8 -1 -1</clus>
<clus scale="  151.280">  1  5  2 -1</clus>
<clus scale="  162.702">  2  9  1 -1</clus>
<clus scale="  162.702">  2  5  1 -1</clus>
</clustering>
</event>
<event>
 9    1  0.4067873E-005  0.2431880E+03  0.7546771E-02  0.1117687E+00
         21   -1    0    0  501  502  0.00000000000E+00  0.00000000000E+00  0.21070679227E+02  0.21070679227E+02  0.00000000000E+00 0. -1.
          1   -1    0    0  502    0 -0.00000000000E+00 -0.00000000000E+00 -0.19171853895E+04  0.19171853895E+04  0.00000000000E+00 0. -1.
        -24    2    1    2    0    0 -0.67358326404E+02 -0.92074241605E+02 -0.59228884408E+03  0.60923621734E+03  0.85719796966E+02 0.  0.
         23    2    1    2    0    0 -0.37280400501E+02 -0.26351830838E+02 -0.49811250474E+03  0.50795467820E+03  0.88417421785E+02 0.  0.
         13    1    3    3    0    0 -0.57947527583E+02 -0.10158002550E+03 -0.57780335934E+03  0.58951941410E+03  0.00000000000E+00 0. -1.
        -14    1    3    3    0    0 -0.94107988208E+01  0.95057838942E+01 -0.14485484741E+02  0.19716803242E+02  0.00000000000E+00 0.  1.
        -13    1    4    4    0    0 -0.59915418914E+02  0.49151449674E+01 -0.33369353048E+03  0.33906546323E+03  0.00000000000E+00 0.  1.
         13    1    4    4    0    0  0.22635018414E+02 -0.31266975805E+02 -0.16441897426E+03  0.16888921497E+03  0.00000000000E+00 0. -1.
          2    1    1    2  501    0  0.10463872690E+03  0.11842607244E+03 -0.80571336145E+03  0.82106517319E+03  0.00000000000E+00 0. -1.
<scales pt_clust_5="13000.00000" pt_clust_6="13000.00000" pt_clust_7="13000.00000" pt_clust_8="13000.00000" pt_clust_9="158.03171"></scales>
<clustering>
<clus scale="   85.720">  5  6 -1 -1</clus>
<clus scale="   88.417">  7  8 -1 -1</clus>
<clus scale="   90.563">  5  7 -1 -1</clus>
<clus scale="  158.032">  1  9  2 -1</clus>
<clus scale="  158.032">  1  5  2 -1</clus>
</clustering>
</event>
<event>
 9    1  0.4067873E-005  0.9784775E+02  0.7546771E-02  0.1290660E+00
          1   -1    0    0  502    0 -0.00000000000E+00  0.00000000000E+00  0.29540254091E+03  0.29540254091E+03  0.00000000000E+00 0. -1.
         21   -1    0    0  501  502  0.00000000000E+00 -0.00000000000E+00 -0.10051571242E+03  0.10051571242E+03  0.00000000000E+00 0.  1.
        -24    2    1    2    0    0  0.30466128724E+02 -0.60743621976E+01  0.21762412848E+03  0.23409795770E+03  0.80476764514E+02 0.  0.
         23    2    1    2    0    0 -0.61100281586E+02 -0.11071395521E+02  0.13608705778E+02  0.11128851886E+03  0.91346140303E+02 0.  0.
         11    1    3    3    0    0  0.52139074897E+02 -0.22124600598E+02  0.17215050205E+03  0.18122851994E+03  0.00000000000E+00 0. -1.
        -12    1    3    3    0    0 -0.21672946173E+02  0.16050238401E+02  0.45473626430E+02  0.52869437761E+02  0.00000000000E+00 0.  1.
        -11    1    4    4    0    0  0.99756398908E+01  0.27373246100E+02  0.83655724237E+01  0.30311562072E+02  0.00000000000E+00 0.  1.
         11    1    4    4    0    0 -0.71075921477E+02 -0.38444641621E+02  0.52431333539E+01  0.80976956787E+02  0.00000000000E+00 0. -1.
          2    1    1    2  501    0  0.30634152862E+02  0.17145757719E+02 -0.36346005763E+02  0.50531776777E+02  0.00000000000E+00 0. -1.
<scales pt_clust_5="13000.00000" pt_clust_6="13000.00000" pt_clust_7="13000.00000" pt_clust_8="13000.00000" pt_clust_9="35.10596"></scales>
<clustering>
<clus scale="   35.106">  2  9  1 -1</clus>
<clus scale="   80.477">  5  6 -1 -1</clus>
<clus scale="   87.787">  1  5  2 -1</clus>
<clus scale="   91.346">  7  8 -1 -1</clus>
<clus scale="   35.106">  2  5  1 -1</clus>
</clustering>
</event>
<event>
 9    1  0.4067873E-005  0.1030742E+03  0.7546771E-02  0.1278021E+00
         21   -1    0    0  501  502  0.00000000000E+00  0.00000000000E+00  0.75844909131E+02  0.75844909131E+02  0.00000000000E+00 0.  1.
          1   -1    0    0  502    0 -0.00000000000E+00 -0.00000000000E+00 -0.17900617893E+03  0.17900617893E+03  0.00000000000E+00 0. -1.
         23    2    1    2    0    0 -0.55235089233E+02 -0.28510701150E+01 -0.49769825404E+02  0.11667070863E+03  0.89866428925E+02 0.  0.
        -24    2    1    2    0    0  0.42967518648E+02 -0.26335227864E+02 -0.34836022985E+02  0.10148382726E+03  0.80905295331E+02 0.  0.
         13    1    4    4    0    0  0.27177574182E+02 -0.12968771944E+02  0.24388145278E+02  0.38750370505E+02  0.00000000000E+00 0. -1.
        -14    1    4    4    0    0  0.15789944466E+02 -0.13366455920E+02 -0.59224168263E+02  0.62733456756E+02  0.00000000000E+00 0.  1.
        -11    1    3    3    0    0 -0.42262139305E+01  0.26542811900E+02 -0.51151175440E+02  0.57782562220E+02  0.00000000000E+00 0. -1.
         11    1    3    3    0    0 -0.51008875302E+02 -0.29393882015E+02  0.13813500360E+01  0.58888146409E+02  0.00000000000E+00 0.  1.
          2    1    1    2  501    0  0.12267570585E+02  0.29186297979E+02 -0.18555421413E+02  0.36696552176E+02  0.00000000000E+00 0. -1.
<scales pt_clust_5="13000.00000" pt_clust_6="13000.00000" pt_clust_7="13000.00000" pt_clust_8="13000.00000" pt_clust_9="31.65966"></scales>
<clustering>
<clus scale="   31.660">  1  9  2 -1</clus>
<clus scale="   80.905">  5  6 -1 -1</clus>
<clus scale="   89.866">  7  8 -1 -1</clus>
<clus scale="   95.362">  1  5  2 -1</clus>
<clus scale="   31.660">  1  5  2 -1</clus>
</clustering>
</event>
<event>
 9    1  0.4067873E-005  0.9785107E+02  0.7546771E-02  0.1290226E+00
         21   -1    0    0  501  502  0.00000000000E+00  0.00000000000E+00  0.27526720877E+03  0.27526720877E+03  0.00000000000E+00 0.  1.
          3   -1    0    0  502    0 -0.00000000000E+00 -0.00000000000E+00 -0.15736142860E+03  0.15736142860E+03  0.00000000000E+00 0. -1.
         23    2    1    2    0    0 -0.13935318476E+01 -0.39474414279E+02 -0.12478348152E+03  0.15934052321E+03  0.90875264847E+02 0.  0.
        -24    2    1    2    0    0  0.19523205255E+02  0.96010379022E+01  0.12388578719E+03  0.14945205630E+03  0.80714889521E+02 0.  0.
         11    1    4    4    0    0 -0.30131603691E+01  0.41841507394E+02  0.46390811105E+02  0.62545169529E+02  0.00000000000E+00 0. -1.
        -12    1    4    4    0    0  0.22536365624E+02 -0.32240469492E+02  0.77494976087E+02  0.86906886766E+02  0.00000000000E+00 0.  1.
        -13    1    3    3    0    0  0.29326596650E+02  0.17221378570E+02 -0.51616879952E+02  0.61813650975E+02  0.00000000000E+00 0.  1.
         13    1    3    3    0    0 -0.30720128498E+02 -0.56695792849E+02 -0.73166601572E+02  0.97526872232E+02  0.00000000000E+00 0. -1.
          4    1    1    2  501    0 -0.18129673407E+02  0.29873376377E+02  0.11880347450E+03  0.12383605786E+03  0.00000000000E+00 0. -1.
<scales pt_clust_5="13000.00000" pt_clust_6="13000.00000" pt_clust_7="13000.00000" pt_clust_8="13000.00000" pt_clust_9="34.94429"></scales>
<clustering>
<clus scale="   34.944">  1  9  2 -1</clus>
<clus scale="   80.715">  5  6 -1 -1</clus>
<clus scale="   88.495">  1  5  2 -1</clus>
<clus scale="   90.875">  7  8 -1 -1</clus>
<clus scale="   34.944">  1  5  2 -1</clus>
</clustering>
</event>
<event>
 9    1  0.4067873E-005  0.9834513E+02  0.7546771E-02  0.1287095E+00
         -2   -1    0    0    0  501 -0.00000000000E+00  0.00000000000E+00  0.78809832802E+02  0.78809832802E+02  0.00000000000E+00 0.  1.
         21   -1    0    0  501  502  0.00000000000E+00 -0.00000000000E+00 -0.16352263657E+03  0.16352263657E+03  0.00000000000E+00 0. -1.
        -24    2    1    2    0    0  0.10024983220E+02  0.53951049548E+02 -0.52343810136E+01  0.96255178817E+02  0.78907823875E+02 0.  0.
         23    2    1    2    0    0  0.52507937879E+01 -0.39437362284E+02 -0.42772427687E+02  0.10375322465E+03  0.85745989264E+02 0.  0.
         11    1    3    3    0    0 -0.27481573713E+02  0.50521757370E+02  0.34078857879E+01  0.57613353895E+02  0.00000000000E+00 0. -1.
        -12    1    3    3    0    0  0.37506556933E+02  0.34292921777E+01 -0.86422668015E+01  0.38641824922E+02  0.00000000000E+00 0.  1.
        -13    1    4    4    0    0 -0.31855332980E+02 -0.46704932187E+02 -0.22467646355E+02  0.60835089074E+02  0.00000000000E+00 0.  1.
         13    1    4    4    0    0  0.37106126768E+02  0.72675699029E+01 -0.20304781332E+02  0.42918135572E+02  0.00000000000E+00 0. -1.
         -1    1    1    2    0  502 -0.15275777008E+02 -0.14513687264E+02 -0.36705995063E+02  0.42324065905E+02  0.00000000000E+00 0.  1.
<scales pt_clust_5="13000.00000" pt_clust_6="13000.00000" pt_clust_7="13000.00000" pt_clust_8="13000.00000" pt_clust_9="21.07122"></scales>
<clustering>
<clus scale="   21.071">  2  9  1 -1</clus>
<clus scale="   78.908">  5  6 -1 -1</clus>
<clus scale="   85.746">  7  8 -1 -1</clus>
<clus scale="   92.444">  1  5  2 -1</clus>
<clus scale="   21.071">  2  5  1 -1</clus>
</clustering>
</event>
<event>
 9    1  0.4067873E-005  0.1508845E+03  0.7546771E-02  0.1201160E+00
          1   -1    0    0  502    0 -0.00000000000E+00  0.00000000000E+00  0.49977306290E+03  0.49977306290E+03  0.00000000000E+00 0. -1.
         21   -1    0    0  501  502  0.00000000000E+00 -0.00000000000E+00 -0.21316934367E+03  0.21316934367E+03  0.00000000000E+00 0. -1.
         23    2    1    2    0    0  0.13912736771E+02 -0.11902838393E+03  0.40428758818E+03  0.43145718659E+03  0.91353869510E+02 0.  0.
        -24    2    1    2    0    0 -0.59920915497E+02  0.11388698436E+03  0.27993306854E+01  0.15241396875E+03  0.81617524453E+02 0.  0.
         11    1    4    4    0    0 -0.73921893907E+02  0.84416943334E+02  0.22301425568E+02  0.11440288590E+03  0.00000000000E+00 0. -1.
        -12    1    4    4    0    0  0.14000978410E+02  0.29470041027E+02 -0.19502094882E+02  0.38011082849E+02  0.00000000000E+00 0.  1.
        -11    1    3    3    0    0  0.45851730985E+02 -0.42285005160E+02  0.11966737871E+03  0.13494696893E+03  0.00000000000E+00 0. -1.
         11    1    3    3    0    0 -0.31938994214E+02 -0.76743378771E+02  0.28462020947E+03  0.29651021765E+03  0.00000000000E+00 0.  1.
          2    1    1    2  501    0  0.46008178726E+02  0.51413995696E+01 -0.12048319964E+03  0.12907125123E+03  0.00000000000E+00 0. -1.
<scales pt_clust_5="13000.00000" pt_clust_6="13000.00000" pt_clust_7="13000.00000" pt_clust_8="13000.00000" pt_clust_9="46.29456"></scales>
<clustering>
<clus scale="   46.295">  2  9  1 -1</clus>
<clus scale="   81.618">  5  6 -1 -1</clus>
<clus scale="   91.354">  7  8 -1 -1</clus>
<clus scale="  145.196">  2  5  1 -1</clus>
<clus scale="   46.295">  2  5  1 -1</clus>
</clustering>
</event>
<event>
 9    1  0.4067873E-005  0.1177435E+03  0.7546771E-02  0.1255857E+00
         21   -1    0    0  501  502  0.00000000000E+00  0.00000000000E+00  0.11390434060E+03  0.11390434060E+03  0.00000000000E+00 0.  1.
         -2   -1    0    0    0  501 -0.00000000000E+00 -0.00000000000E+00 -0.67022891511E+03  0.67022891511E+03  0.00000000000E+00 0.  1.
        -24    2    1    2    0    0  0.71057739532E+01 -0.18097946130E+02 -0.39568783793E+03  0.40759432943E+03  0.95844898790E+02 0.  0.
         23    2    1    2    0    0 -0.39922875546E+02  0.68546656863E+01 -0.25124768804E+03  0.27951460954E+03  0.11559495562E+03 0.  0.
         13    1    3    3    0    0  0.55008125450E+01 -0.55977168651E+02 -0.17946776979E+03  0.18807547087E+03  0.00000000000E+00 0. -1.
        -14    1    3    3    0    0  0.16049614082E+01  0.37879222521E+02 -0.21622006814E+03  0.21951885857E+03  0.00000000000E+00 0.  1.
        -11    1    4    4    0    0  0.31068471168E+02 -0.20500611301E+02 -0.38404635518E+02  0.53483090727E+02  0.00000000000E+00 0. -1.
         11    1    4    4    0    0 -0.70991346714E+02  0.27355276988E+02 -0.21284305253E+03  0.22603151881E+03  0.00000000000E+00 0.  1.
         -1    1    1    2    0  502  0.32817101592E+02  0.11243280443E+02  0.90610951463E+02  0.97024316731E+02  0.00000000000E+00 0.  1.
<scales pt_clust_5="13000.00000" pt_clust_6="13000.00000" pt_clust_7="13000.00000" pt_clust_8="13000.00000" pt_clust_9="34.68967"></scales>
<clustering>
<clus scale="   34.690">  1  9  2 -1</clus>
<clus scale="   95.845">  5  6 -1 -1</clus>
<clus scale="   98.426">  2  5  1 -1</clus>
<clus scale="  115.595">  7  8 -1 -1</clus>
<clus scale="   34.690">  1  5  2 -1</clus>
</clustering>
</event>
<event>
 9    1  0.4067873E-005  0.8292522E+02  0.7546771E-02  0.1323160E+00
         21   -1    0    0  501  502  0.00000000000E+00  0.00000000000E+00  0.10308411920E+03  0.10308411920E+03  0.00000000000E+00 0.  1.
          3   -1    0    0  502    0 -0.00000000000E+00 -0.00000000000E+00 -0.19742794774E+03  0.19742794774E+03  0.00000000000E+00 0. -1.
         23    2    1    2    0    0  0.11188165570E+02 -0.11572373851E+02 -0.14914873038E+03  0.16924951455E+03  0.78364274488E+02 0.  0.
        -24    2    1    2    0    0  0.92431041339E+01  0.16812037934E+02  0.13554094696E+02  0.84932001437E+02  0.81618942602E+02 0.  0.
         11    1    4    4    0    0  0.25163533131E+01  0.43982870041E+02 -0.13425688222E+02  0.46055119099E+02  0.00000000000E+00 0. -1.
        -12    1    4    4    0    0  0.67267508207E+01 -0.27170832107E+02  0.26979782918E+02  0.38876882337E+02  0.00000000000E+00 0.  1.
        -13    1    3    3    0    0 -0.31767275697E+02  0.71875576250E+01 -0.71140592144E+02  0.78241962145E+02  0.00000000000E+00 0.  1.
         13    1    3    3    0    0  0.42955441268E+02 -0.18759931476E+02 -0.78008138233E+02  0.91007552402E+02  0.00000000000E+00 0. -1.
          4    1    1    2  501    0 -0.20431269704E+02 -0.52396640829E+01  0.41250807147E+02  0.46330550954E+02  0.00000000000E+00 0. -1.
<scales pt_clust_5="13000.00000" pt_clust_6="13000.00000" pt_clust_7="13000.00000" pt_clust_8="13000.00000" pt_clust_9="21.09244"></scales>
<clustering>
<clus scale="   21.092">  1  9  2 -1</clus>
<clus scale="   78.364">  7  8 -1 -1</clus>
<clus scale="   79.724">  2  7  1 -1</clus>
<clus scale="   81.619">  5  6 -1 -1</clus>
<clus scale="   21.092">  1  5  2 -1</clus>
</clustering>
</event>
<event>
 9    1  0.4067873E-005  0.1445166E+03  0.7546771E-02  0.1223499E+00
          1   -1    0    0  502    0 -0.00000000000E+00  0.00000000000E+00  0.38885884588E+03  0.38885884588E+03  0.00000000000E+00 0. -1.
         21   -1    0    0  501  502  0.00000000000E+00 -0.00000000000E+00 -0.18526707812E+03  0.18526707812E+03  0.00000000000E+00 0. -1.
        -24    2    1    2    0    0 -0.45440032395E+02 -0.38987069625E+02  0.26898664591E+03  0.28794281768E+03  0.83501272035E+02 0.  0.
         23    2    1    2    0    0 -0.29601934617E+02  0.11959330041E+03  0.68248614075E+01  0.15448514872E+03  0.92952947257E+02 0.  0.
         11    1    3    3    0    0 -0.20156966598E+02  0.25837523734E+02  0.74680823846E+02  0.81554315554E+02  0.00000000000E+00 0. -1.
        -12    1    3    3    0    0 -0.25283065797E+02 -0.64824593359E+02  0.19430582206E+03  0.20638850212E+03  0.00000000000E+00 0.  1.
        -11    1    4    4    0    0 -0.36894237251E+02  0.99357623323E+01  0.21123762770E+02  0.43659105225E+02  0.00000000000E+00 0.  1.
         11    1    4    4    0    0  0.72923026338E+01  0.10965753808E+03 -0.14298901362E+02  0.11082604349E+03  0.00000000000E+00 0. -1.
          2    1    1    2  501    0  0.75041967012E+02 -0.80606230790E+02 -0.72219739561E+02  0.13169795761E+03  0.00000000000E+00 0. -1.
<scales pt_clust_5="13000.00000" pt_clust_6="13000.00000" pt_clust_7="13000.00000" pt_clust_8="13000.00000" pt_clust_9="110.65619"></scales>
<clustering>
<clus scale="   83.501">  5  6 -1 -1</clus>
<clus scale="   92.953">  7  8 -1 -1</clus>
<clus scale="  102.748">  1  5  2 -1</clus>
<clus scale="  110.656">  2  9  1 -1</clus>
<clus scale="  110.656">  2  5  1 -1</clus>
</clustering>
</event>
<event>
 9    1  0.4067873E-005  0.1384606E+03  0.7546771E-02  0.1220272E+00
         21   -1    0    0  501  502  0.00000000000E+00  0.00000000000E+00  0.12222194914E+03  0.12222194914E+03  0.00000000000E+00 0. -1.
          1   -1    0    0  502    0 -0.00000000000E+00 -0.00000000000E+00 -0.45550743744E+03  0.45550743744E+03  0.00000000000E+00 0. -1.
         23    2    1    2    0    0 -0.73208040781E+02  0.62905359900E+02 -0.19636974630E+03  0.24004973269E+03  0.98723327361E+02 0.  0.
        -24    2    1    2    0    0  0.11735086565E+03  0.19400615527E+02 -0.18422078571E+03  0.23298662766E+03  0.78726496359E+02 0.  0.
         11    1    4    4    0    0  0.11673479272E+03  0.13325558638E+02 -0.19075976794E+03  0.22403988799E+03  0.00000000000E+00 0. -1.
        -12    1    4    4    0    0  0.61607293467E+00  0.60750568885E+01  0.65389822358E+01  0.89467396709E+01  0.00000000000E+00 0.  1.
        -11    1    3    3    0    0 -0.10664506551E+02  0.48245127490E+02 -0.21743021183E+02  0.53982247051E+02  0.00000000000E+00 0. -1.
         11    1    3    3    0    0 -0.62543534229E+02  0.14660232411E+02 -0.17462672512E+03  0.18606748564E+03  0.00000000000E+00 0.  1.
          2    1    1    2  501    0 -0.44142824870E+02 -0.82305975427E+02  0.47305043712E+02  0.10469302622E+03  0.00000000000E+00 0. -1.
<scales pt_clust_5="13000.00000" pt_clust_6="13000.00000" pt_clust_7="13000.00000" pt_clust_8="13000.00000" pt_clust_9="93.39627"></scales>
<clustering>
<clus scale="   78.726">  5  6 -1 -1</clus>
<clus scale="   93.396">  1  9  2 -1</clus>
<clus scale="   98.723">  7  8 -1 -1</clus>
<clus scale="  124.992">  1  5  2 -1</clus>
<clus scale="   93.396">  1  5  2 -1</clus>
</clustering>
</event>
<event>
 9    1  0.4067873E-005  0.1100745E+03  0.7546771E-02  0.1262783E+00
         -2   -1    0    0    0  501 -0.00000000000E+00  0.00000000000E+00  0.10675504872E+04  0.10675504872E+04  0.00000000000E+00 0.  1.
         21   -1    0    0  501  502  0.00000000000E+00 -0.00000000000E+00 -0.57020850361E+02  0.57020850361E+02  0.00000000000E+00 0. -1.
        -24    2    1    2    0    0 -0.61156458900E+02 -0.20958041792E+02  0.96207024223E+03  0.96771940702E+03  0.81989924782E+02 0.  0.
         23    2    1    2    0    0  0.71642314104E+02  0.42570794808E+02  0.52920721771E+02  0.13241900827E+03  0.88256995289E+02 0.  0.
         13    1    3    3    0    0 -0.19696584151E+02  0.12594413923E+02  0.65202612111E+02  0.69267274491E+02  0.00000000000E+00 0. -1.
        -14    1    3    3    0    0 -0.41459874749E+02 -0.33552455715E+02  0.89686763012E+03  0.89845213253E+03  0.00000000000E+00 0.  1.
        -11    1    4    4    0    0  0.54486709029E+02  0.65422875901E+02  0.58503791270E+02  0.10330366763E+03  0.00000000000E+00 0. -1.
         11    1    4    4    0    0  0.17155605074E+02 -0.22852081093E+02 -0.55830694990E+01  0.29115340643E+02  0.00000000000E+00 0.  1.
         -1    1    1    2    0  502 -0.10485855204E+02 -0.21612753016E+02 -0.44613271311E+01  0.24432922299E+02  0.00000000000E+00 0.  1.
<scales pt_clust_5="13000.00000" pt_clust_6="13000.00000" pt_clust_7="13000.00000" pt_clust_8="13000.00000" pt_clust_9="24.02216"></scales>
<clustering>
<clus scale="   24.022">  2  9  1 -1</clus>
<clus scale="   81.990">  5  6 -1 -1</clus>
<clus scale="   88.257">  7  8 -1 -1</clus>
<clus scale="  105.116">  1  5  2 -1</clus>
<clus scale="   24.022">  2  5  1 -1</clus>
</clustering>
</event>
<event>
 9    1  0.4067873E-005  0.1554773E+03  0.7546771E-02  0.1223964E+00
          3   -1    0    0  502    0 -0.00000000000E+00  0.00000000000E+00  0.54636991844E+02  0.54636991844E+02  0.00000000000E+00 0. -1.
         21   -1    0    0  501  502  0.00000000000E+00 -0.00000000000E+00 -0.66377292013E+03  0.66377292013E+03  0.00000000000E+00 0. -1.
        -24    2    1    2    0    0  0.43789989727E+01 -0.13097213207E+02 -0.24121173970E+03  0.25467741695E+03  0.80540491112E+02 0.  0.
         23    2    1    2    0    0  0.51838904475E+02  0.11910905070E+03 -0.24127117670E+03  0.28926201679E+03  0.92663345900E+02 0.  0.
         11    1    3    3    0    0 -0.28787584268E+02  0.34946908324E+01 -0.36419621868E+02  0.46554556480E+02  0.00000000000E+00 0. -1.
        -12    1    3    3    0    0  0.33166583241E+02 -0.16591904039E+02 -0.20479211783E+03  0.20812286047E+03  0.00000000000E+00 0.  1.
        -13    1    4    4    0    0 -0.15957765083E+02  0.41417640508E+02 -0.28294457251E+02  0.52636940667E+02  0.00000000000E+00 0.  1.
         13    1    4    4    0    0  0.67796669558E+02  0.77691410191E+02 -0.21297671945E+03  0.23662507612E+03  0.00000000000E+00 0. -1.
          4    1    1    2  501    0 -0.56217903448E+02 -0.10601183749E+03 -0.12665301188E+03  0.17447047823E+03  0.00000000000E+00 0. -1.
<scales pt_clust_5="13000.00000" pt_clust_6="13000.00000" pt_clust_7="13000.00000" pt_clust_8="13000.00000" pt_clust_9="124.84670"></scales>
<clustering>
<clus scale="   80.540">  5  6 -1 -1</clus>
<clus scale="   81.716">  1  5  2 -1</clus>
<clus scale="   92.663">  7  8 -1 -1</clus>
<clus scale="  124.847">  2  9  1 -1</clus>
<clus scale="  124.847">  2  5  1 -1</clus>
</clustering>
</event>
<event>
 9    1  0.4067873E-005  0.1521031E+03  0.7546771E-02  0.1200464E+00
          1   -1    0    0  502    0 -0.00000000000E+00  0.00000000000E+00  0.62826583417E+03  0.62826583417E+03  0.00000000000E+00 0. -1.
         21   -1    0    0  501  502  0.00000000000E+00 -0.00000000000E+00 -0.15333137590E+03  0.15333137590E+03  0.00000000000E+00 0. -1.
        -24    2    1    2    0    0  0.30577070978E+02 -0.11977710341E+03  0.51922977493E+03  0.53924757880E+03  0.76856231337E+02 0.  0.
         23    2    1    2    0    0  0.25423958413E+02  0.10493941089E+03 -0.90808545031E+02  0.16805459223E+03  0.91309892662E+02 0.  0.
         13    1    3    3    0    0  0.56229050217E+02 -0.72742940081E+02  0.32146715722E+03  0.33435665776E+03  0.00000000000E+00 0. -1.
        -14    1    3    3    0    0 -0.25651979239E+02 -0.47034163325E+02  0.19776261771E+03  0.20489092104E+03  0.00000000000E+00 0.  1.
        -11    1    4    4    0    0  0.35445887227E+02  0.30801508292E+01 -0.81671580428E+01  0.36504804081E+02  0.00000000000E+00 0.  1.
         11    1    4    4    0    0 -0.10021928815E+02  0.10185926006E+03 -0.82641386988E+02  0.13154978815E+03  0.00000000000E+00 0. -1.
          2    1    1    2  501    0 -0.56001029391E+02  0.14837692512E+02  0.46513228369E+02  0.74295039035E+02  0.00000000000E+00 0. -1.
<scales pt_clust_5="13000.00000" pt_clust_6="13000.00000" pt_clust_7="13000.00000" pt_clust_8="13000.00000" pt_clust_9="57.93337"></scales>
<clustering>
<clus scale="   57.933">  2  9  1 -1</clus>
<clus scale="   76.856">  5  6 -1 -1</clus>
<clus scale="   91.310">  7  8 -1 -1</clus>
<clus scale="  143.891">  1  5  2 -1</clus>
<clus scale="   57.933">  2  5  1 -1</clus>
</clustering>
</event>
<event>
 9    1  0.4067873E-005  0.1325736E+03  0.7546771E-02  0.1226355E+00
          1   -1    0    0  502    0 -0.00000000000E+00  0.00000000000E+00  0.45963240466E+02  0.45963240466E+02  0.00000000000E+00 0. -1.
         21   -1    0    0  501  502  0.00000000000E+00 -0.00000000000E+00 -0.60765665890E+03  0.60765665890E+03  0.00000000000E+00 0. -1.
        -24    2    1    2    0    0 -0.95416334846E+02 -0.33876897640E+02 -0.20232692164E+03  0.24030923198E+03  0.80996435760E+02 0.  0.
         23    2    1    2    0    0  0.55726429057E+02  0.82950012730E+02 -0.28601575819E+03  0.31654398872E+03  0.91700290921E+02 0.  0.
         13    1    3    3    0    0 -0.76567063239E+02  0.12521874073E+02 -0.14281890718E+03  0.16253169768E+03  0.00000000000E+00 0. -1.
        -14    1    3    3    0    0 -0.18849271606E+02 -0.46398771714E+02 -0.59508014461E+02  0.77777534300E+02  0.00000000000E+00 0.  1.
        -11    1    4    4    0    0  0.76039909190E+02  0.76891507592E+02 -0.19386437988E+03  0.22198596693E+03  0.00000000000E+00 0. -1.
         11    1    4    4    0    0 -0.20313480134E+02  0.60585051376E+01 -0.92151378315E+02  0.94558021791E+02  0.00000000000E+00 0.  1.
          2    1    1    2  501    0  0.39689905789E+02 -0.49073115089E+02 -0.73350738600E+02  0.96766678662E+02  0.00000000000E+00 0. -1.
<scales pt_clust_5="13000.00000" pt_clust_6="13000.00000" pt_clust_7="13000.00000" pt_clust_8="13000.00000" pt_clust_9="63.11468"></scales>
<clustering>
<clus scale="   63.115">  2  9  1 -1</clus>
<clus scale="   80.996">  5  6 -1 -1</clus>
<clus scale="   91.700">  7  8 -1 -1</clus>
<clus scale="  125.408">  1  5  2 -1</clus>
<clus scale="   63.115">  2  5  1 -1</clus>
</clustering>
</event>
<event>
 9    1  0.4067873E-005  0.1068169E+03  0.7546771E-02  0.1270802E+00
         21   -1    0    0  501  502  0.00000000000E+00  0.00000000000E+00  0.39019817207E+03  0.39019817207E+03  0.00000000000E+00 0. -1.
          1   -1    0    0  502    0 -0.00000000000E+00 -0.00000000000E+00 -0.11160602625E+03  0.11160602625E+03  0.00000000000E+00 0. -1.
         23    2    1    2    0    0 -0.22740386015E+02  0.49603480509E+02 -0.65912802330E+02  0.12589454614E+03  0.92343428580E+02 0.  0.
        -24    2    1    2    0    0  0.48003935122E+02 -0.29968846029E+02  0.16035379018E+03  0.18899947385E+03  0.82492142475E+02 0.  0.
         11    1    4    4    0    0  0.47517474927E+02  0.14438582937E+02  0.52037471711E+02  0.71932479193E+02  0.00000000000E+00 0. -1.
        -12    1    4    4    0    0  0.48646019495E+00 -0.44407428967E+02  0.10831631847E+03  0.11706699465E+03  0.00000000000E+00 0.  1.
        -13    1    3    3    0    0 -0.52171851995E+02  0.36801475504E+02 -0.68567587903E+02  0.93689726495E+02  0.00000000000E+00 0. -1.
         13    1    3    3    0    0  0.29431465980E+02  0.12802005006E+02  0.26547855732E+01  0.32204819645E+02  0.00000000000E+00 0.  1.
          2    1    1    2  501    0 -0.25263549107E+02 -0.19634634480E+02  0.18415115796E+03  0.18691017833E+03  0.00000000000E+00 0. -1.
<scales pt_clust_5="13000.00000" pt_clust_6="13000.00000" pt_clust_7="13000.00000" pt_clust_8="13000.00000" pt_clust_9="31.99634"></scales>
<clustering>
<clus scale="   31.996">  1  9  2 -1</clus>
<clus scale="   82.492">  5  6 -1 -1</clus>
<clus scale="   92.343">  7  8 -1 -1</clus>
<clus scale="   98.425">  1  5  2 -1</clus>
<clus scale="   31.996">  1  5  2 -1</clus>
</clustering>
</event>
<event>
 9    1  0.4067873E-005  0.1048199E+03  0.7546771E-02  0.1278378E+00
          1   -1    0    0  502    0 -0.00000000000E+00  0.00000000000E+00  0.26023071848E+03  0.26023071848E+03  0.00000000000E+00 0. -1.
         21   -1    0    0  501  502  0.00000000000E+00 -0.00000000000E+00 -0.60191760753E+02  0.60191760753E+02  0.00000000000E+00 0.  1.
        -24    2    1    2    0    0  0.33525762201E+01  0.35040746729E+02  0.97511324535E+02  0.13198019142E+03  0.81677529451E+02 0.  0.
         23    2    1    2    0    0  0.41184282525E+02 -0.35944550620E+02  0.84999123730E+02  0.14057165702E+03  0.97710715257E+02 0.  0.
         13    1    3    3    0    0 -0.17753065914E+01  0.59656759757E+02  0.85091230078E+02  0.10393554798E+03  0.00000000000E+00 0. -1.
        -14    1    3    3    0    0  0.51278828115E+01 -0.24616013027E+02  0.12420094457E+02  0.28044643442E+02  0.00000000000E+00 0.  1.
        -13    1    4    4    0    0 -0.12786326808E+02 -0.34611615219E+02  0.77800534064E+02  0.86106777677E+02  0.00000000000E+00 0. -1.
         13    1    4    4    0    0  0.53970609333E+02 -0.13329354014E+01  0.71985896656E+01  0.54464879342E+02  0.00000000000E+00 0.  1.
          2    1    1    2  501    0 -0.44536858745E+02  0.90380389065E+00  0.17528509463E+02  0.47870630791E+02  0.00000000000E+00 0. -1.
<scales pt_clust_5="13000.00000" pt_clust_6="13000.00000" pt_clust_7="13000.00000" pt_clust_8="13000.00000" pt_clust_9="44.54603"></scales>
<clustering>
<clus scale="   44.546">  2  9  1 -1</clus>
<clus scale="   81.678">  5  6 -1 -1</clus>
<clus scale="   90.061">  1  5  2 -1</clus>
<clus scale="   97.711">  7  8 -1 -1</clus>
<clus scale="   44.546">  2  5  1 -1</clus>
</clustering>
</event>
<event>
 9    1  0.4067873E-005  0.1436438E+03  0.7546771E-02  0.1211458E+00
          1   -1    0    0  502    0 -0.00000000000E+00  0.00000000000E+00  0.11071349939E+04  0.11071349939E+04  0.00000000000E+00 0. -1.
         21   -1    0    0  501  502  0.00000000000E+00 -0.00000000000E+00 -0.44040110191E+02  0.44040110191E+02  0.00000000000E+00 0. -1.
        -24    2    1    2    0    0  0.80103011013E+02 -0.61962349014E+02  0.51146594521E+03  0.52766187451E+03  0.81079070243E+02 0.  0.
         23    2    1    2    0    0 -0.81646444802E+02  0.82463257233E+02  0.57392319483E+03  0.59318661923E+03  0.94953677785E+02 0.  0.
         11    1    3    3    0    0  0.59702944915E+02 -0.75779098923E+02  0.46666807394E+03  0.47653541810E+03  0.00000000000E+00 0. -1.
        -12    1    3    3    0    0  0.20400066099E+02  0.13816749910E+02  0.44797871263E+02  0.51126456406E+02  0.00000000000E+00 0.  1.
        -11    1    4    4    0    0 -0.55263328737E+02 -0.41055029504E+01  0.15524432360E+03  0.16483837741E+03  0.00000000000E+00 0.  1.
         11    1    4    4    0    0 -0.26383116065E+02  0.86568760183E+02  0.41867887123E+03  0.42834824182E+03  0.00000000000E+00 0. -1.
          2    1    1    2  501    0  0.15434337885E+01 -0.20500908219E+02 -0.22294256374E+02  0.30326610311E+02  0.00000000000E+00 0. -1.
<scales pt_clust_5="13000.00000" pt_clust_6="13000.00000" pt_clust_7="13000.00000" pt_clust_8="13000.00000" pt_clust_9="20.55893"></scales>
<clustering>
<clus scale="   20.559">  2  9  1 -1</clus>
<clus scale="   81.079">  5  6 -1 -1</clus>
<clus scale="   94.954">  7  8 -1 -1</clus>
<clus scale="  134.875">  1  5  2 -1</clus>
<clus scale="   20.559">  2  5  1 -1</clus>
</clustering>
</event>
<event>
 9    1  0.4067873E-005  0.9875075E+02  0.7546771E-02  0.1289042E+00
          1   -1    0    0  502    0 -0.00000000000E+00  0.00000000000E+00  0.62392538162E+03  0.62392538162E+03  0.00000000000E+00 0. -1.
         21   -1    0    0  501  502  0.00000000000E+00 -0.00000000000E+00 -0.22801440190E+02  0.22801440190E+02  0.00000000000E+00 0. -1.
        -24    2    1    2    0    0 -0.23036580269E+02 -0.26515754853E+02  0.22700894736E+03  0.24287596615E+03  0.78879043269E+02 0.  0.
         23    2    1    2    0    0  0.54461446019E+02 -0.59326709393E+01  0.28225585842E+03  0.30148619708E+03  0.90687991095E+02 0.  0.
         13    1    3    3    0    0  0.80399697057E+01 -0.47123407558E+02  0.10666406113E+03  0.11688660569E+03  0.00000000000E+00 0. -1.
        -14    1    3    3    0    0 -0.31076549974E+02  0.20607652705E+02  0.12034488623E+03  0.12598936046E+03  0.00000000000E+00 0.  1.
        -13    1    4    4    0    0 -0.19198259221E+02 -0.22859518773E+02  0.67069052562E+02  0.73412455123E+02  0.00000000000E+00 0.  1.
         13    1    4    4    0    0  0.73659705240E+02  0.16926847833E+02  0.21518680586E+03  0.22807374196E+03  0.00000000000E+00 0. -1.
          2    1    1    2  501    0 -0.31424865751E+02  0.32448425792E+02  0.91859135646E+02  0.10236465858E+03  0.00000000000E+00 0. -1.
<scales pt_clust_5="13000.00000" pt_clust_6="13000.00000" pt_clust_7="13000.00000" pt_clust_8="13000.00000" pt_clust_9="45.17104"></scales>
<clustering>
<clus scale="   45.171">  2  9  1 -1</clus>
<clus scale="   78.879">  5  6 -1 -1</clus>
<clus scale="   88.030">  1  5  2 -1</clus>
<clus scale="   90.688">  7  8 -1 -1</clus>
<clus scale="   45.171">  2  5  1 -1</clus>
</clustering>
</event>
<event>
 9    1  0.4067873E-005  0.1131052E+03  0.7546771E-02  0.1259630E+00
         21   -1    0    0  501  502  0.00000000000E+00  0.00000000000E+00  0.43254100186E+03  0.43254100186E+03  0.00000000000E+00 0.  1.
         -4   -1    0    0    0  501 -0.00000000000E+00 -0.00000000000E+00 -0.26346088521E+03  0.26346088521E+03  0.00000000000E+00 0.  1.
         23    2    1    2    0    0 -0.63731793098E+02  0.18746929276E+02 -0.21912325732E+03  0.24720593140E+03  0.93180372463E+02 0.  0.
        -24    2    1    2    0    0 -0.40015804022E+01 -0.21441113009E+02  0.36898460831E+03  0.37833724814E+03  0.80707485340E+02 0.  0.
         11    1    4    4    0    0  0.28689731459E+02  0.16810124415E+02  0.15206978837E+03  0.15566278139E+03  0.00000000000E+00 0. -1.
        -12    1    4    4    0    0 -0.32691311861E+02 -0.38251237424E+02  0.21691481994E+03  0.22267446675E+03  0.00000000000E+00 0.  1.
        -13    1    3    3    0    0 -0.62515662182E+02 -0.27378342137E+02 -0.12722347419E+03  0.14437310698E+03  0.00000000000E+00 0. -1.
         13    1    3    3    0    0 -0.12161309153E+01  0.46125271413E+02 -0.91899783140E+02  0.10283282442E+03  0.00000000000E+00 0.  1.
         -3    1    1    2    0  502  0.67733373500E+02  0.26941837325E+01  0.19218765668E+02  0.70458707521E+02  0.00000000000E+00 0.  1.
<scales pt_clust_5="13000.00000" pt_clust_6="13000.00000" pt_clust_7="13000.00000" pt_clust_8="13000.00000" pt_clust_9="67.78693"></scales>
<clustering>
<clus scale="   67.787">  1  9  2 -1</clus>
<clus scale="   80.707">  5  6 -1 -1</clus>
<clus scale="   93.180">  7  8 -1 -1</clus>
<clus scale="  103.072">  1  5  2 -1</clus>
<clus scale="   67.787">  1  5  2 -1</clus>
</clustering>
</event>
<event>
 9    1  0.4067873E-005  0.2636860E+03  0.7546771E-02  0.1105545E+00
          1   -1    0    0  502    0 -0.00000000000E+00  0.00000000000E+00  0.37954524105E+03  0.37954524105E+03  0.00000000000E+00 0. -1.
         21   -1    0    0  501  502  0.00000000000E+00 -0.00000000000E+00 -0.49531208518E+03  0.49531208518E+03  0.00000000000E+00 0. -1.
        -24    2    1    2    0    0  0.12272211344E+03 -0.23170420338E+03  0.26903866348E+03  0.38398212371E+03  0.79453847535E+02 0.  0.
         23    2    1    2    0    0 -0.35660451296E+02  0.17026699196E+03 -0.27263682010E+03  0.33616231225E+03  0.91715582979E+02 0.  0.
         13    1    3    3    0    0  0.26856579819E+02 -0.10043880232E+03  0.15000803545E+03  0.18251476541E+03  0.00000000000E+00 0. -1.
        -14    1    3    3    0    0  0.95865533622E+02 -0.13126540106E+03  0.11903062803E+03  0.20146735830E+03  0.00000000000E+00 0.  1.
        -13    1    4    4    0    0  0.17369916450E+02  0.10034140264E+03 -0.10119338037E+03  0.14356256932E+03  0.00000000000E+00 0.  1.
         13    1    4    4    0    0 -0.53030367746E+02  0.69925589323E+02 -0.17144343974E+03  0.19259974292E+03  0.00000000000E+00 0. -1.
          2    1    1    2  501    0 -0.87061662145E+02  0.61437211420E+02 -0.11216868750E+03  0.15471289028E+03  0.00000000000E+00 0. -1.
<scales pt_clust_5="13000.00000" pt_clust_6="13000.00000" pt_clust_7="13000.00000" pt_clust_8="13000.00000" pt_clust_9="106.55639"></scales>
<clustering>
<clus scale="   79.454">  5  6 -1 -1</clus>
<clus scale="   91.716">  7  8 -1 -1</clus>
<clus scale="  106.556">  2  9  1 -1</clus>
<clus scale="  259.676">  1  5  2 -1</clus>
<clus scale="  106.556">  2  5  1 -1</clus>
</clustering>
</event>
<event>
 9    1  0.4067873E-005  0.1156138E+03  0.7546771E-02  0.1253972E+00
         -4   -1    0    0    0  501 -0.00000000000E+00  0.00000000000E+00  0.38887771366E+03  0.38887771366E+03  0.00000000000E+00 0.  1.
         21   -1    0    0  501  502  0.00000000000E+00 -0.00000000000E+00 -0.70169901847E+02  0.70169901847E+02  0.00000000000E+00 0. -1.
         23    2    1    2    0    0  0.63725711547E+01  0.90124188254E+02  0.25083602687E+03  0.28209463366E+03  0.92172072724E+02 0.  0.
        -24    2    1    2    0    0  0.18395621811E+02 -0.22867101851E+02  0.16922326450E+02  0.89016491272E+02  0.82318086330E+02 0.  0.
         13    1    4    4    0    0  0.29611862083E+02  0.86057681469E+01 -0.21880419880E+02  0.37811035367E+02  0.00000000000E+00 0. -1.
        -14    1    4    4    0    0 -0.11216240272E+02 -0.31472869998E+02  0.38802746329E+02  0.51205455905E+02  0.00000000000E+00 0.  1.
        -13    1    3    3    0    0 -0.83490127807E+01  0.10564391817E+03  0.18926855842E+03  0.21691687501E+03  0.00000000000E+00 0.  1.
         13    1    3    3    0    0  0.14721583935E+02 -0.15519729912E+02  0.61567468458E+02  0.65177758648E+02  0.00000000000E+00 0. -1.
         -3    1    1    2    0  502 -0.24768192966E+02 -0.67257086403E+02  0.50949458491E+02  0.87936490576E+02  0.00000000000E+00 0.  1.
<scales pt_clust_5="13000.00000" pt_clust_6="13000.00000" pt_clust_7="13000.00000" pt_clust_8="13000.00000" pt_clust_9="71.67272"></scales>
<clustering>
<clus scale="   71.673">  2  9  1 -1</clus>
<clus scale="   82.318">  5  6 -1 -1</clus>
<clus scale="   92.172">  7  8 -1 -1</clus>
<clus scale="  107.922">  2  5  1 -1</clus>
<clus scale="   71.673">  2  5  1 -1</clus>
</clustering>
</event>
<event>
 9    1  0.4067873E-005  0.1016441E+03  0.7546771E-02  0.1280761E+00
         21   -1    0    0  501  502  0.00000000000E+00  0.00000000000E+00  0.96143383853E+03  0.96143383853E+03  0.00000000000E+00 0.  1.
         -2   -1    0    0    0  501 -0.00000000000E+00 -0.00000000000E+00 -0.12324090137E+03  0.12324090137E+03  0.00000000000E+00 0.  1.
        -24    2    1    2    0    0  0.47844074402E+02 -0.15636707379E+02 -0.91649420207E+02  0.13292113379E+03  0.82066128895E+02 0.  0.
         23    2    1    2    0    0 -0.37392543202E+01 -0.50474935171E+02  0.30987774578E+03  0.32671592400E+03  0.90318196167E+02 0.  0.
         11    1    3    3    0    0  0.22470036395E+02  0.30790369431E+02 -0.17784720495E+02  0.42062402076E+02  0.00000000000E+00 0. -1.
        -12    1    3    3    0    0  0.25374038007E+02 -0.46427076810E+02 -0.73864699713E+02  0.90858731719E+02  0.00000000000E+00 0.  1.
        -11    1    4    4    0    0 -0.32271871882E+02 -0.58371754117E+02  0.15058506582E+03  0.16469546879E+03  0.00000000000E+00 0.  1.
         11    1    4    4    0    0  0.28532617562E+02  0.78968189466E+01  0.15929267996E+03  0.16202045520E+03  0.00000000000E+00 0. -1.
         -1    1    1    2    0  502 -0.44104820082E+02  0.66111642549E+02  0.61996461158E+03  0.62503768210E+03  0.00000000000E+00 0.  1.
<scales pt_clust_5="13000.00000" pt_clust_6="13000.00000" pt_clust_7="13000.00000" pt_clust_8="13000.00000" pt_clust_9="79.47317"></scales>
<clustering>
<clus scale="   79.473">  1  9  2 -1</clus>
<clus scale="   82.066">  5  6 -1 -1</clus>
<clus scale="   90.318">  7  8 -1 -1</clus>
<clus scale="   94.387">  2  5  1 -1</clus>
<clus scale="   79.473">  1  5  2 -1</clus>
</clustering>
</event>
<event>
 9    1  0.4067873E-005  0.9712386E+02  0.7546771E-02  0.1290036E+00
          1   -1    0    0  502    0 -0.00000000000E+00  0.00000000000E+00  0.53836677847E+03  0.53836677847E+03  0.00000000000E+00 0. -1.
         21   -1    0    0  501  502  0.00000000000E+00 -0.00000000000E+00 -0.43534971250E+02  0.43534971250E+02  0.00000000000E+00 0.  1.
        -24    2    1    2    0    0 -0.21873790702E+02  0.38530936763E+02  0.30284547956E+03  0.31643803927E+03  0.80340229009E+02 0.  0.
         23    2    1    2    0    0 -0.42096712571E+02 -0.52706319839E+02  0.82331828115E+02  0.13772461681E+03  0.87403951823E+02 0.  0.
         13    1    3    3    0    0  0.11365402083E+02  0.52773623051E+02  0.15144477603E+03  0.16077856773E+03  0.00000000000E+00 0. -1.
        -14    1    3    3    0    0 -0.33239192785E+02 -0.14242686288E+02  0.15140070353E+03  0.15565947154E+03  0.00000000000E+00 0.  1.
        -13    1    4    4    0    0  0.27041845241E+02 -0.85155483185E+01  0.20933391880E+02  0.35241777095E+02  0.00000000000E+00 0. -1.
         13    1    4    4    0    0 -0.69138557812E+02 -0.44190771521E+02  0.61398436235E+02  0.10248283971E+03  0.00000000000E+00 0.  1.
          2    1    1    2  501    0  0.63970503273E+02  0.14175383076E+02  0.10965449954E+03  0.12773909364E+03  0.00000000000E+00 0. -1.
<scales pt_clust_5="13000.00000" pt_clust_6="13000.00000" pt_clust_7="13000.00000" pt_clust_8="13000.00000" pt_clust_9="65.52229"></scales>
<clustering>
<clus scale="   65.522">  2  9  1 -1</clus>
<clus scale="   80.340">  5  6 -1 -1</clus>
<clus scale="   87.404">  7  8 -1 -1</clus>
<clus scale="   90.819">  1  5  2 -1</clus>
<clus scale="   65.522">  2  5  1 -1</clus>
</clustering>
</event>
<event>
 9    1  0.4067873E-005  0.1067916E+03  0.7546771E-02  0.1271320E+00
         21   -1    0    0  501  502  0.00000000000E+00  0.00000000000E+00  0.52709720059E+03  0.52709720059E+03  0.00000000000E+00 0.  1.
         -2   -1    0    0    0  501 -0.00000000000E+00 -0.00000000000E+00 -0.32545874648E+02  0.32545874648E+02  0.00000000000E+00 0.  1.
        -24    2    1    2    0    0  0.51398780145E+02 -0.51001816386E+02  0.17859539670E+03  0.20940495565E+03  0.81921302803E+02 0.  0.
         23    2    1    2    0    0 -0.25151862802E+02  0.11376016823E+02  0.25627281345E+03  0.27394146847E+03  0.92769301354E+02 0.  0.
         11    1    3    3    0    0  0.20608568502E+02 -0.52365248286E+02  0.16741393937E+03  0.17661896676E+03  0.00000000000E+00 0. -1.
        -12    1    3    3    0    0  0.30790211643E+02  0.13634318993E+01  0.11181457332E+02  0.32785988892E+02  0.00000000000E+00 0.  1.
        -13    1    4    4    0    0  0.19335372561E+01 -0.27762363290E+02  0.23716669184E+02  0.36564569996E+02  0.00000000000E+00 0. -1.
         13    1    4    4    0    0 -0.27085400058E+02  0.39138380113E+02  0.23255614426E+03  0.23737689847E+03  0.00000000000E+00 0.  1.
         -1    1    1    2    0  502 -0.26246917343E+02  0.39625799564E+02  0.59683115799E+02  0.76296651123E+02  0.00000000000E+00 0.  1.
<scales pt_clust_5="13000.00000" pt_clust_6="13000.00000" pt_clust_7="13000.00000" pt_clust_8="13000.00000" pt_clust_9="47.53006"></scales>
<clustering>
<clus scale="   47.530">  1  9  2 -1</clus>
<clus scale="   81.921">  5  6 -1 -1</clus>
<clus scale="   92.769">  7  8 -1 -1</clus>
<clus scale="   97.516">  2  5  1 -1</clus>
<clus scale="   47.530">  1  5  2 -1</clus>
</clustering>
</event>
<event>
 9    1  0.4067873E-005  0.9246785E+02  0.7546771E-02  0.1300739E+00
         21   -1    0    0  501  502  0.00000000000E+00  0.00000000000E+00  0.32014904966E+02  0.32014904966E+02  0.00000000000E+00 0.  1.
          1   -1    0    0  502    0 -0.00000000000E+00 -0.00000000000E+00 -0.36373144467E+03  0.36373144467E+03  0.00000000000E+00 0. -1.
         23    2    1    2    0    0  0.29940201423E+02 -0.35210759721E+01 -0.17685983727E+03  0.20088865147E+03  0.90377179713E+02 0.  0.
        -24    2    1    2    0    0 -0.56069932083E+01 -0.17033151504E+02 -0.12065774888E+03  0.14812281063E+03  0.84026829290E+02 0.  0.
         11    1    4    4    0    0 -0.29417534258E+02  0.77382180950E+01 -0.10684565712E+03  0.11109124982E+03  0.00000000000E+00 0. -1.
        -12    1    4    4    0    0  0.23810541050E+02 -0.24771369599E+02 -0.13812091756E+02  0.37031560804E+02  0.00000000000E+00 0.  1.
        -11    1    3    3    0    0  0.88502774880E+01  0.42756373807E+02 -0.94375002629E+02  0.10398594152E+03  0.00000000000E+00 0. -1.
         11    1    3    3    0    0  0.21089923935E+02 -0.46277449779E+02 -0.82484834639E+02  0.96902709947E+02  0.00000000000E+00 0.  1.
          2    1    1    2  501    0 -0.24333208215E+02  0.20554227476E+02 -0.34198953561E+02  0.46734887545E+02  0.00000000000E+00 0. -1.
<scales pt_clust_5="13000.00000" pt_clust_6="13000.00000" pt_clust_7="13000.00000" pt_clust_8="13000.00000" pt_clust_9="31.85249"></scales>
<clustering>
<clus scale="   31.852">  1  9  2 -1</clus>
<clus scale="   84.027">  5  6 -1 -1</clus>
<clus scale="   86.272">  1  5  2 -1</clus>
<clus scale="   90.377">  7  8 -1 -1</clus>
<clus scale="   31.852">  1  5  2 -1</clus>
</clustering>
</event>
<event>
 9    1  0.4067873E-005  0.1533268E+03  0.7546771E-02  0.1198200E+00
         -2   -1    0    0    0  501 -0.00000000000E+00  0.00000000000E+00  0.37328910668E+03  0.37328910668E+03  0.00000000000E+00 0.  1.
         21   -1    0    0  501  502  0.00000000000E+00 -0.00000000000E+00 -0.29130685668E+03  0.29130685668E+03  0.00000000000E+00 0. -1.
        -24    2    1    2    0    0  0.10630178140E+03 -0.72528246732E+02  0.25821581317E+03  0.29959799953E+03  0.80765957230E+02 0.  0.
         23    2    1    2    0    0 -0.76378726538E+01  0.99468860164E+02 -0.21647425478E+03  0.25509038083E+03  0.90871382573E+02 0.  0.
         13    1    3    3    0    0  0.76087571685E+02 -0.30295290554E+01  0.13027519592E+03  0.15089772458E+03  0.00000000000E+00 0. -1.
        -14    1    3    3    0    0  0.30214209712E+02 -0.69498717677E+02  0.12794061725E+03  0.14870027495E+03  0.00000000000E+00 0.  1.
        -13    1    4    4    0    0  0.20025308242E+02  0.19440348534E+02 -0.64579983012E+01  0.28646917170E+02  0.00000000000E+00 0.  1.
         13    1    4    4    0    0 -0.27663180896E+02  0.80028511630E+02 -0.21001625648E+03  0.22644346366E+03  0.00000000000E+00 0. -1.
         -1    1    1    2    0  502 -0.98663908743E+02 -0.26940613432E+02  0.40240691605E+02  0.10990758300E+03  0.00000000000E+00 0.  1.
<scales pt_clust_5="13000.00000" pt_clust_6="13000.00000" pt_clust_7="13000.00000" pt_clust_8="13000.00000" pt_clust_9="102.27597"></scales>
<clustering>
<clus scale="   80.766">  5  6 -1 -1</clus>
<clus scale="   90.871">  7  8 -1 -1</clus>
<clus scale="  102.276">  2  9  1 -1</clus>
<clus scale="  147.562">  1  5  2 -1</clus>
<clus scale="  102.276">  2  5  1 -1</clus>
</clustering>
</event>
<event>
 9    1  0.4067873E-005  0.1817242E+03  0.7546771E-02  0.1167323E+00
         21   -1    0    0  501  502  0.00000000000E+00  0.00000000000E+00  0.28123846639E+03  0.28123846639E+03  0.00000000000E+00 0.  1.
          3   -1    0    0  502    0 -0.00000000000E+00 -0.00000000000E+00 -0.78165710875E+03  0.78165710875E+03  0.00000000000E+00 0. -1.
        -24    2    1    2    0    0  0.14374610757E+03 -0.61614117598E+02 -0.71729755974E+03  0.73872703342E+03  0.82113322741E+02 0.  0.
         23    2    1    2    0    0 -0.13003906600E+03  0.10493046239E+03  0.14719872351E+03  0.24098490071E+03  0.92117845963E+02 0.  0.
         13    1    3    3    0    0  0.13337365888E+03 -0.67141974219E+02 -0.70845130164E+03  0.72401645312E+03  0.00000000000E+00 0. -1.
        -14    1    3    3    0    0  0.10372448687E+02  0.55278566218E+01 -0.88462580979E+01  0.14710580305E+02  0.00000000000E+00 0.  1.
        -13    1    4    4    0    0 -0.34205484747E+02  0.64719623898E+02  0.18389657003E+02  0.75477310425E+02  0.00000000000E+00 0. -1.
         13    1    4    4    0    0 -0.95833581255E+02  0.40210838488E+02  0.12880906651E+03  0.16550759029E+03  0.00000000000E+00 0.  1.
          4    1    1    2  501    0 -0.13707041566E+02 -0.43316344789E+02  0.69680193859E+02  0.83183641003E+02  0.00000000000E+00 0. -1.
<scales pt_clust_5="13000.00000" pt_clust_6="13000.00000" pt_clust_7="13000.00000" pt_clust_8="13000.00000" pt_clust_9="45.43334"></scales>
<clustering>
<clus scale="   45.433">  1  9  2 -1</clus>
<clus scale="   82.113">  5  6 -1 -1</clus>
<clus scale="   92.118">  7  8 -1 -1</clus>
<clus scale="  176.863">  2  5  1 -1</clus>
<clus scale="   45.433">  1  5  2 -1</clus>
</clustering>
</event>
<event>
 9    1  0.4067873E-005  0.9880755E+02  0.7546771E-02  0.1289350E+00
         -4   -1    0    0    0  501 -0.00000000000E+00  0.00000000000E+00  0.28926287614E+03  0.28926287614E+03  0.00000000000E+00 0.  1.
         21   -1    0    0  501  502  0.00000000000E+00 -0.00000000000E+00 -0.83620863156E+02  0.83620863156E+02  0.00000000000E+00 0. -1.
         23    2    1    2    0    0 -0.19303546183E+02 -0.44095894032E+02  0.27539503737E+02  0.10759817099E+03  0.92205571245E+02 0.  0.
        -24    2    1    2    0    0  0.30302839899E+02  0.62735295860E+01  0.28539621249E+01  0.85664943146E+02  0.79829306054E+02 0.  0.
         13    1    4    4    0    0  0.22799985269E+02  0.15539843345E+02 -0.35808426461E+02  0.45205856535E+02  0.00000000000E+00 0. -1.
        -14    1    4    4    0    0  0.75028546297E+01 -0.92663137588E+01  0.38662388586E+02  0.40459086611E+02  0.00000000000E+00 0.  1.
        -13    1    3    3    0    0 -0.40246030339E+02 -0.11257141418E+02  0.47966695829E+02  0.63618158568E+02  0.00000000000E+00 0. -1.
         13    1    3    3    0    0  0.20942484156E+02 -0.32838752613E+02 -0.20427192091E+02  0.43980012421E+02  0.00000000000E+00 0.  1.
         -3    1    1    2    0  502 -0.10999293716E+02  0.37822364446E+02  0.17524854712E+03  0.17962062516E+03  0.00000000000E+00 0.  1.
<scales pt_clust_5="13000.00000" pt_clust_6="13000.00000" pt_clust_7="13000.00000" pt_clust_8="13000.00000" pt_clust_9="39.38930"></scales>
<clustering>
<clus scale="   39.389">  2  9  1 -1</clus>
<clus scale="   79.829">  5  6 -1 -1</clus>
<clus scale="   87.372">  2  5  1 -1</clus>
<clus scale="   92.206">  7  8 -1 -1</clus>
<clus scale="   39.389">  2  5  1 -1</clus>
</clustering>
</event>
<event>
 9    1  0.4067873E-005  0.2092648E+03  0.7546771E-02  0.1142150E+00
         21   -1    0    0  501  502  0.00000000000E+00  0.00000000000E+00  0.71875403831E+02  0.71875403831E+02  0.00000000000E+00 0. -1.
         -4   -1    0    0    0  501 -0.00000000000E+00 -0.00000000000E+00 -0.40545607245E+03  0.40545607245E+03  0.00000000000E+00 0.  1.
        -24    2    1    2    0    0 -0.46327546161E+02  0.42671905931E+02 -0.18318806538E+03  0.21094337047E+03  0.83499132673E+02 0.  0.
         23    2    1    2    0    0 -0.46653599027E+02 -0.13296225693E+01 -0.12488453715E+03  0.16148177050E+03  0.91114699067E+02 0.  0.
         13    1    3    3    0    0 -0.31603283068E+02  0.21974395740E+02 -0.18144506941E+03  0.18548303098E+03  0.00000000000E+00 0. -1.
        -14    1    3    3    0    0 -0.14724263093E+02  0.20697510191E+02 -0.17429959697E+01  0.25460339485E+02  0.00000000000E+00 0.  1.
        -11    1    4    4    0    0 -0.37816964295E+02 -0.38929209954E+02 -0.10463091773E+03  0.11786956825E+03  0.00000000000E+00 0.  1.
         11    1    4    4    0    0 -0.88366347320E+01  0.37599587385E+02 -0.20253619424E+02  0.43612202245E+02  0.00000000000E+00 0. -1.
         -3    1    1    2    0  502  0.92981145188E+02 -0.41342283362E+02 -0.25508066091E+02  0.10490633532E+03  0.00000000000E+00 0.  1.
<scales pt_clust_5="13000.00000" pt_clust_6="13000.00000" pt_clust_7="13000.00000" pt_clust_8="13000.00000" pt_clust_9="101.75794"></scales>
<clustering>
<clus scale="   83.499">  5  6 -1 -1</clus>
<clus scale="   91.115">  7  8 -1 -1</clus>
<clus scale="   99.243">  5  7 -1 -1</clus>
<clus scale="  101.758">  1  9  2 -1</clus>
<clus scale="  101.758">  1  5  2 -1</clus>
</clustering>
</event>
<event>
 9    1  0.4067873E-005  0.1165926E+03  0.7546771E-02  0.1251139E+00
         21   -1    0    0  501  502  0.00000000000E+00  0.00000000000E+00  0.59450141542E+03  0.59450141542E+03  0.00000000000E+00 0. -1.
         -4   -1    0    0    0  501 -0.00000000000E+00 -0.00000000000E+00 -0.28744992117E+02  0.28744992117E+02  0.00000000000E+00 0.  1.
        -24    2    1    2    0    0 -0.79124453115E+02 -0.23320332397E+02  0.19629939990E+03  0.22912790992E+03  0.84626400844E+02 0.  0.
         23    2    1    2    0    0  0.59256304887E+02  0.40117881528E+01  0.28048562400E+03  0.30093334264E+03  0.91440075092E+02 0.  0.
         13    1    3    3    0    0 -0.18032238143E+02 -0.39885111459E+02  0.13128222137E+03  0.13838715756E+03  0.00000000000E+00 0. -1.
        -14    1    3    3    0    0 -0.61092214972E+02  0.16564779062E+02  0.65017178523E+02  0.90740752359E+02  0.00000000000E+00 0.  1.
        -13    1    4    4    0    0  0.39284830628E+02  0.39091693565E+02  0.86056769950E+02  0.10235832197E+03  0.00000000000E+00 0.  1.
         13    1    4    4    0    0  0.19971474260E+02 -0.35079905412E+02  0.19442885405E+03  0.19857502067E+03  0.00000000000E+00 0. -1.
         -3    1    1    2    0  502  0.19868148228E+02  0.19308544244E+02  0.88971399411E+02  0.93185154977E+02  0.00000000000E+00 0.  1.
<scales pt_clust_5="13000.00000" pt_clust_6="13000.00000" pt_clust_7="13000.00000" pt_clust_8="13000.00000" pt_clust_9="27.70493"></scales>
<clustering>
<clus scale="   27.705">  1  9  2 -1</clus>
<clus scale="   84.626">  5  6 -1 -1</clus>
<clus scale="   91.440">  7  8 -1 -1</clus>
<clus scale="  111.329">  2  5  1 -1</clus>
<clus scale="   27.705">  1  5  2 -1</clus>
</clustering>
</event>
<event>
 9    1  0.4067873E-005  0.1891916E+03  0.7546771E-02  0.1181533E+00
          1   -1    0    0  502    0 -0.00000000000E+00  0.00000000000E+00  0.87070914663E+03  0.87070914663E+03  0.00000000000E+00 0. -1.
         21   -1    0    0  501  502  0.00000000000E+00 -0.00000000000E+00 -0.76652135762E+02  0.76652135762E+02  0.00000000000E+00 0. -1.
        -24    2    1    2    0    0  0.78504803489E+02  0.15935497176E+02  0.17928688503E+03  0.21220714676E+03  0.80443407123E+02 0.  0.
         23    2    1    2    0    0  0.86183000215E+02 -0.10899753631E+03  0.47240137679E+03  0.49840220529E+03  0.77030675718E+02 0.  0.
         11    1    3    3    0    0  0.54830149440E+02  0.47532845740E+02  0.99102938648E+02  0.12282959399E+03  0.00000000000E+00 0. -1.
        -12    1    3    3    0    0  0.23674654049E+02 -0.31597348564E+02  0.80183946384E+02  0.89377552765E+02  0.00000000000E+00 0.  1.
        -11    1    4    4    0    0  0.28239354980E+02 -0.91541761795E+02  0.33126867193E+03  0.34484241085E+03  0.00000000000E+00 0. -1.
         11    1    4    4    0    0  0.57943645234E+02 -0.17455774512E+02  0.14113270486E+03  0.15355979444E+03  0.00000000000E+00 0.  1.
          2    1    1    2  501    0 -0.16468780370E+03  0.93062039131E+02  0.14236874905E+03  0.23675193035E+03  0.00000000000E+00 0. -1.
<scales pt_clust_5="13000.00000" pt_clust_6="13000.00000" pt_clust_7="13000.00000" pt_clust_8="13000.00000" pt_clust_9="172.79971"></scales>
<clustering>
<clus scale="   77.031">  7  8 -1 -1</clus>
<clus scale="   80.443">  5  6 -1 -1</clus>
<clus scale="  113.526">  1  5  2 -1</clus>
<clus scale="  172.800">  2  9  1 -1</clus>
<clus scale="  172.800">  2  5  1 -1</clus>
</clustering>
</event>
<event>
 9    1  0.4067873E-005  0.1080214E+03  0.7546771E-02  0.1266959E+00
          1   -1    0    0  502    0 -0.00000000000E+00  0.00000000000E+00  0.73997753658E+03  0.73997753658E+03  0.00000000000E+00 0. -1.
         21   -1    0    0  501  502  0.00000000000E+00 -0.00000000000E+00 -0.22134471556E+02  0.22134471556E+02  0.00000000000E+00 0. -1.
         23    2    1    2    0    0 -0.13375763677E+02  0.80591892561E+02  0.38145846305E+03  0.40005192759E+03  0.88639841679E+02 0.  0.
        -24    2    1    2    0    0  0.64372743440E+01 -0.40342564061E+02  0.20530428354E+03  0.22476404652E+03  0.81853935722E+02 0.  0.
         11    1    4    4    0    0 -0.33587563650E+02 -0.19448401754E+02  0.51610407698E+02  0.64575528999E+02  0.00000000000E+00 0. -1.
        -12    1    4    4    0    0  0.40024837994E+02 -0.20894162307E+02  0.15369387584E+03  0.16018851752E+03  0.00000000000E+00 0.  1.
        -11    1    3    3    0    0  0.14449585570E+02  0.63213618157E+02  0.34485483978E+03  0.35089829376E+03  0.00000000000E+00 0. -1.
         11    1    3    3    0    0 -0.27825349246E+02  0.17378274405E+02  0.36603623270E+02  0.49153633828E+02  0.00000000000E+00 0.  1.
          2    1    1    2  501    0  0.69384893326E+01 -0.40249328500E+02  0.13108031844E+03  0.13729603403E+03  0.00000000000E+00 0. -1.
<scales pt_clust_5="13000.00000" pt_clust_6="13000.00000" pt_clust_7="13000.00000" pt_clust_8="13000.00000" pt_clust_9="40.84303"></scales>
<clustering>
<clus scale="   40.843">  2  9  1 -1</clus>
<clus scale="   81.854">  5  6 -1 -1</clus>
<clus scale="   88.640">  7  8 -1 -1</clus>
<clus scale="  102.526">  2  5  1 -1</clus>
<clus scale="   40.843">  2  5  1 -1</clus>
</clustering>
</event>
<event>
 9    1  0.4067873E-005  0.1509382E+03  0.7546771E-02  0.1224634E+00
         21   -1    0    0  501  502  0.00000000000E+00  0.00000000000E+00  0.59162880110E+02  0.59162880110E+02  0.00000000000E+00 0. -1.
          3   -1    0    0  502    0 -0.00000000000E+00 -0.00000000000E+00 -0.64705230119E+03  0.64705230119E+03  0.00000000000E+00 0. -1.
        -24    2    1    2    0    0  0.18520792076E+01  0.34642359193E+02 -0.26211413830E+03  0.27651566047E+03  0.80954096521E+02 0.  0.
         23    2    1    2    0    0  0.94463904014E+02 -0.87316211543E+02 -0.12826660413E+03  0.20373275007E+03  0.92234276463E+02 0.  0.
         11    1    3    3    0    0  0.37409460308E+02  0.80832006625E+01 -0.17016402457E+03  0.17441502548E+03  0.00000000000E+00 0. -1.
        -12    1    3    3    0    0 -0.35557381100E+02  0.26559158531E+02 -0.91950113725E+02  0.10210063500E+03  0.00000000000E+00 0.  1.
        -13    1    4    4    0    0  0.80396021484E+02 -0.12773255812E+02 -0.77924659348E+02  0.11268952422E+03  0.00000000000E+00 0. -1.
         13    1    4    4    0    0  0.14067882530E+02 -0.74542955731E+02 -0.50341944783E+02  0.91043225846E+02  0.00000000000E+00 0.  1.
          4    1    1    2  501    0 -0.96315983221E+02  0.52673852350E+02 -0.19750867866E+03  0.22596677076E+03  0.00000000000E+00 0. -1.
<scales pt_clust_5="13000.00000" pt_clust_6="13000.00000" pt_clust_7="13000.00000" pt_clust_8="13000.00000" pt_clust_9="119.47880"></scales>
<clustering>
<clus scale="   80.954">  5  6 -1 -1</clus>
<clus scale="   88.074">  2  5  1 -1</clus>
<clus scale="   92.234">  7  8 -1 -1</clus>
<clus scale="  119.479">  1  9  2 -1</clus>
<clus scale="  119.479">  1  5  2 -1</clus>
</clustering>
</event>
<event>
 9    1  0.4067873E-005  0.9063514E+02  0.7546771E-02  0.1306345E+00
          1   -1    0    0  502    0 -0.00000000000E+00  0.00000000000E+00  0.26556581628E+03  0.26556581628E+03  0.00000000000E+00 0. -1.
         21   -1    0    0  501  502  0.00000000000E+00 -0.00000000000E+00 -0.19929655693E+03  0.19929655693E+03  0.00000000000E+00 0. -1.
         23    2    1    2    0    0  0.43033865416E+02 -0.16844628883E+02  0.14772432060E+03  0.17837767246E+03  0.88659258066E+02 0.  0.
        -24    2    1    2    0    0  0.11468920805E+02 -0.25358163066E+02  0.76287057083E+02  0.11433881712E+03  0.80492716713E+02 0.  0.
         11    1    4    4    0    0  0.65232094971E+01 -0.53907011844E+02  0.37786634995E+02  0.66153971705E+02  0.00000000000E+00 0. -1.
        -12    1    4    4    0    0  0.49457113076E+01  0.28548848778E+02  0.38500422088E+02  0.48184845417E+02  0.00000000000E+00 0.  1.
        -13    1    3    3    0    0  0.67782625157E+02  0.35364289450E+01  0.97808267407E+02  0.11905229009E+03  0.00000000000E+00 0. -1.
         13    1    3    3    0    0 -0.24748759740E+02 -0.20381057828E+02  0.49916053197E+02  0.59325382373E+02  0.00000000000E+00 0.  1.
          2    1    1    2  501    0 -0.54502786221E+02  0.42202791949E+02 -0.15774211834E+03  0.17214588363E+03  0.00000000000E+00 0. -1.
<scales pt_clust_5="13000.00000" pt_clust_6="13000.00000" pt_clust_7="13000.00000" pt_clust_8="13000.00000" pt_clust_9="68.93206"></scales>
<clustering>
<clus scale="   68.932">  2  9  1 -1</clus>
<clus scale="   80.493">  5  6 -1 -1</clus>
<clus scale="   82.664">  2  5  1 -1</clus>
<clus scale="   88.659">  7  8 -1 -1</clus>
<clus scale="   68.932">  2  5  1 -1</clus>
</clustering>
</event>
<event>
 9    1  0.4067873E-005  0.3994177E+03  0.7546771E-02  0.1090781E+00
         21   -1    0    0  501  502  0.00000000000E+00  0.00000000000E+00  0.40221539530E+03  0.40221539530E+03  0.00000000000E+00 0.  1.
         -4   -1    0    0    0  501 -0.00000000000E+00 -0.00000000000E+00 -0.92562581133E+03  0.92562581133E+03  0.00000000000E+00 0.  1.
        -24    2    1    2    0    0 -0.17629530387E+02 -0.75498332402E+02  0.57613771590E+02  0.12394306897E+03  0.77664271908E+02 0.  0.
         23    2    1    2    0    0 -0.37061573087E+03  0.10756200844E+03  0.10637373001E+03  0.41378526004E+03  0.10477244563E+03 0.  0.
         11    1    3    3    0    0 -0.40631869321E+02 -0.19464442372E+02  0.82464509551E+01  0.45801935273E+02  0.00000000000E+00 0. -1.
        -12    1    3    3    0    0  0.23002338934E+02 -0.56033890031E+02  0.49367320635E+02  0.78141133694E+02  0.00000000000E+00 0.  1.
        -13    1    4    4    0    0 -0.35865953011E+03  0.83398245957E+02  0.81577636924E+02  0.37715624987E+03  0.00000000000E+00 0.  1.
         13    1    4    4    0    0 -0.11956200760E+02  0.24163762487E+02  0.24796093086E+02  0.36629010177E+02  0.00000000000E+00 0. -1.
         -3    1    1    2    0  502  0.38824526126E+03 -0.32063676042E+02 -0.68739791763E+03  0.79011287761E+03  0.00000000000E+00 0.  1.
<scales pt_clust_5="13000.00000" pt_clust_6="13000.00000" pt_clust_7="13000.00000" pt_clust_8="13000.00000" pt_clust_9="385.43146"></scales>
<clustering>
<clus scale="   77.664">  5  6 -1 -1</clus>
<clus scale="  104.772">  7  8 -1 -1</clus>
<clus scale="  109.739">  2  5  1 -1</clus>
<clus scale="  385.431">  1  9  2 -1</clus>
<clus scale="  385.431">  1  5  2 -1</clus>
</clustering>
</event>
<event>
 9    1  0.4067873E-005  0.1011261E+03  0.7546771E-02  0.1282628E+00
         21   -1    0    0  501  502  0.00000000000E+00  0.00000000000E+00  0.66059998069E+02  0.66059998069E+02  0.00000000000E+00 0.  1.
          1   -1    0    0  502    0 -0.00000000000E+00 -0.00000000000E+00 -0.57292100513E+03  0.57292100513E+03  0.00000000000E+00 0. -1.
        -24    2    1    2    0    0 -0.44011464007E+02 -0.11000654189E+02 -0.46608127298E+03  0.47542756366E+03  0.82107197680E+02 0.  0.
         23    2    1    2    0    0  0.32860649415E+01  0.32712280708E+02  0.62992652805E+01  0.97626320413E+02  0.91707830432E+02 0.  0.
         11    1    3    3    0    0 -0.58615869415E+02  0.17620061658E+02 -0.28236801885E+03  0.28892556964E+03  0.00000000000E+00 0. -1.
        -12    1    3    3    0    0  0.14604405408E+02 -0.28620715847E+02 -0.18371325413E+03  0.18650199402E+03  0.00000000000E+00 0.  1.
        -11    1    4    4    0    0 -0.34554498820E+02  0.45808836402E+02  0.36540292384E+01  0.57496215622E+02  0.00000000000E+00 0.  1.
         11    1    4    4    0    0  0.37840563762E+02 -0.13096555694E+02  0.26452360421E+01  0.40130104791E+02  0.00000000000E+00 0. -1.
          2    1    1    2  501    0  0.40725399065E+02 -0.21711626519E+02 -0.47078999365E+02  0.65927119126E+02  0.00000000000E+00 0. -1.
<scales pt_clust_5="13000.00000" pt_clust_6="13000.00000" pt_clust_7="13000.00000" pt_clust_8="13000.00000" pt_clust_9="46.15141"></scales>
<clustering>
<clus scale="   46.151">  1  9  2 -1</clus>
<clus scale="   82.107">  5  6 -1 -1</clus>
<clus scale="   91.708">  7  8 -1 -1</clus>
<clus scale="   92.508">  2  5  1 -1</clus>
<clus scale="   46.151">  1  5  2 -1</clus>
</clustering>
</event>
<event>
 9    1  0.4067873E-005  0.2920545E+03  0.7546771E-02  0.1089281E+00
         21   -1    0    0  501  502  0.00000000000E+00  0.00000000000E+00  0.75243051751E+02  0.75243051751E+02  0.00000000000E+00 0. -1.
          1   -1    0    0  502    0 -0.00000000000E+00 -0.00000000000E+00 -0.94108004881E+03  0.94108004881E+03  0.00000000000E+00 0. -1.
        -24    2    1    2    0    0  0.69440991594E+02 -0.42980524139E+02 -0.32139545313E+03  0.34108875499E+03  0.79856901542E+02 0.  0.
         23    2    1    2    0    0  0.14471014008E+03 -0.74253425401E+01 -0.30512493243E+03  0.35015912483E+03  0.92271490508E+02 0.  0.
         13    1    3    3    0    0  0.81308258140E+02 -0.52323041733E+02 -0.29752320657E+03  0.31283988234E+03  0.00000000000E+00 0. -1.
        -14    1    3    3    0    0 -0.11867266547E+02  0.93425175933E+01 -0.23872246558E+02  0.28248872650E+02  0.00000000000E+00 0.  1.
        -11    1    4    4    0    0 -0.15119590519E+01 -0.24010255816E+02 -0.33676441206E+02  0.41386967718E+02  0.00000000000E+00 0.  1.
         11    1    4    4    0    0  0.14622209913E+03  0.16584913276E+02 -0.27144849122E+03  0.30877215711E+03  0.00000000000E+00 0. -1.
          2    1    1    2  501    0 -0.21415113167E+03  0.50405866679E+02 -0.23931661150E+03  0.32507522073E+03  0.00000000000E+00 0. -1.
<scales pt_clust_5="13000.00000" pt_clust_6="13000.00000" pt_clust_7="13000.00000" pt_clust_8="13000.00000" pt_clust_9="220.00331"></scales>
<clustering>
<clus scale="   79.857">  5  6 -1 -1</clus>
<clus scale="   92.271">  7  8 -1 -1</clus>
<clus scale="  111.672">  5  7 -1 -1</clus>
<clus scale="  220.003">  1  9  2 -1</clus>
<clus scale="  220.003">  1  5  2 -1</clus>
</clustering>
</event>
<event>
 9    1  0.4067873E-005  0.1307137E+03  0.7546771E-02  0.1229298E+00
         21   -1    0    0  501  502  0.00000000000E+00  0.00000000000E+00  0.23824730585E+03  0.23824730585E+03  0.00000000000E+00 0. -1.
          1   -1    0    0  502    0 -0.00000000000E+00 -0.00000000000E+00 -0.38899526859E+03  0.38899526859E+03  0.00000000000E+00 0. -1.
        -24    2    1    2    0    0  0.92286534601E+02 -0.17074192367E+02 -0.13086846234E+03  0.17966399832E+03  0.79650896696E+02 0.  0.
         23    2    1    2    0    0  0.13957474537E+02  0.92020272826E+02  0.17189053253E+03  0.21588815770E+03  0.91644965789E+02 0.  0.
         11    1    3    3    0    0  0.93782840533E+02 -0.33922224717E+01 -0.13577656045E+03  0.16505151535E+03  0.00000000000E+00 0. -1.
        -12    1    3    3    0    0 -0.14963059323E+01 -0.13681969895E+02  0.49080981073E+01  0.14612482975E+02  0.00000000000E+00 0.  1.
        -11    1    4    4    0    0  0.47015188048E+02  0.41295227176E+02  0.12324383245E+03  0.13821999107E+03  0.00000000000E+00 0.  1.
         11    1    4    4    0    0 -0.33057713511E+02  0.50725045649E+02  0.48646700087E+02  0.77668166633E+02  0.00000000000E+00 0. -1.
          2    1    1    2  501    0 -0.10624400914E+03 -0.74946080458E+02 -0.19177003294E+03  0.23169041842E+03  0.00000000000E+00 0. -1.
<scales pt_clust_5="13000.00000" pt_clust_6="13000.00000" pt_clust_7="13000.00000" pt_clust_8="13000.00000" pt_clust_9="93.20565"></scales>
<clustering>
<clus scale="   79.651">  5  6 -1 -1</clus>
<clus scale="   91.645">  7  8 -1 -1</clus>
<clus scale="  123.096">  2  5  1 -1</clus>
<clus scale="   93.206">  1  9  2 -1</clus>
<clus scale="   93.206">  1  5  2 -1</clus>
</clustering>
</event>
<event>
 9    1  0.4067873E-005  0.9628343E+02  0.7546771E-02  0.1291782E+00
         -4   -1    0    0    0  501 -0.00000000000E+00  0.00000000000E+00  0.99556288724E+02  0.99556288724E+02  0.00000000000E+00 0.  1.
         21   -1    0    0  501  502  0.00000000000E+00 -0.00000000000E+00 -0.25930072421E+03  0.25930072421E+03  0.00000000000E+00 0. -1.
        -24    2    1    2    0    0  0.20603112412E+02 -0.26222194170E+02  0.90381753445E+01  0.87301438245E+02  0.80173317244E+02 0.  0.
         23    2    1    2    0    0 -0.61828390229E+02  0.69500769090E+01 -0.11149889073E+02  0.10748542810E+03  0.86935285236E+02 0.  0.
         11    1    3    3    0    0  0.24640542793E+02 -0.38099418525E+02  0.35766842065E+02  0.57775332387E+02  0.00000000000E+00 0. -1.
        -12    1    3    3    0    0 -0.40374303810E+01  0.11877224355E+02 -0.26728666721E+02  0.29526105858E+02  0.00000000000E+00 0.  1.
        -13    1    4    4    0    0 -0.54495223041E+02  0.43350798562E+02 -0.98740200964E+01  0.70331481878E+02  0.00000000000E+00 0.  1.
         13    1    4    4    0    0 -0.73331671874E+01 -0.36400721653E+02 -0.12758689771E+01  0.37153946217E+02  0.00000000000E+00 0. -1.
         -3    1    1    2    0  502  0.41225277816E+02  0.19272117261E+02 -0.15763272176E+03  0.16407014660E+03  0.00000000000E+00 0.  1.
<scales pt_clust_5="13000.00000" pt_clust_6="13000.00000" pt_clust_7="13000.00000" pt_clust_8="13000.00000" pt_clust_9="45.50756"></scales>
<clustering>
<clus scale="   45.508">  2  9  1 -1</clus>
<clus scale="   80.173">  5  6 -1 -1</clus>
<clus scale="   86.935">  7  8 -1 -1</clus>
<clus scale="   90.225">  1  5  2 -1</clus>
<clus scale="   45.508">  2  5  1 -1</clus>
</clustering>
</event>
<event>
 9    1  0.4067873E-005  0.9190275E+02  0.7546771E-02  0.1304190E+00
         -2   -1    0    0    0  501 -0.00000000000E+00  0.00000000000E+00  0.40796890782E+03  0.40796890782E+03  0.00000000000E+00 0.  1.
         21   -1    0    0  501  502  0.00000000000E+00 -0.00000000000E+00 -0.48751616016E+02  0.48751616016E+02  0.00000000000E+00 0.  1.
         23    2    1    2    0    0 -0.25668898423E+01 -0.17288746300E+02  0.31330042068E+03  0.32664174093E+03  0.90731381813E+02 0.  0.
        -24    2    1    2    0    0  0.18769615828E+02 -0.14852283585E+00  0.59774269460E+02  0.10253583148E+03  0.81168423118E+02 0.  0.
         11    1    4    4    0    0 -0.17248770437E+01 -0.36070663414E+02  0.46958810354E+02  0.59238482676E+02  0.00000000000E+00 0. -1.
        -12    1    4    4    0    0  0.20494492871E+02  0.35922140578E+02  0.12815459106E+02  0.43297348809E+02  0.00000000000E+00 0.  1.
        -13    1    3    3    0    0 -0.43531384214E+02 -0.81393013738E+01  0.10178582696E+03  0.11100263154E+03  0.00000000000E+00 0. -1.
         13    1    3    3    0    0  0.40964494372E+02 -0.91494449266E+01  0.21151459373E+03  0.21563910939E+03  0.00000000000E+00 0.  1.
         -1    1    1    2    0  502 -0.16202725985E+02  0.17437269136E+02 -0.13857398339E+02  0.27542951422E+02  0.00000000000E+00 0.  1.
<scales pt_clust_5="13000.00000" pt_clust_6="13000.00000" pt_clust_7="13000.00000" pt_clust_8="13000.00000" pt_clust_9="23.80308"></scales>
<clustering>
<clus scale="   23.803">  2  9  1 -1</clus>
<clus scale="   81.168">  5  6 -1 -1</clus>
<clus scale="   82.476">  2  5  1 -1</clus>
<clus scale="   90.731">  7  8 -1 -1</clus>
<clus scale="   23.803">  2  5  1 -1</clus>
</clustering>
</event>
<event>
 9    1  0.4067873E-005  0.9275392E+02  0.7546771E-02  0.1300470E+00
         21   -1    0    0  501  502  0.00000000000E+00  0.00000000000E+00  0.59659089569E+03  0.59659089569E+03  0.00000000000E+00 0.  1.
          3   -1    0    0  502    0 -0.00000000000E+00 -0.00000000000E+00 -0.43878325471E+02  0.43878325471E+02  0.00000000000E+00 0. -1.
        -24    2    1    2    0    0 -0.13262401722E+02  0.28251912679E+02  0.33056385425E+02  0.94745144884E+02  0.83125543561E+02 0.  0.
         23    2    1    2    0    0  0.20204908181E+02  0.27211874762E+02  0.20979687567E+03  0.23086343795E+03  0.90191316104E+02 0.  0.
         11    1    3    3    0    0 -0.34370661211E+02 -0.17150905031E+02  0.18283772955E+02  0.42541653106E+02  0.00000000000E+00 0. -1.
        -12    1    3    3    0    0  0.21108259489E+02  0.45402817710E+02  0.14772612469E+02  0.52203491778E+02  0.00000000000E+00 0.  1.
        -13    1    4    4    0    0 -0.35315847571E+02  0.18374312683E+02  0.77832286376E+02  0.87422475707E+02  0.00000000000E+00 0. -1.
         13    1    4    4    0    0  0.55520755752E+02  0.88375620787E+01  0.13196458929E+03  0.14344096224E+03  0.00000000000E+00 0.  1.
          4    1    1    2  501    0 -0.69425064584E+01 -0.55463787441E+02  0.30985930912E+03  0.31486063832E+03  0.00000000000E+00 0. -1.
<scales pt_clust_5="13000.00000" pt_clust_6="13000.00000" pt_clust_7="13000.00000" pt_clust_8="13000.00000" pt_clust_9="55.89660"></scales>
<clustering>
<clus scale="   55.897">  1  9  2 -1</clus>
<clus scale="   83.126">  5  6 -1 -1</clus>
<clus scale="   85.899">  2  5  1 -1</clus>
<clus scale="   90.191">  7  8 -1 -1</clus>
<clus scale="   55.897">  1  5  2 -1</clus>
</clustering>
</event>
<event>
 9    1  0.4067873E-005  0.1255943E+03  0.7546771E-02  0.1246706E+00
         21   -1    0    0  501  502  0.00000000000E+00  0.00000000000E+00  0.22380869220E+02  0.22380869220E+02  0.00000000000E+00 0. -1.
          1   -1    0    0  502    0 -0.00000000000E+00 -0.00000000000E+00 -0.12506934560E+04  0.12506934560E+04  0.00000000000E+00 0. -1.
        -24    2    1    2    0    0 -0.82154298298E-01 -0.54902428502E+02 -0.54787497410E+03  0.55645272711E+03  0.80363964921E+02 0.  0.
         23    2    1    2    0    0 -0.52374129658E+02 -0.45598058591E+02 -0.37490868069E+03  0.39073827863E+03  0.85426290609E+02 0.  0.
         11    1    3    3    0    0 -0.27645935849E+02 -0.59817074592E+02 -0.30938808170E+03  0.31632793945E+03  0.00000000000E+00 0. -1.
        -12    1    3    3    0    0  0.27563781551E+02  0.49146460902E+01 -0.23848689240E+03  0.24012478766E+03  0.00000000000E+00 0.  1.
        -13    1    4    4    0    0  0.17216483688E+02  0.10927215215E+02 -0.73868663803E+02  0.76631526377E+02  0.00000000000E+00 0. -1.
         13    1    4    4    0    0 -0.69590613346E+02 -0.56525273806E+02 -0.30104001689E+03  0.31410675225E+03  0.00000000000E+00 0.  1.
          2    1    1    2  501    0  0.52456283957E+02  0.10050048709E+03 -0.30552893204E+03  0.32588331952E+03  0.00000000000E+00 0. -1.
<scales pt_clust_5="13000.00000" pt_clust_6="13000.00000" pt_clust_7="13000.00000" pt_clust_8="13000.00000" pt_clust_9="92.06672"></scales>
<clustering>
<clus scale="   80.364">  5  6 -1 -1</clus>
<clus scale="   85.426">  7  8 -1 -1</clus>
<clus scale="   97.328">  2  5  1 -1</clus>
<clus scale="   92.067">  1  9  2 -1</clus>
<clus scale="   92.067">  1  5  2 -1</clus>
</clustering>
</event>
<event>
 9    1  0.4067873E-005  0.2616393E+03  0.7546771E-02  0.1106540E+00
         21   -1    0    0  501  502  0.00000000000E+00  0.00000000000E+00  0.77144864449E+03  0.77144864449E+03  0.00000000000E+00 0.  1.
         -2   -1    0    0    0  501 -0.00000000000E+00 -0.00000000000E+00 -0.20522749871E+03  0.20522749871E+03  0.00000000000E+00 0.  1.
        -24    2    1    2    0    0 -0.26159625606E+03 -0.96576726948E+02 -0.16592992271E+02  0.29090401357E+03  0.81179753325E+02 0.  0.
         23    2    1    2    0    0  0.16330839282E+03 -0.31570210274E+02  0.39740459479E+03  0.43988833530E+03  0.88910214437E+02 0.  0.
         13    1    3    3    0    0 -0.23278782986E+02  0.96700522045E+01  0.12895952641E+02  0.28314611802E+02  0.00000000000E+00 0. -1.
        -14    1    3    3    0    0 -0.23831747307E+03 -0.10624677915E+03 -0.29488944912E+02  0.26258940177E+03  0.00000000000E+00 0.  1.
        -13    1    4    4    0    0  0.11589451568E+03 -0.36154271512E+02  0.35813805222E+03  0.37815543704E+03  0.00000000000E+00 0.  1.
         13    1    4    4    0    0  0.47413877135E+02  0.45840612375E+01  0.39266542573E+02  0.61732898264E+02  0.00000000000E+00 0. -1.
         -1    1    1    2    0  502  0.98287863239E+02  0.12814693722E+03  0.18540954326E+03  0.24588379433E+03  0.00000000000E+00 0.  1.
<scales pt_clust_5="13000.00000" pt_clust_6="13000.00000" pt_clust_7="13000.00000" pt_clust_8="13000.00000" pt_clust_9="161.49966"></scales>
<clustering>
<clus scale="   81.180">  5  6 -1 -1</clus>
<clus scale="   88.910">  7  8 -1 -1</clus>
<clus scale="  161.500">  1  9  2 -1</clus>
<clus scale="  259.114">  2  5  1 -1</clus>
<clus scale="  161.500">  1  5  2 -1</clus>
</clustering>
</event>
<event>
 9    1  0.4067873E-005  0.1280416E+03  0.7546771E-02  0.1233282E+00
          1   -1    0    0  502    0 -0.00000000000E+00  0.00000000000E+00  0.62932843694E+03  0.62932843694E+03  0.00000000000E+00 0. -1.
         21   -1    0    0  501  502  0.00000000000E+00 -0.00000000000E+00 -0.46385121923E+02  0.46385121923E+02  0.00000000000E+00 0. -1.
        -24    2    1    2    0    0  0.33346428565E+02  0.77496049782E+02  0.32415578201E+03  0.34474671343E+03  0.81582494338E+02 0.  0.
         23    2    1    2    0    0 -0.83556504448E+02 -0.64293503616E+02  0.23566757469E+03  0.27413471175E+03  0.92169899561E+02 0.  0.
         11    1    3    3    0    0 -0.16288851039E+02  0.45979753955E+02  0.21805139890E+03  0.22344099222E+03  0.00000000000E+00 0. -1.
        -12    1    3    3    0    0  0.49635279604E+02  0.31516295826E+02  0.10610438312E+03  0.12130572122E+03  0.00000000000E+00 0.  1.
        -11    1    4    4    0    0  0.14471529912E+02 -0.31862879489E+02  0.80204185421E+02  0.87506454770E+02  0.00000000000E+00 0.  1.
         11    1    4    4    0    0 -0.98028034360E+02 -0.32430624128E+02  0.15546338927E+03  0.18662825698E+03  0.00000000000E+00 0. -1.
          2    1    1    2  501    0  0.50210075883E+02 -0.13202546165E+02  0.23119958314E+02  0.56832133674E+02  0.00000000000E+00 0. -1.
<scales pt_clust_5="13000.00000" pt_clust_6="13000.00000" pt_clust_7="13000.00000" pt_clust_8="13000.00000" pt_clust_9="51.91685"></scales>
<clustering>
<clus scale="   51.917">  2  9  1 -1</clus>
<clus scale="   81.582">  5  6 -1 -1</clus>
<clus scale="   92.170">  7  8 -1 -1</clus>
<clus scale="  120.644">  1  5  2 -1</clus>
<clus scale="   51.917">  2  5  1 -1</clus>
</clustering>
</event>
<event>
 9    1  0.4067873E-005  0.1264890E+03  0.7546771E-02  0.1236664E+00
          1   -1    0    0  502    0 -0.00000000000E+00  0.00000000000E+00  0.47945630347E+03  0.47945630347E+03  0.00000000000E+00 0. -1.
         21   -1    0    0  501  502  0.00000000000E+00 -0.00000000000E+00 -0.72762138264E+02  0.72762138264E+02  0.00000000000E+00 0.  1.
         23    2    1    2    0    0  0.74779685173E+02 -0.35100841970E+02  0.15697650968E+03  0.20094896690E+03  0.94418177733E+02 0.  0.
        -24    2    1    2    0    0 -0.97643654587E+02 -0.16302931977E+02  0.39761424706E+02  0.13390635024E+03  0.80931272492E+02 0.  0.
         13    1    4    4    0    0 -0.10273753438E+02  0.24410931872E+02 -0.60750075262E+01  0.27172583996E+02  0.00000000000E+00 0. -1.
        -14    1    4    4    0    0 -0.87369901149E+02 -0.40713863849E+02  0.45836432233E+02  0.10673376624E+03  0.00000000000E+00 0.  1.
        -11    1    3    3    0    0 -0.19027746044E+02 -0.21172259732E+02  0.53404832124E+02  0.60517731252E+02  0.00000000000E+00 0.  1.
         11    1    3    3    0    0  0.93807431217E+02 -0.13928582237E+02  0.10357167756E+03  0.14043123565E+03  0.00000000000E+00 0. -1.
          2    1    1    2  501    0  0.22863969414E+02  0.51403773947E+02  0.20995623082E+03  0.21736312460E+03  0.00000000000E+00 0. -1.
<scales pt_clust_5="13000.00000" pt_clust_6="13000.00000" pt_clust_7="13000.00000" pt_clust_8="13000.00000" pt_clust_9="56.25933"></scales>
<clustering>
<clus scale="   56.259">  2  9  1 -1</clus>
<clus scale="   80.931">  5  6 -1 -1</clus>
<clus scale="   94.418">  7  8 -1 -1</clus>
<clus scale="  116.767">  2  5  1 -1</clus>
<clus scale="   56.259">  2  5  1 -1</clus>
</clustering>
</event>
<event>
 9    1  0.4067873E-005  0.1366996E+03  0.7546771E-02  0.1219943E+00
          3   -1    0    0  502    0 -0.00000000000E+00  0.00000000000E+00  0.34644878834E+03  0.34644878834E+03  0.00000000000E+00 0. -1.
         21   -1    0    0  501  502  0.00000000000E+00 -0.00000000000E+00 -0.95874303859E+02  0.95874303859E+02  0.00000000000E+00 0. -1.
         23    2    1    2    0    0 -0.57892397042E+02  0.32359470155E+02  0.41800599579E+02  0.12049536566E+03  0.91505071310E+02 0.  0.
        -24    2    1    2    0    0  0.90397061092E+02 -0.10708695605E+03  0.12612984689E+03  0.20576400546E+03  0.82406570457E+02 0.  0.
         13    1    4    4    0    0  0.73438498146E+02 -0.11511892286E+03  0.12767007805E+03  0.18693642834E+03  0.00000000000E+00 0. -1.
        -14    1    4    4    0    0  0.16958562946E+02  0.80319668100E+01 -0.15402311618E+01  0.18827577116E+02  0.00000000000E+00 0.  1.
        -13    1    3    3    0    0 -0.75260668470E+02  0.43987271825E+02  0.46889952242E+02  0.98983412360E+02  0.00000000000E+00 0. -1.
         13    1    3    3    0    0  0.17368271428E+02 -0.11627801670E+02 -0.50893526638E+01  0.21511953296E+02  0.00000000000E+00 0.  1.
          4    1    1    2  501    0 -0.32504664050E+02  0.74727485898E+02  0.82644038013E+02  0.11606372109E+03  0.00000000000E+00 0. -1.
<scales pt_clust_5="13000.00000" pt_clust_6="13000.00000" pt_clust_7="13000.00000" pt_clust_8="13000.00000" pt_clust_9="81.49084"></scales>
<clustering>
<clus scale="   81.491">  2  9  1 -1</clus>
<clus scale="   82.407">  5  6 -1 -1</clus>
<clus scale="   91.505">  7  8 -1 -1</clus>
<clus scale="  130.784">  2  5  1 -1</clus>
<clus scale="   81.491">  2  5  1 -1</clus>
</clustering>
</event>
<event>
 9    1  0.4067873E-005  0.8784034E+02  0.7546771E-02  0.1312216E+00
          1   -1    0    0  502    0 -0.00000000000E+00  0.00000000000E+00  0.78153899468E+03  0.78153899468E+03  0.00000000000E+00 0. -1.
         21   -1    0    0  501  502  0.00000000000E+00 -0.00000000000E+00 -0.15751975438E+02  0.15751975438E+02  0.00000000000E+00 0.  1.
         23    2    1    2    0    0 -0.53959734494E+01 -0.79354744892E+01  0.34536508605E+03  0.35626646338E+03  0.86929062947E+02 0.  0.
        -24    2    1    2    0    0 -0.35970328867E+02 -0.81928068729E+01  0.27025354851E+03  0.28443001071E+03  0.80637856291E+02 0.  0.
         13    1    4    4    0    0 -0.34844451361E+01  0.29074394565E+02  0.17161551341E+03  0.17409579610E+03  0.00000000000E+00 0. -1.
        -14    1    4    4    0    0 -0.32485883731E+02 -0.37267201438E+02  0.98638035092E+02  0.11033421460E+03  0.00000000000E+00 0.  1.
        -13    1    3    3    0    0 -0.42400309033E+02  0.11804239909E+02  0.20959077041E+03  0.21416212860E+03  0.00000000000E+00 0.  1.
         13    1    3    3    0    0  0.37004335583E+02 -0.19739714398E+02  0.13577431563E+03  0.14210433478E+03  0.00000000000E+00 0. -1.
          2    1    1    2  501    0  0.41366302316E+02  0.16128281362E+02  0.15016838469E+03  0.15659449603E+03  0.00000000000E+00 0. -1.
<scales pt_clust_5="13000.00000" pt_clust_6="13000.00000" pt_clust_7="13000.00000" pt_clust_8="13000.00000" pt_clust_9="44.39924"></scales>
<clustering>
<clus scale="   44.399">  2  9  1 -1</clus>
<clus scale="   80.638">  5  6 -1 -1</clus>
<clus scale="   81.619">  2  5  1 -1</clus>
<clus scale="   86.929">  7  8 -1 -1</clus>
<clus scale="   44.399">  2  5  1 -1</clus>
</clustering>
</event>
<event>
 9    1  0.4067873E-005  0.3004664E+03  0.7546771E-02  0.1085008E+00
          3   -1    0    0  502    0 -0.00000000000E+00  0.00000000000E+00  0.29785858657E+03  0.29785858657E+03  0.00000000000E+00 0. -1.
         21   -1    0    0  501  502  0.00000000000E+00 -0.00000000000E+00 -0.38522634937E+03  0.38522634937E+03  0.00000000000E+00 0. -1.
        -24    2    1    2    0    0  0.41502377532E+02 -0.67561933999E+02 -0.50824009189E+02  0.12757121098E+03  0.86048077811E+02 0.  0.
         23    2    1    2    0    0  0.26785956096E+02 -0.14116117437E+03 -0.21417389680E+03  0.27305824130E+03  0.89701619123E+02 0.  0.
         11    1    3    3    0    0  0.55677751855E+02 -0.85907401098E+01 -0.25721761927E+02  0.61930783169E+02  0.00000000000E+00 0. -1.
        -12    1    3    3    0    0 -0.14175374323E+02 -0.58971193889E+02 -0.25102247262E+02  0.65640427813E+02  0.00000000000E+00 0.  1.
        -13    1    4    4    0    0  0.32769835504E+02 -0.98732141617E+01 -0.70335172985E+02  0.78220067986E+02  0.00000000000E+00 0.  1.
         13    1    4    4    0    0 -0.59838794076E+01 -0.13128796021E+03 -0.14383872382E+03  0.19483817331E+03  0.00000000000E+00 0. -1.
          4    1    1    2  501    0 -0.68288333628E+02  0.20872310837E+03  0.17763014320E+03  0.28245548366E+03  0.00000000000E+00 0. -1.
<scales pt_clust_5="13000.00000" pt_clust_6="13000.00000" pt_clust_7="13000.00000" pt_clust_8="13000.00000" pt_clust_9="219.61029"></scales>
<clustering>
<clus scale="   86.048">  5  6 -1 -1</clus>
<clus scale="   89.702">  7  8 -1 -1</clus>
<clus scale="  106.857">  5  7 -1 -1</clus>
<clus scale="  219.610">  2  9  1 -1</clus>
<clus scale="  219.610">  2  5  1 -1</clus>
</clustering>
</event>
<event>
 9    1  0.4067873E-005  0.1050949E+03  0.7546771E-02  0.1274766E+00
         21   -1    0    0  501  502  0.00000000000E+00  0.00000000000E+00  0.82364845643E+02  0.82364845643E+02  0.00000000000E+00 0.  1.
          1   -1    0    0  502    0 -0.00000000000E+00 -0.00000000000E+00 -0.25528493984E+03  0.25528493984E+03  0.00000000000E+00 0. -1.
        -24    2    1    2    0    0  0.39481550202E+02 -0.33133357592E+02 -0.16510601433E+03  0.19086058117E+03  0.80691717571E+02 0.  0.
         23    2    1    2    0    0 -0.17902013896E+02  0.56237693301E+02  0.11788279184E+02  0.10959055923E+03  0.91585844415E+02 0.  0.
         11    1    3    3    0    0  0.53843032188E+02  0.28110346030E+01 -0.71364039504E+02  0.89441601982E+02  0.00000000000E+00 0. -1.
        -12    1    3    3    0    0 -0.14361481986E+02 -0.35944392195E+02 -0.93741974829E+02  0.10141897919E+03  0.00000000000E+00 0.  1.
        -11    1    4    4    0    0  0.31253508125E+02  0.44047848284E+02 -0.91675927868E+01  0.54781743912E+02  0.00000000000E+00 0. -1.
         11    1    4    4    0    0 -0.49155522021E+02  0.12189845017E+02  0.20955871971E+02  0.54808815320E+02  0.00000000000E+00 0.  1.
          2    1    1    2  501    0 -0.21579536306E+02 -0.23104335709E+02 -0.19602359052E+02  0.37198645085E+02  0.00000000000E+00 0. -1.
<scales pt_clust_5="13000.00000" pt_clust_6="13000.00000" pt_clust_7="13000.00000" pt_clust_8="13000.00000" pt_clust_9="31.61468"></scales>
<clustering>
<clus scale="   31.615">  1  9  2 -1</clus>
<clus scale="   80.692">  5  6 -1 -1</clus>
<clus scale="   91.586">  7  8 -1 -1</clus>
<clus scale="   95.750">  2  5  1 -1</clus>
<clus scale="   31.615">  1  5  2 -1</clus>
</clustering>
</event>
<event>
 9    1  0.4067873E-005  0.1495571E+03  0.7546771E-02  0.1204370E+00
          1   -1    0    0  502    0 -0.00000000000E+00  0.00000000000E+00  0.92460081127E+03  0.92460081127E+03  0.00000000000E+00 0. -1.
         21   -1    0    0  501  502  0.00000000000E+00 -0.00000000000E+00 -0.13411499615E+03  0.13411499615E+03  0.00000000000E+00 0.  1.
         23    2    1    2    0    0  0.65983714315E+02 -0.84549763383E+02  0.34125969765E+02  0.14322758520E+03  0.88583555507E+02 0.  0.
        -24    2    1    2    0    0  0.76354338579E+02  0.86075914420E+02  0.49301210406E+01  0.15069473310E+03  0.97188211354E+02 0.  0.
         13    1    4    4    0    0  0.24570001719E+02 -0.15354879263E+02 -0.18565369651E+02  0.34411193701E+02  0.00000000000E+00 0. -1.
        -14    1    4    4    0    0  0.51784336860E+02  0.10143079368E+03  0.23495490692E+02  0.11628353939E+03  0.00000000000E+00 0.  1.
        -11    1    3    3    0    0 -0.19426535717E+02 -0.18463281881E+02  0.21774374217E+02  0.34531238616E+02  0.00000000000E+00 0. -1.
         11    1    3    3    0    0  0.85410250032E+02 -0.66086481501E+02  0.12351595548E+02  0.10869634658E+03  0.00000000000E+00 0.  1.
          2    1    1    2  501    0 -0.14233805289E+03 -0.15261510374E+01  0.75142972431E+03  0.76479348913E+03  0.00000000000E+00 0. -1.
<scales pt_clust_5="13000.00000" pt_clust_6="13000.00000" pt_clust_7="13000.00000" pt_clust_8="13000.00000" pt_clust_9="113.67405"></scales>
<clustering>
<clus scale="   88.584">  7  8 -1 -1</clus>
<clus scale="   97.188">  5  6 -1 -1</clus>
<clus scale="  139.103">  1  7  2 -1</clus>
<clus scale="  113.674">  2  9  1 -1</clus>
<clus scale="  113.674">  2  5  1 -1</clus>
</clustering>
</event>
<event>
 9    1  0.4067873E-005  0.1231042E+03  0.7546771E-02  0.1241098E+00
         21   -1    0    0  501  502  0.00000000000E+00  0.00000000000E+00  0.11220130545E+03  0.11220130545E+03  0.00000000000E+00 0. -1.
          1   -1    0    0  502    0 -0.00000000000E+00 -0.00000000000E+00 -0.21514348902E+03  0.21514348902E+03  0.00000000000E+00 0. -1.
         23    2    1    2    0    0 -0.87275814351E+02 -0.31080421596E+02 -0.99525449167E+02  0.16378289308E+03  0.91304220370E+02 0.  0.
        -24    2    1    2    0    0  0.51114568081E+02  0.33024301406E+02  0.38241171164E+02  0.10836411613E+03  0.81099265958E+02 0.  0.
         11    1    4    4    0    0  0.39749427617E+02  0.60084223886E+02  0.27178007474E+02  0.76998539246E+02  0.00000000000E+00 0. -1.
        -12    1    4    4    0    0  0.11365140464E+02 -0.27059922479E+02  0.11063163690E+02  0.31365576883E+02  0.00000000000E+00 0.  1.
        -11    1    3    3    0    0 -0.29249055174E+02  0.16366613057E+02  0.62974499573E+01  0.34103242185E+02  0.00000000000E+00 0.  1.
         11    1    3    3    0    0 -0.58026759176E+02 -0.47447034653E+02 -0.10582289912E+03  0.12967965090E+03  0.00000000000E+00 0. -1.
          2    1    1    2  501    0  0.36161246270E+02 -0.19438798106E+01 -0.41657905572E+02  0.55197785256E+02  0.00000000000E+00 0. -1.
<scales pt_clust_5="13000.00000" pt_clust_6="13000.00000" pt_clust_7="13000.00000" pt_clust_8="13000.00000" pt_clust_9="36.21347"></scales>
<clustering>
<clus scale="   36.213">  1  9  2 -1</clus>
<clus scale="   81.099">  5  6 -1 -1</clus>
<clus scale="   91.304">  7  8 -1 -1</clus>
<clus scale="  115.738">  1  5  2 -1</clus>
<clus scale="   36.213">  1  5  2 -1</clus>
</clustering>
</event>
<event>
 9    1  0.4067873E-005  0.1051106E+03  0.7546771E-02  0.1275149E+00
         21   -1    0    0  501  502  0.00000000000E+00  0.00000000000E+00  0.15219225681E+03  0.15219225681E+03  0.00000000000E+00 0. -1.
         -4   -1    0    0    0  501 -0.00000000000E+00 -0.00000000000E+00 -0.12475940102E+03  0.12475940102E+03  0.00000000000E+00 0.  1.
        -24    2    1    2    0    0 -0.54731184165E+02  0.33675222350E+02 -0.49097610753E+02  0.11325611157E+03  0.79289648160E+02 0.  0.
         23    2    1    2    0    0  0.22236594860E+02  0.12788306781E+01  0.66278773058E+02  0.11488180458E+03  0.91152902903E+02 0.  0.
         13    1    3    3    0    0 -0.56042303898E+02  0.26042340484E+02 -0.68565213915E+02  0.92304560469E+02  0.00000000000E+00 0. -1.
        -14    1    3    3    0    0  0.13111197332E+01  0.76328818663E+01  0.19467603163E+02  0.20951551099E+02  0.00000000000E+00 0.  1.
        -13    1    4    4    0    0  0.30449185448E+02 -0.34240530405E+02  0.85599920231E+01  0.46613734888E+02  0.00000000000E+00 0.  1.
         13    1    4    4    0    0 -0.82125905875E+01  0.35519361083E+02  0.57718781034E+02  0.68268069696E+02  0.00000000000E+00 0. -1.
         -3    1    1    2    0  502  0.32494589305E+02 -0.34954053029E+02  0.10251693493E+02  0.48813741679E+02  0.00000000000E+00 0.  1.
<scales pt_clust_5="13000.00000" pt_clust_6="13000.00000" pt_clust_7="13000.00000" pt_clust_8="13000.00000" pt_clust_9="47.72509"></scales>
<clustering>
<clus scale="   47.725">  1  9  2 -1</clus>
<clus scale="   79.290">  5  6 -1 -1</clus>
<clus scale="   91.153">  7  8 -1 -1</clus>
<clus scale="   95.006">  2  5  1 -1</clus>
<clus scale="   47.725">  1  5  2 -1</clus>
</clustering>
</event>
<event>
 9    1  0.4067873E-005  0.9690242E+02  0.7546771E-02  0.1289669E+00
         21   -1    0    0  501  502  0.00000000000E+00  0.00000000000E+00  0.12508382009E+03  0.12508382009E+03  0.00000000000E+00 0.  1.
         -4   -1    0    0    0  501 -0.00000000000E+00 -0.00000000000E+00 -0.40496400753E+03  0.40496400753E+03  0.00000000000E+00 0.  1.
         23    2    1    2    0    0 -0.12923097563E+02  0.63993004097E+02 -0.25844473642E+03  0.28072046523E+03  0.88023785367E+02 0.  0.
        -24    2    1    2    0    0  0.19243740047E+02 -0.31192711838E+01 -0.11166308897E+03  0.14030172994E+03  0.82679372296E+02 0.  0.
         13    1    4    4    0    0  0.10360768217E+02  0.18887416805E+02  0.42725118317E+01  0.21962112580E+02  0.00000000000E+00 0. -1.
        -14    1    4    4    0    0  0.88829718304E+01 -0.22006687989E+02 -0.11593560080E+03  0.11833961736E+03  0.00000000000E+00 0.  1.
        -11    1    3    3    0    0 -0.36750878541E+02  0.42835243892E+02 -0.71562495135E+02  0.91140967204E+02  0.00000000000E+00 0.  1.
         11    1    3    3    0    0  0.23827780978E+02  0.21157760205E+02 -0.18688224129E+03  0.18957949803E+03  0.00000000000E+00 0. -1.
         -3    1    1    2    0  502 -0.63206424843E+01 -0.60873732913E+02  0.90227637952E+02  0.10902563245E+03  0.00000000000E+00 0.  1.
<scales pt_clust_5="13000.00000" pt_clust_6="13000.00000" pt_clust_7="13000.00000" pt_clust_8="13000.00000" pt_clust_9="61.20100"></scales>
<clustering>
<clus scale="   61.201">  1  9  2 -1</clus>
<clus scale="   82.679">  5  6 -1 -1</clus>
<clus scale="   88.024">  7  8 -1 -1</clus>
<clus scale="   92.075">  1  5  2 -1</clus>
<clus scale="   61.201">  1  5  2 -1</clus>
</clustering>
</event>
<event>
 9    1  0.4067873E-005  0.1626249E+03  0.7546771E-02  0.1209479E+00
         21   -1    0    0  501  502  0.00000000000E+00  0.00000000000E+00  0.14187940597E+03  0.14187940597E+03  0.00000000000E+00 0. -1.
          1   -1    0    0  502    0 -0.00000000000E+00 -0.00000000000E+00 -0.44286772424E+03  0.44286772424E+03  0.00000000000E+00 0. -1.
         23    2    1    2    0    0  0.21766751776E+00 -0.34382153254E+02 -0.18420955393E+03  0.20816637429E+03  0.90652632518E+02 0.  0.
        -24    2    1    2    0    0  0.78578588311E+02 -0.88710767492E+02 -0.16814532834E+03  0.22166387186E+03  0.82570126761E+02 0.  0.
         13    1    4    4    0    0  0.36975370325E+02 -0.95292602257E+02 -0.12280493091E+03  0.15977768652E+03  0.00000000000E+00 0. -1.
        -14    1    4    4    0    0  0.41603217986E+02  0.65818347642E+01 -0.45340397434E+02  0.61886185334E+02  0.00000000000E+00 0.  1.
        -11    1    3    3    0    0 -0.39857096246E+02 -0.11550341171E+02 -0.43624228462E+02  0.60208569251E+02  0.00000000000E+00 0.  1.
         11    1    3    3    0    0  0.40074763764E+02 -0.22831812083E+02 -0.14058532547E+03  0.14795780504E+03  0.00000000000E+00 0. -1.
          2    1    1    2  501    0 -0.78796255829E+02  0.12309292075E+03  0.51366564011E+02  0.15491688407E+03  0.00000000000E+00 0. -1.
<scales pt_clust_5="13000.00000" pt_clust_6="13000.00000" pt_clust_7="13000.00000" pt_clust_8="13000.00000" pt_clust_9="140.10360"></scales>
<clustering>
<clus scale="   82.570">  5  6 -1 -1</clus>
<clus scale="   90.653">  7  8 -1 -1</clus>
<clus scale="   96.954">  2  7  1 -1</clus>
<clus scale="  140.104">  1  9  2 -1</clus>
<clus scale="  140.104">  1  5  2 -1</clus>
</clustering>
</event>
<event>
 9    1  0.5416526E-005  0.1027625E+03  0.7546771E-02  0.1281323E+00
         21   -1    0    0  501  502  0.00000000000E+00  0.00000000000E+00  0.97536253354E+02  0.97536253354E+02  0.00000000000E+00 0.  1.
          3   -1    0    0  502    0 -0.00000000000E+00 -0.00000000000E+00 -0.30179841311E+03  0.30179841311E+03  0.00000000000E+00 0. -1.
         23    2    1    2    0    0  0.25053090269E+02 -0.39607242490E+02 -0.23957441796E+03  0.26133439122E+03  0.93291860866E+02 0.  0.
        -24    2    1    2    0    0 -0.14177648887E+02  0.97804600227E+01  0.57243819820E+02  0.99413936049E+02  0.79433070235E+02 0.  0.
         11    1    4    4    0    0  0.25321251691E+02 -0.32320103881E+01  0.51437782477E+02  0.57423489484E+02  0.00000000000E+00 0. -1.
        -12    1    4    4    0    0 -0.39498900578E+02  0.13012470411E+02  0.58060373422E+01  0.41990446565E+02  0.00000000000E+00 0.  1.
        -11    1    3    3    0    0 -0.34685831462E+02 -0.56816980334E+01 -0.94224156537E+02  0.10056629789E+03  0.00000000000E+00 0.  1.
         11    1    3    3    0    0  0.59738921731E+02 -0.33925544456E+02 -0.14535026142E+03  0.16076809333E+03  0.00000000000E+00 0. -1.
          4    1    1    2  501    0 -0.10875441382E+02  0.29826782467E+02 -0.21931561615E+02  0.38586339195E+02  0.00000000000E+00 0. -1.
<scales pt_clust_5="13000.00000" pt_clust_6="13000.00000" pt_clust_7="13000.00000" pt_clust_8="13000.00000" pt_clust_9="31.74765"></scales>
<clustering>
<clus scale="   31.748">  1  9  2 -1</clus>
<clus scale="   79.433">  5  6 -1 -1</clus>
<clus scale="   90.368">  1  5  2 -1</clus>
<clus scale="   93.292">  7  8 -1 -1</clus>
<clus scale="   31.748">  1  5  2 -1</clus>
</clustering>
</event>
<event>
 9    1  0.4067873E-005  0.1444718E+03  0.7546771E-02  0.1230314E+00
         -2   -1    0    0    0  501 -0.00000000000E+00  0.00000000000E+00  0.39276144884E+03  0.39276144884E+03  0.00000000000E+00 0.  1.
         21   -1    0    0  501  502  0.00000000000E+00 -0.00000000000E+00 -0.30802339793E+03  0.30802339793E+03  0.00000000000E+00 0.  1.
        -24    2    1    2    0    0  0.25332436438E+02 -0.24378570947E+02  0.30747863451E+03  0.32017744438E+03  0.82063622605E+02 0.  0.
         23    2    1    2    0    0 -0.75524402913E+02 -0.76569968907E+02 -0.12924474181E+02  0.14242125466E+03  0.92465540456E+02 0.  0.
         11    1    3    3    0    0 -0.10405226915E+02 -0.23278237017E+02  0.25925431058E+02  0.36363072495E+02  0.00000000000E+00 0. -1.
        -12    1    3    3    0    0  0.35737663353E+02 -0.11003339301E+01  0.28155320345E+03  0.28381437189E+03  0.00000000000E+00 0.  1.
        -13    1    4    4    0    0 -0.43915175604E+02  0.13330010151E+02 -0.10579603600E+02  0.47097344207E+02  0.00000000000E+00 0. -1.
         13    1    4    4    0    0 -0.31609227309E+02 -0.89899979058E+02 -0.23448705810E+01  0.95323910451E+02  0.00000000000E+00 0.  1.
         -1    1    1    2    0  502  0.50191966476E+02  0.10094853985E+03 -0.20981610942E+03  0.23818614773E+03  0.00000000000E+00 0.  1.
<scales pt_clust_5="13000.00000" pt_clust_6="13000.00000" pt_clust_7="13000.00000" pt_clust_8="13000.00000" pt_clust_9="111.00556"></scales>
<clustering>
<clus scale="   82.064">  5  6 -1 -1</clus>
<clus scale="   89.278">  1  5  2 -1</clus>
<clus scale="   92.466">  7  8 -1 -1</clus>
<clus scale="  111.006">  2  9  1 -1</clus>
<clus scale="  111.006">  2  5  1 -1</clus>
</clustering>
</event>
<event>
 9    1  0.4067873E-005  0.9632238E+02  0.7546771E-02  0.1291679E+00
         -4   -1    0    0    0  501 -0.00000000000E+00  0.00000000000E+00  0.58446140048E+02  0.58446140048E+02  0.00000000000E+00 0.  1.
         21   -1    0    0  501  502  0.00000000000E+00 -0.00000000000E+00 -0.35169858656E+03  0.35169858656E+03  0.00000000000E+00 0.  1.
        -24    2    1    2    0    0 -0.28934605298E+02  0.15428178838E+02 -0.79022826833E+02  0.11764049660E+03  0.80743044243E+02 0.  0.
         23    2    1    2    0    0  0.64517340343E+02  0.61606487965E+01 -0.22462615953E+03  0.24960555226E+03  0.87439003751E+02 0.  0.
         13    1    3    3    0    0 -0.20648925894E+02 -0.22165328719E+02 -0.72528644206E+02  0.78600789870E+02  0.00000000000E+00 0. -1.
        -14    1    3    3    0    0 -0.82856794033E+01  0.37593507556E+02 -0.64941826271E+01  0.39039706730E+02  0.00000000000E+00 0.  1.
        -11    1    4    4    0    0  0.12881614948E+02  0.38848828036E+02 -0.13544818887E+03  0.14149692332E+03  0.00000000000E+00 0.  1.
         11    1    4    4    0    0  0.51635725395E+02 -0.32688179239E+02 -0.89177970661E+02  0.10810862894E+03  0.00000000000E+00 0. -1.
         -3    1    1    2    0  502 -0.35582735045E+02 -0.21588827634E+02  0.10396539846E+02  0.42898677750E+02  0.00000000000E+00 0.  1.
<scales pt_clust_5="13000.00000" pt_clust_6="13000.00000" pt_clust_7="13000.00000" pt_clust_8="13000.00000" pt_clust_9="41.61983"></scales>
<clustering>
<clus scale="   41.620">  2  9  1 -1</clus>
<clus scale="   80.743">  5  6 -1 -1</clus>
<clus scale="   87.439">  7  8 -1 -1</clus>
<clus scale="   90.288">  1  5  2 -1</clus>
<clus scale="   41.620">  2  5  1 -1</clus>
</clustering>
</event>
<event>
 9    1  0.4067873E-005  0.1604874E+03  0.7546771E-02  0.1190060E+00
          1   -1    0    0  502    0 -0.00000000000E+00  0.00000000000E+00  0.25051250464E+03  0.25051250464E+03  0.00000000000E+00 0. -1.
         21   -1    0    0  501  502  0.00000000000E+00 -0.00000000000E+00 -0.20906986466E+03  0.20906986466E+03  0.00000000000E+00 0.  1.
         23    2    1    2    0    0  0.80062052865E+01 -0.13619147486E+03  0.16586422346E+03  0.23401592145E+03  0.92953180273E+02 0.  0.
        -24    2    1    2    0    0 -0.31298449839E+02  0.10311532978E+03 -0.12680079155E+03  0.18504212600E+03  0.80930732488E+02 0.  0.
         11    1    4    4    0    0 -0.39113020406E+02  0.41121317976E+02 -0.17934383203E+02  0.59518343880E+02  0.00000000000E+00 0. -1.
        -12    1    4    4    0    0  0.78145705679E+01  0.61994011801E+02 -0.10886640835E+03  0.12552378212E+03  0.00000000000E+00 0.  1.
        -11    1    3    3    0    0 -0.38492472699E+02 -0.30006175930E+02  0.42260848454E+02  0.64560207253E+02  0.00000000000E+00 0.  1.
         11    1    3    3    0    0  0.46498677985E+02 -0.10618529893E+03  0.12360337501E+03  0.16945571420E+03  0.00000000000E+00 0. -1.
          2    1    1    2  501    0  0.23292244552E+02  0.33076145080E+02  0.23792080726E+01  0.40524321841E+02  0.00000000000E+00 0. -1.
<scales pt_clust_5="13000.00000" pt_clust_6="13000.00000" pt_clust_7="13000.00000" pt_clust_8="13000.00000" pt_clust_9="40.45442"></scales>
<clustering>
<clus scale="   40.454">  2  9  1 -1</clus>
<clus scale="   80.931">  5  6 -1 -1</clus>
<clus scale="   92.953">  7  8 -1 -1</clus>
<clus scale="  153.837">  2  5  1 -1</clus>
<clus scale="   40.454">  2  5  1 -1</clus>
</clustering>
</event>
<event>
 9    1  0.4067873E-005  0.1631740E+03  0.7546771E-02  0.1216500E+00
          1   -1    0    0  502    0 -0.00000000000E+00  0.00000000000E+00  0.25952860341E+03  0.25952860341E+03  0.00000000000E+00 0. -1.
         21   -1    0    0  501  502  0.00000000000E+00 -0.00000000000E+00 -0.16453961950E+03  0.16453961950E+03  0.00000000000E+00 0. -1.
        -24    2    1    2    0    0  0.28686958031E+02 -0.19721394312E+01  0.22587754813E+02  0.85709290550E+02  0.77518029671E+02 0.  0.
         23    2    1    2    0    0 -0.14921039366E+03 -0.44840624967E+02  0.10027583187E+03  0.20609281076E+03  0.90247332176E+02 0.  0.
         13    1    3    3    0    0  0.36406089904E+02  0.31106666177E+02  0.72188441702E+01  0.48426643224E+02  0.00000000000E+00 0. -1.
        -14    1    3    3    0    0 -0.77191318737E+01 -0.33078805608E+02  0.15368910643E+02  0.37282647327E+02  0.00000000000E+00 0.  1.
        -11    1    4    4    0    0 -0.24786010132E+02  0.26774101035E+02  0.20940352726E+02  0.42067768621E+02  0.00000000000E+00 0.  1.
         11    1    4    4    0    0 -0.12442438353E+03 -0.71614726002E+02  0.79335479142E+02  0.16402504213E+03  0.00000000000E+00 0. -1.
          2    1    1    2  501    0  0.12052343563E+03  0.46812764399E+02 -0.27874602768E+02  0.13226612161E+03  0.00000000000E+00 0. -1.
<scales pt_clust_5="13000.00000" pt_clust_6="13000.00000" pt_clust_7="13000.00000" pt_clust_8="13000.00000" pt_clust_9="135.94550"></scales>
<clustering>
<clus scale="   77.518">  5  6 -1 -1</clus>
<clus scale="   82.679">  1  5  2 -1</clus>
<clus scale="   90.247">  7  8 -1 -1</clus>
<clus scale="  135.946">  2  9  1 -1</clus>
<clus scale="  135.946">  2  5  1 -1</clus>
</clustering>
</event>
<event>
 9    1  0.4067873E-005  0.8648400E+02  0.7546771E-02  0.1314833E+00
         -2   -1    0    0    0  501 -0.00000000000E+00  0.00000000000E+00  0.55063358786E+02  0.55063358786E+02  0.00000000000E+00 0.  1.
         21   -1    0    0  501  502  0.00000000000E+00 -0.00000000000E+00 -0.19925927333E+03  0.19925927333E+03  0.00000000000E+00 0. -1.
         23    2    1    2    0    0 -0.72567350613E+01  0.11174384787E+02 -0.17284503069E+02  0.88491559797E+02  0.85758235930E+02 0.  0.
        -24    2    1    2    0    0 -0.16156615362E+02 -0.11194639687E+02 -0.10274058925E+03  0.13217971224E+03  0.80805268827E+02 0.  0.
         11    1    4    4    0    0 -0.27409405716E+02 -0.77741380981E+01 -0.11302232192E+03  0.11655795982E+03  0.00000000000E+00 0. -1.
        -12    1    4    4    0    0  0.11252790353E+02 -0.34205015892E+01  0.10281732672E+02  0.15621752418E+02  0.00000000000E+00 0.  1.
        -13    1    3    3    0    0 -0.41020100410E+02 -0.14275981512E+02 -0.18208908377E+01  0.43471461089E+02  0.00000000000E+00 0. -1.
         13    1    3    3    0    0  0.33763365349E+02  0.25450366298E+02 -0.15463612231E+02  0.45020098707E+02  0.00000000000E+00 0.  1.
         -1    1    1    2    0  502  0.23413350423E+02  0.20254900869E-01 -0.24170822228E+02  0.33651360084E+02  0.00000000000E+00 0.  1.
<scales pt_clust_5="13000.00000" pt_clust_6="13000.00000" pt_clust_7="13000.00000" pt_clust_8="13000.00000" pt_clust_9="23.41336"></scales>
<clustering>
<clus scale="   23.413">  2  9  1 -1</clus>
<clus scale="   80.805">  5  6 -1 -1</clus>
<clus scale="   81.575">  2  5  1 -1</clus>
<clus scale="   85.758">  7  8 -1 -1</clus>
<clus scale="   23.413">  2  5  1 -1</clus>
</clustering>
</event>
<event>
 9    1  0.4067873E-005  0.1136604E+03  0.7546771E-02  0.1268960E+00
         21   -1    0    0  501  502  0.00000000000E+00  0.00000000000E+00  0.33036138087E+03  0.33036138087E+03  0.00000000000E+00 0. -1.
         -2   -1    0    0    0  501 -0.00000000000E+00 -0.00000000000E+00 -0.97839580232E+02  0.97839580232E+02  0.00000000000E+00 0.  1.
        -24    2    1    2    0    0  0.88793414168E+01  0.25031678059E+02  0.46731688412E+02  0.96700532211E+02  0.80384790960E+02 0.  0.
         23    2    1    2    0    0  0.50730098542E+02  0.38974079646E+02  0.21269008375E+03  0.23999288374E+03  0.90922993429E+02 0.  0.
         11    1    3    3    0    0 -0.33140563018E+02  0.20918181370E+02  0.35817264682E+02  0.53091841918E+02  0.00000000000E+00 0. -1.
        -12    1    3    3    0    0  0.42019904435E+02  0.41134966882E+01  0.10914423730E+02  0.43608690293E+02  0.00000000000E+00 0.  1.
        -11    1    4    4    0    0  0.70867779783E+02  0.48706138106E+02  0.18767236974E+03  0.20643509504E+03  0.00000000000E+00 0. -1.
         11    1    4    4    0    0 -0.20137681240E+02 -0.97320584597E+01  0.25017714012E+02  0.33557788694E+02  0.00000000000E+00 0.  1.
         -1    1    1    2    0  502 -0.59609439959E+02 -0.64005757705E+02 -0.26899971530E+02  0.91507545153E+02  0.00000000000E+00 0.  1.
<scales pt_clust_5="13000.00000" pt_clust_6="13000.00000" pt_clust_7="13000.00000" pt_clust_8="13000.00000" pt_clust_9="68.20343"></scales>
<clustering>
<clus scale="   80.385">  5  6 -1 -1</clus>
<clus scale="   84.659">  2  5  1 -1</clus>
<clus scale="   68.203">  1  9  2 -1</clus>
<clus scale="   90.923">  7  8 -1 -1</clus>
<clus scale="   68.203">  1  5  2 -1</clus>
</clustering>
</event>
<event>
 9    1  0.4067873E-005  0.1946567E+03  0.7546771E-02  0.1155069E+00
         21   -1    0    0  501  502  0.00000000000E+00  0.00000000000E+00  0.17138411100E+03  0.17138411100E+03  0.00000000000E+00 0. -1.
          1   -1    0    0  502    0 -0.00000000000E+00 -0.00000000000E+00 -0.27489094534E+03  0.27489094534E+03  0.00000000000E+00 0. -1.
        -24    2    1    2    0    0  0.49578447681E+01 -0.16721818980E+03 -0.44395335077E+02  0.19169650289E+03  0.82402064411E+02 0.  0.
         23    2    1    2    0    0 -0.33836161950E+02  0.17738941264E+03 -0.16925667445E+02  0.20245317208E+03  0.89938418340E+02 0.  0.
         13    1    3    3    0    0 -0.32605366194E+02 -0.12206046227E+03 -0.19235011166E+02  0.12779613456E+03  0.00000000000E+00 0. -1.
        -14    1    3    3    0    0  0.37563210962E+02 -0.45157727532E+02 -0.25160323912E+02  0.63900368332E+02  0.00000000000E+00 0.  1.
        -13    1    4    4    0    0  0.21325337652E+02  0.70074136107E+02 -0.33705020322E+02  0.80629913630E+02  0.00000000000E+00 0.  1.
         13    1    4    4    0    0 -0.55161499603E+02  0.10731527653E+03  0.16779352877E+02  0.12182325845E+03  0.00000000000E+00 0. -1.
          2    1    1    2  501    0  0.28878317182E+02 -0.10171222844E+02 -0.42185831817E+02  0.52125381375E+02  0.00000000000E+00 0. -1.
<scales pt_clust_5="13000.00000" pt_clust_6="13000.00000" pt_clust_7="13000.00000" pt_clust_8="13000.00000" pt_clust_9="30.61718"></scales>
<clustering>
<clus scale="   30.617">  1  9  2 -1</clus>
<clus scale="   82.402">  5  6 -1 -1</clus>
<clus scale="   89.938">  7  8 -1 -1</clus>
<clus scale="  191.291">  2  5  1 -1</clus>
<clus scale="   30.617">  1  5  2 -1</clus>
</clustering>
</event>
<event>
 9    1  0.4067873E-005  0.9200542E+02  0.7546771E-02  0.1304930E+00
         -4   -1    0    0    0  501 -0.00000000000E+00  0.00000000000E+00  0.41159336866E+03  0.41159336866E+03  0.00000000000E+00 0.  1.
         21   -1    0    0  501  502  0.00000000000E+00 -0.00000000000E+00 -0.95128823901E+02  0.95128823901E+02  0.00000000000E+00 0. -1.
        -24    2    1    2    0    0  0.13141558479E+01  0.14003604551E+02  0.33091192768E+03  0.34073716100E+03  0.80008006217E+02 0.  0.
         23    2    1    2    0    0  0.39257738702E+02  0.12112858159E+00 -0.49237129700E+02  0.11070471685E+03  0.91049737352E+02 0.  0.
         11    1    3    3    0    0 -0.37726296306E+02 -0.14032445700E+01  0.12435167078E+03  0.12995607164E+03  0.00000000000E+00 0. -1.
        -12    1    3    3    0    0  0.39040452154E+02  0.15406849120E+02  0.20656025689E+03  0.21078108936E+03  0.00000000000E+00 0.  1.
        -13    1    4    4    0    0 -0.12970810485E+02 -0.20699561258E+02  0.12299621938E+02  0.27349487395E+02  0.00000000000E+00 0.  1.
         13    1    4    4    0    0  0.52228549187E+02  0.20820689840E+02 -0.61536751638E+02  0.83355229457E+02  0.00000000000E+00 0. -1.
         -3    1    1    2    0  502 -0.40571894550E+02 -0.14124733132E+02  0.34789746776E+02  0.55280314707E+02  0.00000000000E+00 0.  1.
<scales pt_clust_5="13000.00000" pt_clust_6="13000.00000" pt_clust_7="13000.00000" pt_clust_8="13000.00000" pt_clust_9="42.96031"></scales>
<clustering>
<clus scale="   42.960">  2  9  1 -1</clus>
<clus scale="   80.008">  5  6 -1 -1</clus>
<clus scale="   81.094">  1  5  2 -1</clus>
<clus scale="   91.050">  7  8 -1 -1</clus>
<clus scale="   42.960">  2  5  1 -1</clus>
</clustering>
</event>
<event>
 9    1  0.4067873E-005  0.1930396E+03  0.7546771E-02  0.1156885E+00
          1   -1    0    0  502    0 -0.00000000000E+00  0.00000000000E+00  0.91475410497E+03  0.91475410497E+03  0.00000000000E+00 0. -1.
         21   -1    0    0  501  502  0.00000000000E+00 -0.00000000000E+00 -0.72751704436E+02  0.72751704436E+02  0.00000000000E+00 0.  1.
        -24    2    1    2    0    0 -0.10963424698E+03 -0.17502109073E+03  0.54750615163E+03  0.59072032771E+03  0.80842248800E+02 0.  0.
         23    2    1    2    0    0  0.95365597419E+02  0.66512691054E+02  0.11975467631E+03  0.19060040863E+03  0.92026072562E+02 0.  0.
         11    1    3    3    0    0  0.11802913087E+02 -0.31923149248E+02  0.78934241281E+02  0.85959354708E+02  0.00000000000E+00 0. -1.
        -12    1    3    3    0    0 -0.12143716007E+03 -0.14309794148E+03  0.46857191035E+03  0.50476097300E+03  0.00000000000E+00 0.  1.
        -11    1    4    4    0    0  0.26170630169E+02  0.37059045322E+02 -0.42576865579E+01  0.45567561032E+02  0.00000000000E+00 0.  1.
         11    1    4    4    0    0  0.69194967250E+02  0.29453645733E+02  0.12401236287E+03  0.14503284760E+03  0.00000000000E+00 0. -1.
          2    1    1    2  501    0  0.14268649566E+02  0.10850839967E+03  0.17474157260E+03  0.20618507306E+03  0.00000000000E+00 0. -1.
<scales pt_clust_5="13000.00000" pt_clust_6="13000.00000" pt_clust_7="13000.00000" pt_clust_8="13000.00000" pt_clust_9="109.44253"></scales>
<clustering>
<clus scale="   80.842">  5  6 -1 -1</clus>
<clus scale="   92.026">  7  8 -1 -1</clus>
<clus scale="  109.443">  2  9  1 -1</clus>
<clus scale="  187.965">  1  5  2 -1</clus>
<clus scale="  109.443">  2  5  1 -1</clus>
</clustering>
</event>
<event>
 9    1  0.4067873E-005  0.4425617E+03  0.7546771E-02  0.1030112E+00
         21   -1    0    0  501  502  0.00000000000E+00  0.00000000000E+00  0.47623127918E+03  0.47623127918E+03  0.00000000000E+00 0.  1.
         -4   -1    0    0    0  501 -0.00000000000E+00 -0.00000000000E+00 -0.54604928637E+03  0.54604928637E+03  0.00000000000E+00 0.  1.
        -24    2    1    2    0    0  0.40569246507E+03  0.20342634774E+03 -0.17205565059E+03  0.49217643948E+03  0.81644629394E+02 0.  0.
         23    2    1    2    0    0 -0.33313154964E+03 -0.23385632197E+03  0.22062210289E+02  0.41776904760E+03  0.91535934581E+02 0.  0.
         13    1    3    3    0    0  0.20948731089E+02 -0.61532346818E+01 -0.10356746007E+01  0.21858276537E+02  0.00000000000E+00 0. -1.
        -14    1    3    3    0    0  0.38474373398E+03  0.20957958242E+03 -0.17101997599E+03  0.47031816294E+03  0.00000000000E+00 0.  1.
        -11    1    4    4    0    0 -0.30354583209E+03 -0.21267208868E+03 -0.77700701392E+01  0.37071534022E+03  0.00000000000E+00 0.  1.
         11    1    4    4    0    0 -0.29585717550E+02 -0.21184233296E+02  0.29832280428E+02  0.47053707386E+02  0.00000000000E+00 0. -1.
         -3    1    1    2    0  502 -0.72560915428E+02  0.30429974231E+02  0.80175433112E+02  0.11233507847E+03  0.00000000000E+00 0.  1.
<scales pt_clust_5="13000.00000" pt_clust_6="13000.00000" pt_clust_7="13000.00000" pt_clust_8="13000.00000" pt_clust_9="78.68335"></scales>
<clustering>
<clus scale="   78.683">  1  9  2 -1</clus>
<clus scale="   81.645">  5  6 -1 -1</clus>
<clus scale="   91.536">  7  8 -1 -1</clus>
<clus scale="  440.622">  2  5  1 -1</clus>
<clus scale="   78.683">  1  5  2 -1</clus>
</clustering>
</event>
<event>
 9    1  0.4067873E-005  0.9806377E+02  0.7546771E-02  0.1291746E+00
         21   -1    0    0  501  502  0.00000000000E+00  0.00000000000E+00  0.40515654710E+02  0.40515654710E+02  0.00000000000E+00 0. -1.
         -4   -1    0    0    0  501 -0.00000000000E+00 -0.00000000000E+00 -0.37902906672E+03  0.37902906672E+03  0.00000000000E+00 0.  1.
        -24    2    1    2    0    0 -0.25068481943E+02  0.10058441560E+02 -0.24574238791E+03  0.25997830603E+03  0.80435050555E+02 0.  0.
         23    2    1    2    0    0  0.40839902583E+02  0.11022948000E+02 -0.67016596756E+02  0.12273635671E+03  0.93720787412E+02 0.  0.
         11    1    3    3    0    0 -0.12220705780E+02  0.32075522099E+02 -0.40196613858E+02  0.52857852144E+02  0.00000000000E+00 0. -1.
        -12    1    3    3    0    0 -0.12847776163E+02 -0.22017080539E+02 -0.20554577405E+03  0.20712045389E+03  0.00000000000E+00 0.  1.
        -11    1    4    4    0    0 -0.16561507147E+02  0.28129411418E+02  0.28192261864E+00  0.32643939500E+02  0.00000000000E+00 0.  1.
         11    1    4    4    0    0  0.57401409729E+02 -0.17106463418E+02 -0.67298519375E+02  0.90092417215E+02  0.00000000000E+00 0. -1.
         -3    1    1    2    0  502 -0.15771420639E+02 -0.21081389560E+02 -0.25754427341E+02  0.36830058681E+02  0.00000000000E+00 0.  1.
<scales pt_clust_5="13000.00000" pt_clust_6="13000.00000" pt_clust_7="13000.00000" pt_clust_8="13000.00000" pt_clust_9="26.32798"></scales>
<clustering>
<clus scale="   26.328">  1  9  2 -1</clus>
<clus scale="   80.435">  5  6 -1 -1</clus>
<clus scale="   85.456">  2  5  1 -1</clus>
<clus scale="   93.721">  7  8 -1 -1</clus>
<clus scale="   26.328">  1  5  2 -1</clus>
</clustering>
</event>
<event>
 9    1  0.4067873E-005  0.1179491E+03  0.7546771E-02  0.1250311E+00
         21   -1    0    0  501  502  0.00000000000E+00  0.00000000000E+00  0.22275675060E+03  0.22275675060E+03  0.00000000000E+00 0.  1.
          1   -1    0    0  502    0 -0.00000000000E+00 -0.00000000000E+00 -0.68260890880E+03  0.68260890880E+03  0.00000000000E+00 0. -1.
         23    2    1    2    0    0  0.48900878619E+02  0.54183956235E+02 -0.61638803186E+03  0.62728289245E+03  0.90677584323E+02 0.  0.
        -24    2    1    2    0    0 -0.87967510498E+02 -0.10961638850E+03  0.99886966441E+02  0.18971956780E+03  0.79133259830E+02 0.  0.
         13    1    4    4    0    0  0.10214098142E+02 -0.33427085887E+02  0.35243406528E+02  0.49636635416E+02  0.00000000000E+00 0. -1.
        -14    1    4    4    0    0 -0.98181608639E+02 -0.76189302616E+02  0.64643559913E+02  0.14008293239E+03  0.00000000000E+00 0.  1.
        -11    1    3    3    0    0  0.59379782843E+02  0.73405794415E+02 -0.49018240871E+03  0.49919251103E+03  0.00000000000E+00 0. -1.
         11    1    3    3    0    0 -0.10478904224E+02 -0.19221838180E+02 -0.12620562315E+03  0.12809038142E+03  0.00000000000E+00 0.  1.
          2    1    1    2  501    0  0.39066631879E+02  0.55432432268E+02  0.56648907225E+02  0.88363199146E+02  0.00000000000E+00 0. -1.
<scales pt_clust_5="13000.00000" pt_clust_6="13000.00000" pt_clust_7="13000.00000" pt_clust_8="13000.00000" pt_clust_9="67.81560"></scales>
<clustering>
<clus scale="   67.816">  1  9  2 -1</clus>
<clus scale="   79.133">  5  6 -1 -1</clus>
<clus scale="   90.678">  7  8 -1 -1</clus>
<clus scale="  109.324">  1  5  2 -1</clus>
<clus scale="   67.816">  1  5  2 -1</clus>
</clustering>
</event>
<event>
 9    1  0.4067873E-005  0.9799575E+02  0.7546771E-02  0.1290270E+00
         21   -1    0    0  501  502  0.00000000000E+00  0.00000000000E+00  0.61132411226E+02  0.61132411226E+02  0.00000000000E+00 0.  1.
          1   -1    0    0  502    0 -0.00000000000E+00 -0.00000000000E+00 -0.55013406836E+03  0.55013406836E+03  0.00000000000E+00 0. -1.
         23    2    1    2    0    0 -0.31379497253E+02  0.54087113124E+01 -0.24362497302E+03  0.26222202657E+03  0.91615155584E+02 0.  0.
        -24    2    1    2    0    0  0.52923056942E+02  0.34311688786E+02 -0.31133907065E+01  0.10260310405E+03  0.80867557251E+02 0.  0.
         13    1    4    4    0    0  0.31634953261E+02 -0.22789369622E+02  0.10037288210E+02  0.40260064459E+02  0.00000000000E+00 0. -1.
        -14    1    4    4    0    0  0.21288103681E+02  0.57101058408E+02 -0.13150678916E+02  0.62343039593E+02  0.00000000000E+00 0.  1.
        -11    1    3    3    0    0 -0.61078696769E+02 -0.50183460928E+01 -0.19406069042E+03  0.20350759830E+03  0.00000000000E+00 0. -1.
         11    1    3    3    0    0  0.29699199516E+02  0.10427057405E+02 -0.49564282595E+02  0.58714428271E+02  0.00000000000E+00 0.  1.
          2    1    1    2  501    0 -0.21543559690E+02 -0.39720400099E+02 -0.24226329341E+03  0.24644134897E+03  0.00000000000E+00 0. -1.
<scales pt_clust_5="13000.00000" pt_clust_6="13000.00000" pt_clust_7="13000.00000" pt_clust_8="13000.00000" pt_clust_9="45.18669"></scales>
<clustering>
<clus scale="   45.187">  1  9  2 -1</clus>
<clus scale="   80.868">  5  6 -1 -1</clus>
<clus scale="   88.031">  1  5  2 -1</clus>
<clus scale="   91.615">  7  8 -1 -1</clus>
<clus scale="   45.187">  1  5  2 -1</clus>
</clustering>
</event>
<event>
 9    1  0.4067873E-005  0.1266256E+03  0.7546771E-02  0.1239057E+00
         21   -1    0    0  501  502  0.00000000000E+00  0.00000000000E+00  0.64705848618E+03  0.64705848618E+03  0.00000000000E+00 0. -1.
         -2   -1    0    0    0  501 -0.00000000000E+00 -0.00000000000E+00 -0.67805886805E+02  0.67805886805E+02  0.00000000000E+00 0.  1.
        -24    2    1    2    0    0  0.10005761581E+03 -0.23204323976E+02  0.57373139056E+02  0.14250449580E+03  0.80410739992E+02 0.  0.
         23    2    1    2    0    0 -0.42139382188E+02  0.27204337749E+01  0.10755309475E+03  0.15350375780E+03  0.10105744493E+03 0.  0.
         13    1    3    3    0    0  0.10871723762E+03 -0.57816250544E+01  0.38720229514E+02  0.11555137869E+03  0.00000000000E+00 0. -1.
        -14    1    3    3    0    0 -0.86596218104E+01 -0.17422698922E+02  0.18652909543E+02  0.26953117112E+02  0.00000000000E+00 0.  1.
        -13    1    4    4    0    0  0.29557717893E+01 -0.44286033129E+02  0.43301346114E+02  0.62008030871E+02  0.00000000000E+00 0. -1.
         13    1    4    4    0    0 -0.45095153977E+02  0.47006466904E+02  0.64251748639E+02  0.91495726929E+02  0.00000000000E+00 0.  1.
         -1    1    1    2    0  502 -0.57918233620E+02  0.20483890201E+02  0.41432636556E+03  0.41885611938E+03  0.00000000000E+00 0.  1.
<scales pt_clust_5="13000.00000" pt_clust_6="13000.00000" pt_clust_7="13000.00000" pt_clust_8="13000.00000" pt_clust_9="61.43380"></scales>
<clustering>
<clus scale="   61.434">  1  9  2 -1</clus>
<clus scale="   80.411">  5  6 -1 -1</clus>
<clus scale="  101.057">  7  8 -1 -1</clus>
<clus scale="  110.848">  2  5  1 -1</clus>
<clus scale="   61.434">  1  5  2 -1</clus>
</clustering>
</event>
<event>
 9    1  0.4067873E-005  0.9236454E+02  0.7546771E-02  0.1302222E+00
         21   -1    0    0  501  502  0.00000000000E+00  0.00000000000E+00  0.38001732738E+02  0.38001732738E+02  0.00000000000E+00 0.  1.
         -2   -1    0    0    0  501 -0.00000000000E+00 -0.00000000000E+00 -0.44271385058E+03  0.44271385058E+03  0.00000000000E+00 0.  1.
        -24    2    1    2    0    0 -0.84610217865E+01 -0.25057730997E+02 -0.24500413087E+03  0.25939191726E+03  0.80979403709E+02 0.  0.
         23    2    1    2    0    0 -0.16969219134E+02  0.19996257055E+02 -0.16965077972E+03  0.19355363185E+03  0.89408146424E+02 0.  0.
         13    1    3    3    0    0  0.32342920154E+02 -0.29875389091E+02 -0.13205469329E+03  0.13920145609E+03  0.00000000000E+00 0. -1.
        -14    1    3    3    0    0 -0.40803941940E+02  0.48176580935E+01 -0.11294943759E+03  0.12019046118E+03  0.00000000000E+00 0.  1.
        -11    1    4    4    0    0 -0.48029262269E+02 -0.32521716789E+01 -0.58119048033E+02  0.75466617779E+02  0.00000000000E+00 0.  1.
         11    1    4    4    0    0  0.31060043135E+02  0.23248428734E+02 -0.11153173169E+03  0.11808701407E+03  0.00000000000E+00 0. -1.
         -1    1    1    2    0  502  0.25430240921E+02  0.50614739418E+01  0.99427927568E+01  0.27770034201E+02  0.00000000000E+00 0.  1.
<scales pt_clust_5="13000.00000" pt_clust_6="13000.00000" pt_clust_7="13000.00000" pt_clust_8="13000.00000" pt_clust_9="25.92905"></scales>
<clustering>
<clus scale="   25.929">  1  9  2 -1</clus>
<clus scale="   80.979">  5  6 -1 -1</clus>
<clus scale="   84.232">  2  5  1 -1</clus>
<clus scale="   89.408">  7  8 -1 -1</clus>
<clus scale="   25.929">  1  5  2 -1</clus>
</clustering>
</event>
<event>
 9    1  0.4067873E-005  0.1023683E+03  0.7546771E-02  0.1282864E+00
          1   -1    0    0  502    0 -0.00000000000E+00  0.00000000000E+00  0.41789545233E+02  0.41789545233E+02  0.00000000000E+00 0. -1.
         21   -1    0    0  501  502  0.00000000000E+00 -0.00000000000E+00 -0.56753647642E+03  0.56753647642E+03  0.00000000000E+00 0. -1.
         23    2    1    2    0    0  0.27613572099E+02 -0.16801244080E+02 -0.64676233335E+02  0.11964896488E+03  0.95331361434E+02 0.  0.
        -24    2    1    2    0    0 -0.64022648049E+02 -0.26396661559E+02 -0.26131512734E+03  0.28208619036E+03  0.80568851385E+02 0.  0.
         13    1    4    4    0    0 -0.81945635225E+02 -0.25456186106E+02 -0.18883286574E+03  0.20741493613E+03  0.00000000000E+00 0. -1.
        -14    1    4    4    0    0  0.17922987177E+02 -0.94047545249E+00 -0.72482261594E+02  0.74671254236E+02  0.00000000000E+00 0.  1.
        -11    1    3    3    0    0 -0.18365570934E+02 -0.43309417716E+02 -0.24197789811E+02  0.52901161522E+02  0.00000000000E+00 0. -1.
         11    1    3    3    0    0  0.45979143033E+02  0.26508173637E+02 -0.40478443524E+02  0.66747803363E+02  0.00000000000E+00 0.  1.
          2    1    1    2  501    0  0.36409075950E+02  0.43197905638E+02 -0.19975557051E+03  0.20759086640E+03  0.00000000000E+00 0. -1.
<scales pt_clust_5="13000.00000" pt_clust_6="13000.00000" pt_clust_7="13000.00000" pt_clust_8="13000.00000" pt_clust_9="56.49495"></scales>
<clustering>
<clus scale="   56.495">  2  9  1 -1</clus>
<clus scale="   80.569">  5  6 -1 -1</clus>
<clus scale="   88.784">  2  5  1 -1</clus>
<clus scale="   95.331">  7  8 -1 -1</clus>
<clus scale="   56.495">  2  5  1 -1</clus>
</clustering>
</event>
<event>
 9    1  0.4067873E-005  0.9989210E+02  0.7546771E-02  0.1285575E+00
         21   -1    0    0  501  502  0.00000000000E+00  0.00000000000E+00  0.40595368915E+03  0.40595368915E+03  0.00000000000E+00 0.  1.
          3   -1    0    0  502    0 -0.00000000000E+00 -0.00000000000E+00 -0.11219531488E+03  0.11219531488E+03  0.00000000000E+00 0. -1.
        -24    2    1    2    0    0  0.37752934373E+02 -0.11985187720E+02 -0.77080227164E+02  0.11903851446E+03  0.81608073914E+02 0.  0.
         23    2    1    2    0    0 -0.32751287735E+02  0.35510828696E+02  0.35619234475E+03  0.37095049868E+03  0.91638530131E+02 0.  0.
         11    1    3    3    0    0 -0.21589931438E+02 -0.17144846446E+02 -0.40966345714E+02  0.49379270755E+02  0.00000000000E+00 0. -1.
        -12    1    3    3    0    0  0.59342865811E+02  0.51596587254E+01 -0.36113881450E+02  0.69659243710E+02  0.00000000000E+00 0.  1.
        -11    1    4    4    0    0 -0.55421572134E+02  0.49132507483E+02  0.29738999689E+03  0.30647408406E+03  0.00000000000E+00 0.  1.
         11    1    4    4    0    0  0.22670284400E+02 -0.13621678787E+02  0.58802347866E+02  0.64476414620E+02  0.00000000000E+00 0. -1.
          4    1    1    2  501    0 -0.50016466382E+01 -0.23525640976E+02  0.14646256679E+02  0.28159990893E+02  0.00000000000E+00 0. -1.
<scales pt_clust_5="13000.00000" pt_clust_6="13000.00000" pt_clust_7="13000.00000" pt_clust_8="13000.00000" pt_clust_9="24.05146"></scales>
<clustering>
<clus scale="   24.051">  1  9  2 -1</clus>
<clus scale="   81.608">  5  6 -1 -1</clus>
<clus scale="   90.778">  2  5  1 -1</clus>
<clus scale="   91.639">  7  8 -1 -1</clus>
<clus scale="   24.051">  1  5  2 -1</clus>
</clustering>
</event>
<event>
 9    1  0.4067873E-005  0.1812842E+03  0.7546771E-02  0.1192972E+00
         -2   -1    0    0    0  501 -0.00000000000E+00  0.00000000000E+00  0.38309587728E+03  0.38309587728E+03  0.00000000000E+00 0.  1.
         21   -1    0    0  501  502  0.00000000000E+00 -0.00000000000E+00 -0.26006028722E+03  0.26006028722E+03  0.00000000000E+00 0.  1.
        -24    2    1    2    0    0  0.14413891849E+02  0.15160764980E+02 -0.61977252602E+02  0.11773354238E+03  0.97889724125E+02 0.  0.
         23    2    1    2    0    0  0.12714113099E+03  0.87076126334E+02 -0.89781240239E+02  0.19984314727E+03  0.90163703595E+02 0.  0.
         13    1    3    3    0    0  0.51873584277E+02  0.23603477536E+02 -0.18940156809E+02  0.60055994184E+02  0.00000000000E+00 0. -1.
        -14    1    3    3    0    0 -0.37459692428E+02 -0.84427125558E+01 -0.43037095793E+02  0.57677548200E+02  0.00000000000E+00 0.  1.
        -11    1    4    4    0    0  0.41346323814E+02  0.44072881275E+02  0.10166657887E+02  0.61280488652E+02  0.00000000000E+00 0.  1.
         11    1    4    4    0    0  0.85794807180E+02  0.43003245059E+02 -0.99947898126E+02  0.13856265862E+03  0.00000000000E+00 0. -1.
         -1    1    1    2    0  502 -0.14155502284E+03 -0.10223689131E+03  0.27479408291E+03  0.32557947484E+03  0.00000000000E+00 0.  1.
<scales pt_clust_5="13000.00000" pt_clust_6="13000.00000" pt_clust_7="13000.00000" pt_clust_8="13000.00000" pt_clust_9="157.27206"></scales>
<clustering>
<clus scale="   90.164">  7  8 -1 -1</clus>
<clus scale="   97.890">  5  6 -1 -1</clus>
<clus scale="  100.100">  1  5  2 -1</clus>
<clus scale="  157.272">  2  9  1 -1</clus>
<clus scale="  157.272">  2  5  1 -1</clus>
</clustering>
</event>
<event>
 9    1  0.4067873E-005  0.1149503E+03  0.7546771E-02  0.1254732E+00
         21   -1    0    0  501  502  0.00000000000E+00  0.00000000000E+00  0.65616711195E+03  0.65616711195E+03  0.00000000000E+00 0.  1.
          1   -1    0    0  502    0 -0.00000000000E+00 -0.00000000000E+00 -0.71037787184E+02  0.71037787184E+02  0.00000000000E+00 0. -1.
         23    2    1    2    0    0 -0.36804187808E+02  0.57796089481E+02 -0.77944836573E+01  0.11329244116E+03  0.89885966919E+02 0.  0.
        -24    2    1    2    0    0  0.54868109134E+02 -0.80717427203E+02  0.42703672700E+03  0.44547785120E+03  0.81020597671E+02 0.  0.
         13    1    4    4    0    0  0.42636659345E+02 -0.55647179708E+02  0.13504445866E+03  0.15215616696E+03  0.00000000000E+00 0. -1.
        -14    1    4    4    0    0  0.12231449789E+02 -0.25070247495E+02  0.29199226834E+03  0.29332168424E+03  0.00000000000E+00 0.  1.
        -13    1    3    3    0    0 -0.32279856169E+02  0.81984081205E+02 -0.95294633544E+01  0.88623864490E+02  0.00000000000E+00 0. -1.
         13    1    3    3    0    0 -0.45243316392E+01 -0.24187991724E+02  0.17349796971E+01  0.24668576670E+02  0.00000000000E+00 0.  1.
          2    1    1    2  501    0 -0.18063921326E+02  0.22921337722E+02  0.16588708143E+03  0.16843460678E+03  0.00000000000E+00 0. -1.
<scales pt_clust_5="13000.00000" pt_clust_6="13000.00000" pt_clust_7="13000.00000" pt_clust_8="13000.00000" pt_clust_9="29.18378"></scales>
<clustering>
<clus scale="   29.184">  1  9  2 -1</clus>
<clus scale="   81.021">  5  6 -1 -1</clus>
<clus scale="   89.886">  7  8 -1 -1</clus>
<clus scale="  108.159">  1  5  2 -1</clus>
<clus scale="   29.184">  1  5  2 -1</clus>
</clustering>
</event>
<event>
 9    1  0.4067873E-005  0.9494569E+02  0.7546771E-02  0.1297403E+00
         21   -1    0    0  501  502  0.00000000000E+00  0.00000000000E+00  0.14968149328E+03  0.14968149328E+03  0.00000000000E+00 0.  1.
         -2   -1    0    0    0  501 -0.00000000000E+00 -0.00000000000E+00 -0.13150405953E+03  0.13150405953E+03  0.00000000000E+00 0.  1.
        -24    2    1    2    0    0  0.59710624600E+01  0.53885477670E+02 -0.11925580510E+02  0.98291153305E+02  0.81114937323E+02 0.  0.
         23    2    1    2    0    0  0.94649731450E+01  0.23838363507E+02  0.39498703202E+02  0.10309749698E+03  0.91712011411E+02 0.  0.
         11    1    3    3    0    0 -0.27344764669E+02  0.12101852867E+02  0.20061995418E+02  0.36009369028E+02  0.00000000000E+00 0. -1.
        -12    1    3    3    0    0  0.33315827129E+02  0.41783624804E+02 -0.31987575928E+02  0.62281784277E+02  0.00000000000E+00 0.  1.
        -13    1    4    4    0    0 -0.28407152845E+02 -0.43945637979E+01  0.47172498423E+02  0.55240593147E+02  0.00000000000E+00 0.  1.
         13    1    4    4    0    0  0.37872125990E+02  0.28232927305E+02 -0.76737952206E+01  0.47856903831E+02  0.00000000000E+00 0. -1.
         -1    1    1    2    0  502 -0.15436035605E+02 -0.77723841177E+02 -0.93956889451E+01  0.79796902530E+02  0.00000000000E+00 0.  1.
<scales pt_clust_5="13000.00000" pt_clust_6="13000.00000" pt_clust_7="13000.00000" pt_clust_8="13000.00000" pt_clust_9="79.24186"></scales>
<clustering>
<clus scale="   79.242">  1  9  2 -1</clus>
<clus scale="   81.115">  5  6 -1 -1</clus>
<clus scale="   84.754">  2  5  1 -1</clus>
<clus scale="   91.712">  7  8 -1 -1</clus>
<clus scale="   79.242">  1  5  2 -1</clus>
</clustering>
</event>
<event>
 9    1  0.4067873E-005  0.1143081E+03  0.7546771E-02  0.1254521E+00
         21   -1    0    0  501  502  0.00000000000E+00  0.00000000000E+00  0.27768142934E+03  0.27768142934E+03  0.00000000000E+00 0.  1.
         -2   -1    0    0    0  501 -0.00000000000E+00 -0.00000000000E+00 -0.58898145009E+02  0.58898145009E+02  0.00000000000E+00 0.  1.
        -24    2    1    2    0    0  0.68887038004E+02  0.42117113438E+02  0.81099780715E+02  0.14282299067E+03  0.85451489063E+02 0.  0.
         23    2    1    2    0    0 -0.55831449908E+02 -0.16691568264E+02  0.11300647542E+03  0.15599598982E+03  0.90379898774E+02 0.  0.
         11    1    3    3    0    0  0.34505757378E+02 -0.19914684375E+02  0.53533745313E+02  0.66731580479E+02  0.00000000000E+00 0. -1.
        -12    1    3    3    0    0  0.34381280627E+02  0.62031797813E+02  0.27566035403E+02  0.76091410194E+02  0.00000000000E+00 0.  1.
        -11    1    4    4    0    0 -0.73567444793E+02  0.63916973053E+01  0.99491465582E+02  0.12390147074E+03  0.00000000000E+00 0.  1.
         11    1    4    4    0    0  0.17735994886E+02 -0.23083265569E+02  0.13515009839E+02  0.32094519078E+02  0.00000000000E+00 0. -1.
         -1    1    1    2    0  502 -0.13055588097E+02 -0.25425545174E+02  0.24677028190E+02  0.37760593854E+02  0.00000000000E+00 0.  1.
<scales pt_clust_5="13000.00000" pt_clust_6="13000.00000" pt_clust_7="13000.00000" pt_clust_8="13000.00000" pt_clust_9="28.58158"></scales>
<clustering>
<clus scale="   28.582">  1  9  2 -1</clus>
<clus scale="   85.451">  5  6 -1 -1</clus>
<clus scale="   90.380">  7  8 -1 -1</clus>
<clus scale="  110.453">  2  5  1 -1</clus>
<clus scale="   28.582">  1  5  2 -1</clus>
</clustering>
</event>
<event>
 9    1  0.4067873E-005  0.1245707E+03  0.7546771E-02  0.1237154E+00
         21   -1    0    0  501  502  0.00000000000E+00  0.00000000000E+00  0.39509295941E+03  0.39509295941E+03  0.00000000000E+00 0.  1.
          1   -1    0    0  502    0 -0.00000000000E+00 -0.00000000000E+00 -0.90112710141E+02  0.90112710141E+02  0.00000000000E+00 0. -1.
        -24    2    1    2    0    0 -0.50875445222E+02 -0.71674318933E+02 -0.22464804755E+02  0.12156260941E+03  0.80915274416E+02 0.  0.
         23    2    1    2    0    0  0.73576608740E+02  0.72426003104E+02  0.26419188471E+03  0.29643538734E+03  0.86125162659E+02 0.  0.
         13    1    3    3    0    0 -0.55772654038E+02 -0.50452815737E+02 -0.47054891653E+02  0.88714364015E+02  0.00000000000E+00 0. -1.
        -14    1    3    3    0    0  0.48972088161E+01 -0.21221503196E+02  0.24590086898E+02  0.32848245399E+02  0.00000000000E+00 0.  1.
        -11    1    4    4    0    0  0.55543135048E+02 -0.15560076657E+00  0.77741609223E+02  0.95544868346E+02  0.00000000000E+00 0. -1.
         11    1    4    4    0    0  0.18033473692E+02  0.72581603870E+02  0.18645027549E+03  0.20089051900E+03  0.00000000000E+00 0.  1.
          2    1    1    2  501    0 -0.22701163518E+02 -0.75168417034E+00  0.63253169309E+02  0.67207672790E+02  0.00000000000E+00 0. -1.
<scales pt_clust_5="13000.00000" pt_clust_6="13000.00000" pt_clust_7="13000.00000" pt_clust_8="13000.00000" pt_clust_9="22.71361"></scales>
<clustering>
<clus scale="   22.714">  1  9  2 -1</clus>
<clus scale="   80.915">  5  6 -1 -1</clus>
<clus scale="   86.125">  7  8 -1 -1</clus>
<clus scale="  121.027">  2  5  1 -1</clus>
<clus scale="   22.714">  1  5  2 -1</clus>
</clustering>
</event>
<event>
 9    1  0.4067873E-005  0.9379559E+02  0.7546771E-02  0.1299479E+00
         21   -1    0    0  501  502  0.00000000000E+00  0.00000000000E+00  0.84357463029E+02  0.84357463029E+02  0.00000000000E+00 0.  1.
         -2   -1    0    0    0  501 -0.00000000000E+00 -0.00000000000E+00 -0.13750607984E+03  0.13750607984E+03  0.00000000000E+00 0.  1.
         23    2    1    2    0    0 -0.13138284709E+02 -0.41323284656E+00 -0.16228834449E+02  0.93405480892E+02  0.91040779361E+02 0.  0.
        -24    2    1    2    0    0  0.30676190416E+02  0.13986168100E+02 -0.34397287860E+01  0.88299417882E+02  0.81537193401E+02 0.  0.
         11    1    4    4    0    0  0.21360649103E+02  0.18712336893E+01 -0.41815455229E+02  0.46992671148E+02  0.00000000000E+00 0. -1.
        -12    1    4    4    0    0  0.93155413123E+01  0.12114934411E+02  0.38375726443E+02  0.41306746734E+02  0.00000000000E+00 0.  1.
        -13    1    3    3    0    0  0.22678894795E+02  0.13728273355E+02 -0.40120606255E+02  0.48088052619E+02  0.00000000000E+00 0. -1.
         13    1    3    3    0    0 -0.35817179504E+02 -0.14141506202E+02  0.23891771806E+02  0.45317428273E+02  0.00000000000E+00 0.  1.
         -1    1    1    2    0  502 -0.17537905706E+02 -0.13572935254E+02 -0.33480053572E+02  0.40158644091E+02  0.00000000000E+00 0.  1.
<scales pt_clust_5="13000.00000" pt_clust_6="13000.00000" pt_clust_7="13000.00000" pt_clust_8="13000.00000" pt_clust_9="22.17664"></scales>
<clustering>
<clus scale="   22.177">  1  9  2 -1</clus>
<clus scale="   81.537">  5  6 -1 -1</clus>
<clus scale="   84.602">  1  5  2 -1</clus>
<clus scale="   91.041">  7  8 -1 -1</clus>
<clus scale="   22.177">  1  5  2 -1</clus>
</clustering>
</event>
<event>
 9    1  0.4067873E-005  0.1016251E+03  0.7546771E-02  0.1284293E+00
          3   -1    0    0  502    0 -0.00000000000E+00  0.00000000000E+00  0.45625381780E+02  0.45625381780E+02  0.00000000000E+00 0. -1.
         21   -1    0    0  501  502  0.00000000000E+00 -0.00000000000E+00 -0.41210094537E+03  0.41210094537E+03  0.00000000000E+00 0. -1.
        -24    2    1    2    0    0  0.17147851583E+02  0.12138655152E+02 -0.10261317098E+03  0.13092075971E+03  0.78545443555E+02 0.  0.
         23    2    1    2    0    0 -0.79827063483E+02  0.15910370922E+02 -0.17925489111E+03  0.21783832108E+03  0.93250834720E+02 0.  0.
         11    1    3    3    0    0 -0.29497095955E+02 -0.66152465696E+01 -0.47677667774E+02  0.56453522134E+02  0.00000000000E+00 0. -1.
        -12    1    3    3    0    0  0.46644947538E+02  0.18753901722E+02 -0.54935503204E+02  0.74467237581E+02  0.00000000000E+00 0.  1.
        -13    1    4    4    0    0  0.10383919634E+02 -0.20212430546E+02 -0.15790853745E+02  0.27671631638E+02  0.00000000000E+00 0.  1.
         13    1    4    4    0    0 -0.90210983117E+02  0.36122801467E+02 -0.16346403736E+03  0.19016668944E+03  0.00000000000E+00 0. -1.
          4    1    1    2  501    0  0.62679211900E+02 -0.28049026074E+02 -0.84607501501E+02  0.10896724636E+03  0.00000000000E+00 0. -1.
<scales pt_clust_5="13000.00000" pt_clust_6="13000.00000" pt_clust_7="13000.00000" pt_clust_8="13000.00000" pt_clust_9="68.66903"></scales>
<clustering>
<clus scale="   68.669">  2  9  1 -1</clus>
<clus scale="   78.545">  5  6 -1 -1</clus>
<clus scale="   88.325">  1  5  2 -1</clus>
<clus scale="   93.251">  7  8 -1 -1</clus>
<clus scale="   68.669">  2  5  1 -1</clus>
</clustering>
</event>
<event>
 9    1  0.4067873E-005  0.1229139E+03  0.7546771E-02  0.1258432E+00
          1   -1    0    0  502    0 -0.00000000000E+00  0.00000000000E+00  0.83908153034E+03  0.83908153034E+03  0.00000000000E+00 0. -1.
         21   -1    0    0  501  502  0.00000000000E+00 -0.00000000000E+00 -0.30921193684E+02  0.30921193684E+02  0.00000000000E+00 0. -1.
        -24    2    1    2    0    0 -0.14493702256E+00  0.42374578455E+01  0.38069826984E+03  0.38947793374E+03  0.82121319758E+02 0.  0.
         23    2    1    2    0    0  0.84363371148E+02 -0.10158341682E+02  0.32615320788E+03  0.34864876360E+03  0.89217011035E+02 0.  0.
         13    1    3    3    0    0 -0.15400766919E+02 -0.30192461625E+02  0.86896921204E+02  0.93272950396E+02  0.00000000000E+00 0. -1.
        -14    1    3    3    0    0  0.15255829897E+02  0.34429919470E+02  0.29380134863E+03  0.29620498335E+03  0.00000000000E+00 0.  1.
        -13    1    4    4    0    0  0.39849793817E+02  0.39771139490E+02  0.15183818331E+03  0.16194006149E+03  0.00000000000E+00 0. -1.
         13    1    4    4    0    0  0.44513577331E+02 -0.49929481172E+02  0.17431502456E+03  0.18670870211E+03  0.00000000000E+00 0.  1.
          2    1    1    2  501    0 -0.84218434125E+02  0.59208838364E+01  0.10130885894E+03  0.13187602667E+03  0.00000000000E+00 0. -1.
<scales pt_clust_5="13000.00000" pt_clust_6="13000.00000" pt_clust_7="13000.00000" pt_clust_8="13000.00000" pt_clust_9="84.54669"></scales>
<clustering>
<clus scale="   82.121">  5  6 -1 -1</clus>
<clus scale="   82.231">  1  5  2 -1</clus>
<clus scale="   84.547">  2  9  1 -1</clus>
<clus scale="   89.217">  7  8 -1 -1</clus>
<clus scale="   84.547">  2  5  1 -1</clus>
</clustering>
</event>
<event>
 9    1  0.4067873E-005  0.1028331E+03  0.7546771E-02  0.1279481E+00
         21   -1    0    0  501  502  0.00000000000E+00  0.00000000000E+00  0.11886644778E+03  0.11886644778E+03  0.00000000000E+00 0.  1.
         -2   -1    0    0    0  501 -0.00000000000E+00 -0.00000000000E+00 -0.44390231133E+03  0.44390231133E+03  0.00000000000E+00 0.  1.
        -24    2    1    2    0    0  0.44470582021E+02 -0.27169399967E+02 -0.35843195548E+03  0.37108979271E+03  0.80736352336E+02 0.  0.
         23    2    1    2    0    0 -0.30617953831E+02 -0.12772637807E+02 -0.41404709750E+02  0.10575794674E+03  0.91486577898E+02 0.  0.
         13    1    3    3    0    0 -0.12264641778E+02 -0.24947192469E+02 -0.47669961969E+02  0.55183413488E+02  0.00000000000E+00 0. -1.
        -14    1    3    3    0    0  0.56735223799E+02 -0.22222074977E+01 -0.31076199351E+03  0.31590637922E+03  0.00000000000E+00 0.  1.
        -11    1    4    4    0    0 -0.63216051717E+02 -0.11706188234E+02 -0.31995137207E+02  0.71812205387E+02  0.00000000000E+00 0. -1.
         11    1    4    4    0    0  0.32598097886E+02 -0.10664495734E+01 -0.94095725426E+01  0.33945741351E+02  0.00000000000E+00 0.  1.
         -1    1    1    2    0  502 -0.13852628190E+02  0.39942037774E+02  0.74800801673E+02  0.85921019665E+02  0.00000000000E+00 0.  1.
<scales pt_clust_5="13000.00000" pt_clust_6="13000.00000" pt_clust_7="13000.00000" pt_clust_8="13000.00000" pt_clust_9="42.27602"></scales>
<clustering>
<clus scale="   42.276">  1  9  2 -1</clus>
<clus scale="   80.736">  5  6 -1 -1</clus>
<clus scale="   91.487">  7  8 -1 -1</clus>
<clus scale="   93.398">  2  5  1 -1</clus>
<clus scale="   42.276">  1  5  2 -1</clus>
</clustering>
</event>
<event>
 9    1  0.4067873E-005  0.1055123E+03  0.7546771E-02  0.1272591E+00
          1   -1    0    0  502    0 -0.00000000000E+00  0.00000000000E+00  0.12888160235E+03  0.12888160235E+03  0.00000000000E+00 0. -1.
         21   -1    0    0  501  502  0.00000000000E+00 -0.00000000000E+00 -0.11118067393E+03  0.11118067393E+03  0.00000000000E+00 0. -1.
        -24    2    1    2    0    0 -0.44317260429E+02  0.31039680255E+01  0.15495097655E+02  0.96889460309E+02  0.84698378250E+02 0.  0.
         23    2    1    2    0    0  0.52488506529E+02 -0.32019392362E+02  0.11453345509E+02  0.11173418438E+03  0.92590842047E+02 0.  0.
         13    1    3    3    0    0 -0.60154814127E+02  0.27091437794E+02  0.45449988063E+01  0.66130210029E+02  0.00000000000E+00 0. -1.
        -14    1    3    3    0    0  0.15837553697E+02 -0.23987469768E+02  0.10950098849E+02  0.30759250280E+02  0.00000000000E+00 0.  1.
        -11    1    4    4    0    0  0.35250478242E+02 -0.18732236960E+02 -0.39604050084E+02  0.56231429831E+02  0.00000000000E+00 0.  1.
         11    1    4    4    0    0  0.17238028287E+02 -0.13287155403E+02  0.51057395593E+02  0.55502754550E+02  0.00000000000E+00 0. -1.
          2    1    1    2  501    0 -0.81712460994E+01  0.28915424337E+02 -0.92475147467E+01  0.31438631592E+02  0.00000000000E+00 0. -1.
<scales pt_clust_5="13000.00000" pt_clust_6="13000.00000" pt_clust_7="13000.00000" pt_clust_8="13000.00000" pt_clust_9="30.04781"></scales>
<clustering>
<clus scale="   30.048">  2  9  1 -1</clus>
<clus scale="   84.698">  5  6 -1 -1</clus>
<clus scale="   92.591">  7  8 -1 -1</clus>
<clus scale="   98.659">  1  5  2 -1</clus>
<clus scale="   30.048">  2  5  1 -1</clus>
</clustering>
</event>
<event>
 9    1  0.4067873E-005  0.1420138E+03  0.7546771E-02  0.1229057E+00
         21   -1    0    0  501  502  0.00000000000E+00  0.00000000000E+00  0.30771327891E+03  0.30771327891E+03  0.00000000000E+00 0.  1.
         -2   -1    0    0    0  501 -0.00000000000E+00 -0.00000000000E+00 -0.15794929028E+03  0.15794929028E+03  0.00000000000E+00 0.  1.
         23    2    1    2    0    0  0.32942061643E+02  0.75456163362E+01 -0.69276840625E+02  0.11876480186E+03  0.90353094919E+02 0.  0.
        -24    2    1    2    0    0 -0.11633051934E+03  0.62872021556E+02  0.97363138821E+02  0.18344214966E+03  0.81766500759E+02 0.  0.
         11    1    4    4    0    0 -0.64193844831E+02  0.58921060295E+01  0.74195869769E+01  0.64889266436E+02  0.00000000000E+00 0. -1.
        -12    1    4    4    0    0 -0.52136674504E+02  0.56979915526E+02  0.89943551844E+02  0.11855288322E+03  0.00000000000E+00 0.  1.
        -13    1    3    3    0    0  0.13035586597E+02 -0.23575484843E+02  0.11996016539E+02  0.29489564533E+02  0.00000000000E+00 0.  1.
         13    1    3    3    0    0  0.19906475045E+02  0.31121101179E+02 -0.81272857164E+02  0.89275237323E+02  0.00000000000E+00 0. -1.
         -1    1    1    2    0  502  0.83388457693E+02 -0.70417637892E+02  0.12167769043E+03  0.16345561768E+03  0.00000000000E+00 0.  1.
<scales pt_clust_5="13000.00000" pt_clust_6="13000.00000" pt_clust_7="13000.00000" pt_clust_8="13000.00000" pt_clust_9="116.11274"></scales>
<clustering>
<clus scale="   81.767">  5  6 -1 -1</clus>
<clus scale="   90.353">  7  8 -1 -1</clus>
<clus scale="   96.467">  2  7  1 -1</clus>
<clus scale="  116.113">  1  9  2 -1</clus>
<clus scale="  116.113">  1  5  2 -1</clus>
</clustering>
</event>
<event>
 9    1  0.4067873E-005  0.1316309E+03  0.7546771E-02  0.1235559E+00
          3   -1    0    0  502    0 -0.00000000000E+00  0.00000000000E+00  0.31064564154E+03  0.31064564154E+03  0.00000000000E+00 0. -1.
         21   -1    0    0  501  502  0.00000000000E+00 -0.00000000000E+00 -0.10327431169E+03  0.10327431169E+03  0.00000000000E+00 0. -1.
        -24    2    1    2    0    0  0.63775272319E+02 -0.23955155052E+02  0.14564658145E+03  0.18012316479E+03  0.81180619572E+02 0.  0.
         23    2    1    2    0    0  0.43525590679E+02  0.26829687190E+02  0.54094259437E+02  0.12618655427E+03  0.10189479091E+03 0.  0.
         13    1    3    3    0    0  0.64752415588E+02 -0.27318551669E+01  0.14504829596E+03  0.15886896021E+03  0.00000000000E+00 0. -1.
        -14    1    3    3    0    0 -0.97714326863E+00 -0.21223299885E+02  0.59828548977E+00  0.21254204584E+02  0.00000000000E+00 0.  1.
        -13    1    4    4    0    0  0.36941406254E+02  0.79181543691E+01 -0.24534558406E+02  0.45047854786E+02  0.00000000000E+00 0. -1.
         13    1    4    4    0    0  0.65841844248E+01  0.18911532821E+02  0.78628817843E+02  0.81138699481E+02  0.00000000000E+00 0.  1.
          4    1    1    2  501    0 -0.10730086300E+03 -0.28745321379E+01  0.76304889665E+01  0.10761023416E+03  0.00000000000E+00 0. -1.
<scales pt_clust_5="13000.00000" pt_clust_6="13000.00000" pt_clust_7="13000.00000" pt_clust_8="13000.00000" pt_clust_9="83.33155"></scales>
<clustering>
<clus scale="   81.181">  5  6 -1 -1</clus>
<clus scale="  101.895">  7  8 -1 -1</clus>
<clus scale="  105.978">  1  5  2 -1</clus>
<clus scale="   83.332">  2  9  1 -1</clus>
<clus scale="   83.332">  2  5  1 -1</clus>
</clustering>
</event>
<event>
 9    1  0.4067873E-005  0.3724241E+03  0.7546771E-02  0.1053858E+00
         21   -1    0    0  501  502  0.00000000000E+00  0.00000000000E+00  0.21194784933E+03  0.21194784933E+03  0.00000000000E+00 0.  1.
          1   -1    0    0  502    0 -0.00000000000E+00 -0.00000000000E+00 -0.17127858091E+04  0.17127858091E+04  0.00000000000E+00 0. -1.
         23    2    1    2    0    0  0.28778225057E+03  0.10721183218E+03 -0.58415339791E+03  0.66534829774E+03  0.84499492998E+02 0.  0.
        -24    2    1    2    0    0 -0.50803984983E+03 -0.22873294956E+03 -0.41898637684E+03  0.70172571953E+03  0.80287920877E+02 0.  0.
         11    1    4    4    0    0 -0.21600339353E+02 -0.16219789776E+02 -0.44622780845E+02  0.52161756210E+02  0.00000000000E+00 0. -1.
        -12    1    4    4    0    0 -0.48643951048E+03 -0.21251315979E+03 -0.37436359599E+03  0.64956396332E+03  0.00000000000E+00 0.  1.
        -13    1    3    3    0    0  0.91206629844E+02  0.62220870586E+02 -0.27391327327E+03  0.29532789800E+03  0.00000000000E+00 0.  1.
         13    1    3    3    0    0  0.19657562073E+03  0.44990961590E+02 -0.31024012465E+03  0.37002039975E+03  0.00000000000E+00 0. -1.
          2    1    1    2  501    0  0.22025759926E+03  0.12152111739E+03 -0.49769818506E+03  0.55765964120E+03  0.00000000000E+00 0. -1.
<scales pt_clust_5="13000.00000" pt_clust_6="13000.00000" pt_clust_7="13000.00000" pt_clust_8="13000.00000" pt_clust_9="251.55686"></scales>
<clustering>
<clus scale="   80.288">  5  6 -1 -1</clus>
<clus scale="   84.499">  7  8 -1 -1</clus>
<clus scale="  251.557">  1  9  2 -1</clus>
<clus scale="  371.491">  1  5  2 -1</clus>
<clus scale="  251.557">  1  5  2 -1</clus>
</clustering>
</event>
<event>
 9    1  0.4067873E-005  0.9614910E+02  0.7546771E-02  0.1297423E+00
         21   -1    0    0  501  502  0.00000000000E+00  0.00000000000E+00  0.26860640043E+02  0.26860640043E+02  0.00000000000E+00 0. -1.
          1   -1    0    0  502    0 -0.00000000000E+00 -0.00000000000E+00 -0.55862969517E+03  0.55862969517E+03  0.00000000000E+00 0. -1.
         23    2    1    2    0    0  0.82575199811E+01 -0.23470075282E+02 -0.27226426564E+03  0.28935539801E+03  0.94761199559E+02 0.  0.
        -24    2    1    2    0    0 -0.27182410805E+02 -0.25979659698E+02 -0.14176863242E+03  0.16704105484E+03  0.79940869958E+02 0.  0.
         11    1    4    4    0    0 -0.52907554751E+02 -0.27092939843E+02 -0.11739353359E+03  0.13158449175E+03  0.00000000000E+00 0. -1.
        -12    1    4    4    0    0  0.25725143946E+02  0.11132801451E+01 -0.24375098829E+02  0.35456563098E+02  0.00000000000E+00 0.  1.
        -13    1    3    3    0    0  0.31886790662E+02 -0.40095930469E+02 -0.24258503805E+03  0.24793537816E+03  0.00000000000E+00 0. -1.
         13    1    3    3    0    0 -0.23629270680E+02  0.16625855186E+02 -0.29679227585E+02  0.41420019841E+02  0.00000000000E+00 0.  1.
          2    1    1    2  501    0  0.18924890824E+02  0.49449734980E+02 -0.11773615706E+03  0.12909388236E+03  0.00000000000E+00 0. -1.
<scales pt_clust_5="13000.00000" pt_clust_6="13000.00000" pt_clust_7="13000.00000" pt_clust_8="13000.00000" pt_clust_9="52.94743"></scales>
<clustering>
<clus scale="   52.947">  1  9  2 -1</clus>
<clus scale="   79.941">  5  6 -1 -1</clus>
<clus scale="   81.581">  1  5  2 -1</clus>
<clus scale="   94.761">  7  8 -1 -1</clus>
<clus scale="   52.947">  1  5  2 -1</clus>
</clustering>
</event>
<event>
 9    1  0.4067873E-005  0.1991710E+03  0.7546771E-02  0.1150824E+00
          1   -1    0    0  502    0 -0.00000000000E+00  0.00000000000E+00  0.13596379839E+03  0.13596379839E+03  0.00000000000E+00 0. -1.
         21   -1    0    0  501  502  0.00000000000E+00 -0.00000000000E+00 -0.81850646009E+03  0.81850646009E+03  0.00000000000E+00 0. -1.
         23    2    1    2    0    0 -0.18393849127E+03  0.42953453492E+02  0.28234662315E+02  0.20858738289E+03  0.83863772926E+02 0.  0.
        -24    2    1    2    0    0  0.13045349402E+03 -0.26141590103E+01 -0.56766869579E+03  0.58787027139E+03  0.79490627645E+02 0.  0.
         13    1    4    4    0    0  0.44786321138E+02  0.21886312934E+02 -0.99388969622E+02  0.11118899468E+03  0.00000000000E+00 0. -1.
        -14    1    4    4    0    0  0.85667172882E+02 -0.24500471944E+02 -0.46827972617E+03  0.47668127672E+03  0.00000000000E+00 0.  1.
        -13    1    3    3    0    0 -0.82001508847E+02  0.12770838177E+00  0.49796173027E+02  0.95937076309E+02  0.00000000000E+00 0.  1.
         13    1    3    3    0    0 -0.10193698242E+03  0.42825745110E+02 -0.21561510712E+02  0.11265030659E+03  0.00000000000E+00 0. -1.
          2    1    1    2  501    0  0.53484997249E+02 -0.40339294481E+02 -0.14310862822E+03  0.15801260419E+03  0.00000000000E+00 0. -1.
<scales pt_clust_5="13000.00000" pt_clust_6="13000.00000" pt_clust_7="13000.00000" pt_clust_8="13000.00000" pt_clust_9="66.99182"></scales>
<clustering>
<clus scale="   66.992">  2  9  1 -1</clus>
<clus scale="   79.491">  5  6 -1 -1</clus>
<clus scale="   83.864">  7  8 -1 -1</clus>
<clus scale="  197.370">  2  5  1 -1</clus>
<clus scale="   66.992">  2  5  1 -1</clus>
</clustering>
</event>
<event>
 9    1  0.4067873E-005  0.1187032E+03  0.7546771E-02  0.1249266E+00
         -2   -1    0    0    0  501 -0.00000000000E+00  0.00000000000E+00  0.34847379496E+03  0.34847379496E+03  0.00000000000E+00 0.  1.
         21   -1    0    0  501  502  0.00000000000E+00 -0.00000000000E+00 -0.27168246155E+03  0.27168246155E+03  0.00000000000E+00 0.  1.
        -24    2    1    2    0    0  0.33718340343E+02 -0.66594324201E+02  0.28911843782E+03  0.30885322963E+03  0.78924748176E+02 0.  0.
         23    2    1    2    0    0 -0.10259435664E+03  0.50416367087E+02 -0.95366047816E+02  0.17460803546E+03  0.91246210253E+02 0.  0.
         13    1    3    3    0    0  0.21136399517E+02 -0.62778484213E+01  0.12273916996E+02  0.25235051095E+02  0.00000000000E+00 0. -1.
        -14    1    3    3    0    0  0.12581940826E+02 -0.60316475780E+02  0.27684452083E+03  0.28361817854E+03  0.00000000000E+00 0.  1.
        -13    1    4    4    0    0 -0.17060719897E+02  0.39863365895E+02  0.34404469414E+01  0.43497043336E+02  0.00000000000E+00 0. -1.
         13    1    4    4    0    0 -0.85533636742E+02  0.10553001193E+02 -0.98806494757E+02  0.13111099212E+03  0.00000000000E+00 0.  1.
         -1    1    1    2    0  502  0.68876016295E+02  0.16177957114E+02 -0.11696105660E+03  0.13669499141E+03  0.00000000000E+00 0.  1.
<scales pt_clust_5="13000.00000" pt_clust_6="13000.00000" pt_clust_7="13000.00000" pt_clust_8="13000.00000" pt_clust_9="70.75049"></scales>
<clustering>
<clus scale="   70.750">  2  9  1 -1</clus>
<clus scale="   78.925">  5  6 -1 -1</clus>
<clus scale="   91.246">  7  8 -1 -1</clus>
<clus scale="  109.516">  1  5  2 -1</clus>
<clus scale="   70.750">  2  5  1 -1</clus>
</clustering>
</event>
<event>
 9    1  0.4067873E-005  0.1110348E+03  0.7546771E-02  0.1259704E+00
          1   -1    0    0  502    0 -0.00000000000E+00  0.00000000000E+00  0.28426604946E+03  0.28426604946E+03  0.00000000000E+00 0. -1.
         21   -1    0    0  501  502  0.00000000000E+00 -0.00000000000E+00 -0.14731801384E+03  0.14731801384E+03  0.00000000000E+00 0.  1.
        -24    2    1    2    0    0  0.93612737708E+00 -0.71340517100E+02  0.21077324681E+03  0.23851183371E+03  0.85861443806E+02 0.  0.
         23    2    1    2    0    0 -0.12089186986E+02  0.51409759270E+02  0.12314495151E+02  0.10395615442E+03  0.88691169008E+02 0.  0.
         11    1    3    3    0    0 -0.30881582092E+02 -0.51975773182E+02  0.18099142660E+03  0.19082203650E+03  0.00000000000E+00 0. -1.
        -12    1    3    3    0    0  0.31817709469E+02 -0.19364743918E+02  0.29781820213E+02  0.47689797211E+02  0.00000000000E+00 0.  1.
        -13    1    4    4    0    0  0.26182481895E+02  0.57876018170E+02  0.14221063868E+02  0.65095272447E+02  0.00000000000E+00 0.  1.
         13    1    4    4    0    0 -0.38271668881E+02 -0.64662589004E+01 -0.19065687171E+01  0.38860881969E+02  0.00000000000E+00 0. -1.
          2    1    1    2  501    0  0.11153059609E+02  0.19930757831E+02 -0.86139706347E+02  0.89116075182E+02  0.00000000000E+00 0. -1.
<scales pt_clust_5="13000.00000" pt_clust_6="13000.00000" pt_clust_7="13000.00000" pt_clust_8="13000.00000" pt_clust_9="22.83913"></scales>
<clustering>
<clus scale="   22.839">  2  9  1 -1</clus>
<clus scale="   85.861">  5  6 -1 -1</clus>
<clus scale="   88.691">  7  8 -1 -1</clus>
<clus scale="  108.788">  1  5  2 -1</clus>
<clus scale="   22.839">  2  5  1 -1</clus>
</clustering>
</event>
<event>
 9    1  0.4067873E-005  0.1522769E+03  0.7546771E-02  0.1199744E+00
         21   -1    0    0  501  502  0.00000000000E+00  0.00000000000E+00  0.55869805183E+03  0.55869805183E+03  0.00000000000E+00 0.  1.
         -2   -1    0    0    0  501 -0.00000000000E+00 -0.00000000000E+00 -0.83208320151E+02  0.83208320151E+02  0.00000000000E+00 0.  1.
         23    2    1    2    0    0 -0.99507298718E+02  0.73035984785E+02  0.32017097145E+02  0.15683050339E+03  0.91294877807E+02 0.  0.
        -24    2    1    2    0    0  0.12008757653E+03 -0.28898549651E+02  0.35127003492E+03  0.38080228425E+03  0.79772113230E+02 0.  0.
         11    1    4    4    0    0  0.63621553045E+02 -0.26997120214E+02  0.89899741116E+02  0.11339537012E+03  0.00000000000E+00 0. -1.
        -12    1    4    4    0    0  0.56466023482E+02 -0.19014294364E+01  0.26137029380E+03  0.26740691413E+03  0.00000000000E+00 0.  1.
        -13    1    3    3    0    0 -0.21234770359E+02  0.71432768303E+02  0.80532575899E+01  0.74956059244E+02  0.00000000000E+00 0.  1.
         13    1    3    3    0    0 -0.78272528358E+02  0.16032164826E+01  0.23963839555E+02  0.81874444150E+02  0.00000000000E+00 0. -1.
         -1    1    1    2    0  502 -0.20580277809E+02 -0.44137435135E+02  0.92202599613E+02  0.10427358434E+03  0.00000000000E+00 0.  1.
<scales pt_clust_5="13000.00000" pt_clust_6="13000.00000" pt_clust_7="13000.00000" pt_clust_8="13000.00000" pt_clust_9="48.69970"></scales>
<clustering>
<clus scale="   48.700">  1  9  2 -1</clus>
<clus scale="   79.772">  5  6 -1 -1</clus>
<clus scale="   91.295">  7  8 -1 -1</clus>
<clus scale="  145.661">  1  5  2 -1</clus>
<clus scale="   48.700">  1  5  2 -1</clus>
</clustering>
</event>
<event>
 9    1  0.4067873E-005  0.9669755E+02  0.7546771E-02  0.1294021E+00
         -2   -1    0    0    0  501 -0.00000000000E+00  0.00000000000E+00  0.20242243368E+03  0.20242243368E+03  0.00000000000E+00 0.  1.
         21   -1    0    0  501  502  0.00000000000E+00 -0.00000000000E+00 -0.93976867534E+02  0.93976867534E+02  0.00000000000E+00 0.  1.
        -24    2    1    2    0    0 -0.10462418615E+02 -0.19539249075E+02  0.98525733370E+02  0.12878750691E+03  0.79922821153E+02 0.  0.
         23    2    1    2    0    0  0.64853564189E+01  0.48229502897E+02  0.52223513173E+02  0.11634241687E+03  0.91870113956E+02 0.  0.
         13    1    3    3    0    0 -0.38360139696E+02 -0.11317778424E+02  0.19331914575E+02  0.44422014217E+02  0.00000000000E+00 0. -1.
        -14    1    3    3    0    0  0.27897721081E+02 -0.82214706511E+01  0.79193818795E+02  0.84365492689E+02  0.00000000000E+00 0.  1.
        -11    1    4    4    0    0  0.44751935494E+02  0.39770873772E+02  0.13761579069E+02  0.61431581369E+02  0.00000000000E+00 0.  1.
         11    1    4    4    0    0 -0.38266579075E+02  0.84586291248E+01  0.38461934104E+02  0.54910835504E+02  0.00000000000E+00 0. -1.
         -1    1    1    2    0  502  0.39770621956E+01 -0.28690253821E+02 -0.42303680394E+02  0.51269377438E+02  0.00000000000E+00 0.  1.
<scales pt_clust_5="13000.00000" pt_clust_6="13000.00000" pt_clust_7="13000.00000" pt_clust_8="13000.00000" pt_clust_9="28.96459"></scales>
<clustering>
<clus scale="   28.965">  2  9  1 -1</clus>
<clus scale="   79.923">  5  6 -1 -1</clus>
<clus scale="   85.428">  1  5  2 -1</clus>
<clus scale="   91.870">  7  8 -1 -1</clus>
<clus scale="   28.965">  2  5  1 -1</clus>
</clustering>
</event>
<event>
 9    1  0.4067873E-005  0.1458708E+03  0.7546771E-02  0.1225582E+00
         -2   -1    0    0    0  501 -0.00000000000E+00  0.00000000000E+00  0.20616878868E+03  0.20616878868E+03  0.00000000000E+00 0.  1.
         21   -1    0    0  501  502  0.00000000000E+00 -0.00000000000E+00 -0.46129901975E+03  0.46129901975E+03  0.00000000000E+00 0.  1.
        -24    2    1    2    0    0  0.25463908272E+02 -0.44236465159E+02 -0.21335550939E+03  0.23382287086E+03  0.80915301849E+02 0.  0.
         23    2    1    2    0    0 -0.18812137984E+02 -0.70434040667E+02  0.16118625244E+03  0.20043531519E+03  0.94225564358E+02 0.  0.
         11    1    3    3    0    0  0.45403811937E+02  0.89742983233E+00 -0.86229473920E+02  0.97456829885E+02  0.00000000000E+00 0. -1.
        -12    1    3    3    0    0 -0.19939903665E+02 -0.45133894991E+02 -0.12712603547E+03  0.13636604097E+03  0.00000000000E+00 0.  1.
        -13    1    4    4    0    0 -0.20966332155E+02 -0.39579965305E+02  0.16339940127E+03  0.16942704941E+03  0.00000000000E+00 0.  1.
         13    1    4    4    0    0  0.21541941704E+01 -0.30854075362E+02 -0.22131488237E+01  0.31008265780E+02  0.00000000000E+00 0. -1.
         -1    1    1    2    0  502 -0.66517702875E+01  0.11467050583E+03 -0.20296097413E+03  0.23320962238E+03  0.00000000000E+00 0.  1.
<scales pt_clust_5="13000.00000" pt_clust_6="13000.00000" pt_clust_7="13000.00000" pt_clust_8="13000.00000" pt_clust_9="111.35452"></scales>
<clustering>
<clus scale="   80.915">  5  6 -1 -1</clus>
<clus scale="   94.226">  7  8 -1 -1</clus>
<clus scale="   95.669">  1  5  2 -1</clus>
<clus scale="  111.355">  2  9  1 -1</clus>
<clus scale="  111.355">  2  5  1 -1</clus>
</clustering>
</event>
<event>
 9    1  0.4067873E-005  0.1584309E+03  0.7546771E-02  0.1191723E+00
         21   -1    0    0  501  502  0.00000000000E+00  0.00000000000E+00  0.18308912495E+03  0.18308912495E+03  0.00000000000E+00 0. -1.
         -2   -1    0    0    0  501 -0.00000000000E+00 -0.00000000000E+00 -0.30920677402E+03  0.30920677402E+03  0.00000000000E+00 0.  1.
         23    2    1    2    0    0 -0.28039629026E+02  0.12964994301E+03 -0.20247308683E+03  0.25856567336E+03  0.90914949438E+02 0.  0.
        -24    2    1    2    0    0  0.45985733382E+01 -0.12360083593E+03 -0.46843892051E+01  0.14915169203E+03  0.83222414131E+02 0.  0.
         13    1    4    4    0    0  0.29678104633E+02 -0.12355764814E+02  0.11138037152E+02  0.34022208781E+02  0.00000000000E+00 0. -1.
        -14    1    4    4    0    0 -0.25079531294E+02 -0.11124507111E+03 -0.15822426357E+02  0.11512948325E+03  0.00000000000E+00 0.  1.
        -13    1    3    3    0    0 -0.47826009367E+02  0.11132281925E+03 -0.19664233817E+03  0.23097252308E+03  0.00000000000E+00 0.  1.
         13    1    3    3    0    0  0.19786380341E+02  0.18327123759E+02 -0.58307486575E+01  0.27593150276E+02  0.00000000000E+00 0. -1.
         -1    1    1    2    0  502  0.23441055688E+02 -0.60491070867E+01  0.81039826967E+02  0.84578533584E+02  0.00000000000E+00 0.  1.
<scales pt_clust_5="13000.00000" pt_clust_6="13000.00000" pt_clust_7="13000.00000" pt_clust_8="13000.00000" pt_clust_9="24.20898"></scales>
<clustering>
<clus scale="   24.209">  1  9  2 -1</clus>
<clus scale="   83.222">  5  6 -1 -1</clus>
<clus scale="   90.915">  7  8 -1 -1</clus>
<clus scale="  154.145">  1  5  2 -1</clus>
<clus scale="   24.209">  1  5  2 -1</clus>
</clustering>
</event>
<event>
 9    1  0.4067873E-005  0.1293011E+03  0.7546771E-02  0.1244510E+00
          1   -1    0    0  502    0 -0.00000000000E+00  0.00000000000E+00  0.46192292723E+03  0.46192292723E+03  0.00000000000E+00 0. -1.
         21   -1    0    0  501  502  0.00000000000E+00 -0.00000000000E+00 -0.84164447752E+02  0.84164447752E+02  0.00000000000E+00 0. -1.
         23    2    1    2    0    0 -0.12209995151E+02 -0.87072425563E+01  0.27885538877E+03  0.29402578533E+03  0.92010513180E+02 0.  0.
        -24    2    1    2    0    0 -0.61275986926E+02  0.79043972251E+02  0.42059983683E+02  0.13553440861E+03  0.81227074108E+02 0.  0.
         13    1    4    4    0    0 -0.44717866944E+02  0.87664876576E+02  0.10637209144E+02  0.98984687843E+02  0.00000000000E+00 0. -1.
        -14    1    4    4    0    0 -0.16558119982E+02 -0.86209043247E+01  0.31422774539E+02  0.36549720771E+02  0.00000000000E+00 0.  1.
        -11    1    3    3    0    0 -0.24551112572E+02  0.32998111711E+02  0.74557586231E+02  0.85149669228E+02  0.00000000000E+00 0. -1.
         11    1    3    3    0    0  0.12341117421E+02 -0.41705354267E+02  0.20429780254E+03  0.20887611610E+03  0.00000000000E+00 0.  1.
          2    1    1    2  501    0  0.73485982077E+02 -0.70336729695E+02  0.56843107027E+02  0.11652718105E+03  0.00000000000E+00 0. -1.
<scales pt_clust_5="13000.00000" pt_clust_6="13000.00000" pt_clust_7="13000.00000" pt_clust_8="13000.00000" pt_clust_9="100.60288"></scales>
<clustering>
<clus scale="   81.227">  5  6 -1 -1</clus>
<clus scale="   92.011">  7  8 -1 -1</clus>
<clus scale="   93.225">  1  7  2 -1</clus>
<clus scale="  100.603">  2  9  1 -1</clus>
<clus scale="  100.603">  2  5  1 -1</clus>
</clustering>
</event>
<event>
 9    1  0.4067873E-005  0.1449301E+03  0.7546771E-02  0.1220067E+00
         -2   -1    0    0    0  501 -0.00000000000E+00  0.00000000000E+00  0.64694131321E+03  0.64694131321E+03  0.00000000000E+00 0.  1.
         21   -1    0    0  501  502  0.00000000000E+00 -0.00000000000E+00 -0.53178406228E+02  0.53178406228E+02  0.00000000000E+00 0.  1.
         23    2    1    2    0    0 -0.84608863575E+02  0.52185965402E+02  0.35682748422E+03  0.38927533801E+03  0.11969711988E+03 0.  0.
        -24    2    1    2    0    0  0.77649757425E+02  0.26794966518E+02  0.18790356134E+03  0.21762131454E+03  0.72827420104E+02 0.  0.
         13    1    4    4    0    0  0.41582952830E+02  0.51356027374E+01  0.23749237451E+02  0.48161630589E+02  0.00000000000E+00 0. -1.
        -14    1    4    4    0    0  0.36066804596E+02  0.21659363781E+02  0.16415432389E+03  0.16945968395E+03  0.00000000000E+00 0.  1.
        -13    1    3    3    0    0 -0.98769641435E+02  0.77997872554E+02  0.27928552179E+03  0.30633235689E+03  0.00000000000E+00 0.  1.
         13    1    3    3    0    0  0.14160777861E+02 -0.25811907152E+02  0.77541962430E+02  0.82942981126E+02  0.00000000000E+00 0. -1.
         -1    1    1    2    0  502  0.69591061494E+01 -0.78980931920E+02  0.49031861416E+02  0.93223066884E+02  0.00000000000E+00 0.  1.
<scales pt_clust_5="13000.00000" pt_clust_6="13000.00000" pt_clust_7="13000.00000" pt_clust_8="13000.00000" pt_clust_9="79.28693"></scales>
<clustering>
<clus scale="   72.827">  5  6 -1 -1</clus>
<clus scale="   79.287">  2  9  1 -1</clus>
<clus scale="  109.459">  2  5  1 -1</clus>
<clus scale="  119.697">  7  8 -1 -1</clus>
<clus scale="   79.287">  2  5  1 -1</clus>
</clustering>
</event>
<event>
 9    1  0.4067873E-005  0.1206450E+03  0.7546771E-02  0.1257140E+00
         21   -1    0    0  501  502  0.00000000000E+00  0.00000000000E+00  0.53172057703E+03  0.53172057703E+03  0.00000000000E+00 0.  1.
          1   -1    0    0  502    0 -0.00000000000E+00 -0.00000000000E+00 -0.42616167023E+02  0.42616167023E+02  0.00000000000E+00 0. -1.
        -24    2    1    2    0    0  0.25073902965E+02 -0.34411797339E+02  0.22625123423E+03  0.24320074131E+03  0.78384355451E+02 0.  0.
         23    2    1    2    0    0  0.46703670213E+00 -0.54293074073E+02  0.13082591990E+03  0.17003947855E+03  0.94074688054E+02 0.  0.
         13    1    3    3    0    0  0.35002883434E+02 -0.35162326742E+02  0.65640420529E+02  0.82281564629E+02  0.00000000000E+00 0. -1.
        -14    1    3    3    0    0 -0.99289804690E+01  0.75052940312E+00  0.16061081370E+03  0.16091917668E+03  0.00000000000E+00 0.  1.
        -11    1    4    4    0    0 -0.60778406687E+01 -0.78835500935E+02  0.76265049713E+02  0.10985597008E+03  0.00000000000E+00 0.  1.
         11    1    4    4    0    0  0.65448773708E+01  0.24542426862E+02  0.54560870185E+02  0.60183508467E+02  0.00000000000E+00 0. -1.
          2    1    1    2  501    0 -0.25540939667E+02  0.88704871412E+02  0.13202725588E+03  0.16109652419E+03  0.00000000000E+00 0. -1.
<scales pt_clust_5="13000.00000" pt_clust_6="13000.00000" pt_clust_7="13000.00000" pt_clust_8="13000.00000" pt_clust_9="75.53265"></scales>
<clustering>
<clus scale="   78.384">  5  6 -1 -1</clus>
<clus scale="   89.202">  2  5  1 -1</clus>
<clus scale="   75.533">  1  9  2 -1</clus>
<clus scale="   94.075">  7  8 -1 -1</clus>
<clus scale="   75.533">  1  5  2 -1</clus>
</clustering>
</event>
<event>
 9    1  0.4067873E-005  0.1228315E+03  0.7546771E-02  0.1244462E+00
          1   -1    0    0  502    0 -0.00000000000E+00  0.00000000000E+00  0.18339343084E+04  0.18339343084E+04  0.00000000000E+00 0. -1.
         21   -1    0    0  501  502  0.00000000000E+00 -0.00000000000E+00 -0.21050848908E+02  0.21050848908E+02  0.00000000000E+00 0. -1.
        -24    2    1    2    0    0 -0.66909103343E+02  0.29931189433E+02  0.53838140580E+03  0.54927501345E+03  0.80472343579E+02 0.  0.
         23    2    1    2    0    0  0.64110927921E+01  0.78804285342E+02  0.28544743779E+03  0.30885887812E+03  0.87534846522E+02 0.  0.
         11    1    3    3    0    0 -0.25783233344E+02  0.53978267017E+02  0.34241003654E+03  0.34759611844E+03  0.00000000000E+00 0. -1.
        -12    1    3    3    0    0 -0.41125869999E+02 -0.24047077584E+02  0.19597136926E+03  0.20167889501E+03  0.00000000000E+00 0.  1.
        -13    1    4    4    0    0 -0.26925549932E+02  0.68164778059E+01  0.14426383076E+03  0.14691324812E+03  0.00000000000E+00 0.  1.
         13    1    4    4    0    0  0.33336642724E+02  0.71987807536E+02  0.14118360703E+03  0.16194563000E+03  0.00000000000E+00 0. -1.
          2    1    1    2  501    0  0.60498010551E+02 -0.10873547477E+03  0.98905461591E+03  0.99685126574E+03  0.00000000000E+00 0. -1.
<scales pt_clust_5="13000.00000" pt_clust_6="13000.00000" pt_clust_7="13000.00000" pt_clust_8="13000.00000" pt_clust_9="86.16977"></scales>
<clustering>
<clus scale="   80.472">  5  6 -1 -1</clus>
<clus scale="   87.535">  7  8 -1 -1</clus>
<clus scale="  108.851">  1  5  2 -1</clus>
<clus scale="   86.170">  2  9  1 -1</clus>
<clus scale="   86.170">  2  5  1 -1</clus>
</clustering>
</event>
<event>
 9    1  0.4067873E-005  0.6017311E+03  0.7546771E-02  0.1057063E+00
         21   -1    0    0  501  502  0.00000000000E+00  0.00000000000E+00  0.23661426828E+03  0.23661426828E+03  0.00000000000E+00 0.  1.
         -2   -1    0    0    0  501 -0.00000000000E+00 -0.00000000000E+00 -0.18467946227E+04  0.18467946227E+04  0.00000000000E+00 0.  1.
        -24    2    1    2    0    0  0.11050635052E+02  0.75338942767E+01 -0.28659177296E+02  0.85408224191E+02  0.79336878046E+02 0.  0.
         23    2    1    2    0    0  0.52019758906E+03  0.27156814212E+03 -0.99591838327E+03  0.11595179571E+04  0.90959766507E+02 0.  0.
         13    1    3    3    0    0  0.36168020115E+02 -0.19979014701E+02 -0.24210383137E+02  0.47889762571E+02  0.00000000000E+00 0. -1.
        -14    1    3    3    0    0 -0.25117385063E+02  0.27512908978E+02 -0.44487941592E+01  0.37518461620E+02  0.00000000000E+00 0.  1.
        -11    1    4    4    0    0  0.48958348903E+03  0.27414182738E+03 -0.91989333468E+03  0.10775200608E+04  0.00000000000E+00 0.  1.
         11    1    4    4    0    0  0.30614100034E+02 -0.25736852621E+01 -0.76025048584E+02  0.81997896247E+02  0.00000000000E+00 0. -1.
         -1    1    1    2    0  502 -0.53124822412E+03 -0.27910203640E+03 -0.58560279387E+03  0.83848270974E+03  0.00000000000E+00 0.  1.
<scales pt_clust_5="13000.00000" pt_clust_6="13000.00000" pt_clust_7="13000.00000" pt_clust_8="13000.00000" pt_clust_9="594.81649"></scales>
<clustering>
<clus scale="   79.337">  5  6 -1 -1</clus>
<clus scale="   80.456">  2  5  1 -1</clus>
<clus scale="   90.960">  7  8 -1 -1</clus>
<clus scale="  594.816">  1  9  2 -1</clus>
<clus scale="  594.816">  1  5  2 -1</clus>
</clustering>
</event>
<event>
 9    1  0.4067873E-005  0.1082203E+03  0.7546771E-02  0.1274383E+00
         -2   -1    0    0    0  501 -0.00000000000E+00  0.00000000000E+00  0.62182903230E+02  0.62182903230E+02  0.00000000000E+00 0.  1.
         21   -1    0    0  501  502  0.00000000000E+00 -0.00000000000E+00 -0.25476825509E+03  0.25476825509E+03  0.00000000000E+00 0.  1.
         23    2    1    2    0    0  0.67342324699E+02 -0.94333151913E+01 -0.58879094496E+02  0.12811160582E+03  0.91224227303E+02 0.  0.
        -24    2    1    2    0    0 -0.41648264978E+02  0.78976351053E+01 -0.14148202830E+03  0.16195078845E+03  0.66437511498E+02 0.  0.
         11    1    4    4    0    0  0.13202162036E+01  0.23135001857E+02 -0.15255564643E+02  0.27743531396E+02  0.00000000000E+00 0. -1.
        -12    1    4    4    0    0 -0.42968481182E+02 -0.15237366751E+02 -0.12622646365E+03  0.13420725706E+03  0.00000000000E+00 0.  1.
        -11    1    3    3    0    0 -0.19883226842E+02 -0.15944852091E+02 -0.70630328893E+01  0.26447446974E+02  0.00000000000E+00 0. -1.
         11    1    3    3    0    0  0.87225551541E+02  0.65115369001E+01 -0.51816061607E+02  0.10166415885E+03  0.00000000000E+00 0.  1.
         -1    1    1    2    0  502 -0.25694059720E+02  0.15356800860E+01  0.77757709309E+01  0.26888764044E+02  0.00000000000E+00 0.  1.
<scales pt_clust_5="13000.00000" pt_clust_6="13000.00000" pt_clust_7="13000.00000" pt_clust_8="13000.00000" pt_clust_9="25.73992"></scales>
<clustering>
<clus scale="   25.740">  2  9  1 -1</clus>
<clus scale="   66.438">  5  6 -1 -1</clus>
<clus scale="   88.339">  2  5  1 -1</clus>
<clus scale="   91.224">  7  8 -1 -1</clus>
<clus scale="   25.740">  2  5  1 -1</clus>
</clustering>
</event>
<event>
 9    1  0.4067873E-005  0.1884627E+03  0.7546771E-02  0.1161063E+00
         21   -1    0    0  501  502  0.00000000000E+00  0.00000000000E+00  0.50583273062E+03  0.50583273062E+03  0.00000000000E+00 0.  1.
         -4   -1    0    0    0  501 -0.00000000000E+00 -0.00000000000E+00 -0.15321160900E+03  0.15321160900E+03  0.00000000000E+00 0.  1.
        -24    2    1    2    0    0  0.12640577532E+03  0.49050148720E+02  0.12526503877E+03  0.20167666210E+03  0.81226898090E+02 0.  0.
         23    2    1    2    0    0 -0.22256200580E+03  0.51625540858E+02  0.19544239370E+03  0.31453876347E+03  0.92400549645E+02 0.  0.
         11    1    3    3    0    0  0.66443479075E+02 -0.31211810963E+00  0.17266357212E+02  0.68651004513E+02  0.00000000000E+00 0. -1.
        -12    1    3    3    0    0  0.59962296244E+02  0.49362266830E+02  0.10799868156E+03  0.13302565759E+03  0.00000000000E+00 0.  1.
        -13    1    4    4    0    0 -0.54010290377E+00  0.20883088941E+02  0.80642181662E+01  0.22392559691E+02  0.00000000000E+00 0. -1.
         13    1    4    4    0    0 -0.22202190290E+03  0.30742451917E+02  0.18737817553E+03  0.29214620378E+03  0.00000000000E+00 0.  1.
         -3    1    1    2    0  502  0.96156230482E+02 -0.10067568958E+03  0.31913689151E+02  0.14282891405E+03  0.00000000000E+00 0.  1.
<scales pt_clust_5="13000.00000" pt_clust_6="13000.00000" pt_clust_7="13000.00000" pt_clust_8="13000.00000" pt_clust_9="139.21794"></scales>
<clustering>
<clus scale="   81.227">  5  6 -1 -1</clus>
<clus scale="   92.401">  7  8 -1 -1</clus>
<clus scale="  139.218">  1  9  2 -1</clus>
<clus scale="  183.243">  2  5  1 -1</clus>
<clus scale="  139.218">  1  5  2 -1</clus>
</clustering>
</event>
<event>
 9    1  0.4067873E-005  0.1097970E+03  0.7546771E-02  0.1267858E+00
         21   -1    0    0  501  502  0.00000000000E+00  0.00000000000E+00  0.81114412346E+02  0.81114412346E+02  0.00000000000E+00 0. -1.
         -4   -1    0    0    0  501 -0.00000000000E+00 -0.00000000000E+00 -0.37714000064E+03  0.37714000064E+03  0.00000000000E+00 0.  1.
        -24    2    1    2    0    0  0.15838294254E+02  0.50031415763E+02 -0.30008480267E+03  0.31559087351E+03  0.82417938126E+02 0.  0.
         23    2    1    2    0    0 -0.31058734481E+02 -0.15231241452E+02  0.83027717240E+01  0.10444415026E+03  0.98198822807E+02 0.  0.
         13    1    3    3    0    0  0.22218386978E+02 -0.18440609210E+02 -0.94054995454E+02  0.98387270304E+02  0.00000000000E+00 0. -1.
        -14    1    3    3    0    0 -0.63800927235E+01  0.68472024973E+02 -0.20602980721E+03  0.21720360321E+03  0.00000000000E+00 0.  1.
        -11    1    4    4    0    0  0.16993844596E+02 -0.13020054521E+02 -0.34137530677E+02  0.40294957186E+02  0.00000000000E+00 0.  1.
         11    1    4    4    0    0 -0.48052579078E+02 -0.22111869317E+01  0.42440302401E+02  0.64149193070E+02  0.00000000000E+00 0. -1.
         -3    1    1    2    0  502  0.15220440227E+02 -0.34800174311E+02 -0.42435573467E+01  0.38219389212E+02  0.00000000000E+00 0.  1.
<scales pt_clust_5="13000.00000" pt_clust_6="13000.00000" pt_clust_7="13000.00000" pt_clust_8="13000.00000" pt_clust_9="37.98307"></scales>
<clustering>
<clus scale="   37.983">  1  9  2 -1</clus>
<clus scale="   82.418">  5  6 -1 -1</clus>
<clus scale="   95.943">  2  5  1 -1</clus>
<clus scale="   98.199">  7  8 -1 -1</clus>
<clus scale="   37.983">  1  5  2 -1</clus>
</clustering>
</event>
<event>
 9    1  0.4067873E-005  0.1156564E+03  0.7546771E-02  0.1254342E+00
          1   -1    0    0  502    0 -0.00000000000E+00  0.00000000000E+00  0.36119262820E+03  0.36119262820E+03  0.00000000000E+00 0. -1.
         21   -1    0    0  501  502  0.00000000000E+00 -0.00000000000E+00 -0.13807768440E+03  0.13807768440E+03  0.00000000000E+00 0. -1.
        -24    2    1    2    0    0  0.57378942692E+02 -0.39380462692E+02  0.25333747558E+03  0.27502335574E+03  0.81331456189E+02 0.  0.
         23    2    1    2    0    0 -0.42010340008E+02  0.60137444308E+02 -0.96941577475E+02  0.15270342261E+03  0.92408251564E+02 0.  0.
         11    1    3    3    0    0  0.10724792506E+02 -0.35286474660E+02  0.20278306419E+03  0.20610950388E+03  0.00000000000E+00 0. -1.
        -12    1    3    3    0    0  0.46654150186E+02 -0.40939880316E+01  0.50554411389E+02  0.68913851862E+02  0.00000000000E+00 0.  1.
        -11    1    4    4    0    0 -0.36645369938E+02  0.24255071600E+02 -0.10647776733E+03  0.11518987183E+03  0.00000000000E+00 0. -1.
         11    1    4    4    0    0 -0.53649700700E+01  0.35882372708E+02  0.95361898562E+01  0.37513550778E+02  0.00000000000E+00 0.  1.
          2    1    1    2  501    0 -0.15368602685E+02 -0.20756981616E+02  0.66719045695E+02  0.71543534248E+02  0.00000000000E+00 0. -1.
<scales pt_clust_5="13000.00000" pt_clust_6="13000.00000" pt_clust_7="13000.00000" pt_clust_8="13000.00000" pt_clust_9="25.82725"></scales>
<clustering>
<clus scale="   25.827">  2  9  1 -1</clus>
<clus scale="   81.331">  5  6 -1 -1</clus>
<clus scale="   92.408">  7  8 -1 -1</clus>
<clus scale="  107.014">  1  5  2 -1</clus>
<clus scale="   25.827">  2  5  1 -1</clus>
</clustering>
</event>
<event>
 9    1  0.4067873E-005  0.1004912E+03  0.7546771E-02  0.1288834E+00
         -2   -1    0    0    0  501 -0.00000000000E+00  0.00000000000E+00  0.25909194720E+03  0.25909194720E+03  0.00000000000E+00 0.  1.
         21   -1    0    0  501  502  0.00000000000E+00 -0.00000000000E+00 -0.73564592237E+02  0.73564592237E+02  0.00000000000E+00 0. -1.
        -24    2    1    2    0    0  0.42034732649E+02 -0.26116027584E+02  0.17333779453E+03  0.19442929755E+03  0.72854616102E+02 0.  0.
         23    2    1    2    0    0 -0.15648450397E+01  0.88108106494E+01 -0.20511989903E+01  0.91966226274E+02  0.91506831622E+02 0.  0.
         13    1    3    3    0    0 -0.16170704318E+02 -0.19146160735E+02  0.83312469967E+02  0.87000200006E+02  0.00000000000E+00 0. -1.
        -14    1    3    3    0    0  0.58205436967E+02 -0.69698668485E+01  0.90025324563E+02  0.10742909754E+03  0.00000000000E+00 0.  1.
        -11    1    4    4    0    0 -0.31933685252E+02 -0.26096942304E+02 -0.15057846265E+02  0.43903865269E+02  0.00000000000E+00 0. -1.
         11    1    4    4    0    0  0.30368840213E+02  0.34907752953E+02  0.13006647275E+02  0.48062361006E+02  0.00000000000E+00 0.  1.
         -1    1    1    2    0  502 -0.40469887610E+02  0.17305216934E+02  0.14240759418E+02  0.46261015608E+02  0.00000000000E+00 0.  1.
<scales pt_clust_5="13000.00000" pt_clust_6="13000.00000" pt_clust_7="13000.00000" pt_clust_8="13000.00000" pt_clust_9="44.01457"></scales>
<clustering>
<clus scale="   44.015">  2  9  1 -1</clus>
<clus scale="   72.855">  5  6 -1 -1</clus>
<clus scale="   83.862">  1  5  2 -1</clus>
<clus scale="   91.507">  7  8 -1 -1</clus>
<clus scale="   44.015">  2  5  1 -1</clus>
</clustering>
</event>
<event>
 9    1  0.4067873E-005  0.1346822E+03  0.7546771E-02  0.1222809E+00
         21   -1    0    0  501  502  0.00000000000E+00  0.00000000000E+00  0.36962785453E+03  0.36962785453E+03  0.00000000000E+00 0.  1.
         -2   -1    0    0    0  501 -0.00000000000E+00 -0.00000000000E+00 -0.10995011725E+03  0.10995011725E+03  0.00000000000E+00 0.  1.
        -24    2    1    2    0    0  0.10615163733E+03 -0.10442417636E+02 -0.32785508008E+02  0.13850990418E+03  0.82054188365E+02 0.  0.
         23    2    1    2    0    0 -0.73909832809E+02  0.25968165909E+02  0.13998001529E+03  0.18444202172E+03  0.91035408882E+02 0.  0.
         11    1    3    3    0    0  0.86199555837E+02 -0.18443847855E+02  0.11873244657E+02  0.88946685654E+02  0.00000000000E+00 0. -1.
        -12    1    3    3    0    0  0.19952081490E+02  0.80014302198E+01 -0.44658752665E+02  0.49563218529E+02  0.00000000000E+00 0.  1.
        -11    1    4    4    0    0 -0.80399822682E+02  0.48574660875E+02  0.12572113455E+03  0.15693767183E+03  0.00000000000E+00 0. -1.
         11    1    4    4    0    0  0.64899898736E+01 -0.22606494965E+02  0.14258880739E+02  0.27504349894E+02  0.00000000000E+00 0.  1.
         -1    1    1    2    0  502 -0.32241804518E+02 -0.15525748274E+02  0.15248322999E+03  0.15662604588E+03  0.00000000000E+00 0.  1.
<scales pt_clust_5="13000.00000" pt_clust_6="13000.00000" pt_clust_7="13000.00000" pt_clust_8="13000.00000" pt_clust_9="35.78523"></scales>
<clustering>
<clus scale="   35.785">  1  9  2 -1</clus>
<clus scale="   82.054">  5  6 -1 -1</clus>
<clus scale="   91.035">  7  8 -1 -1</clus>
<clus scale="  128.782">  2  5  1 -1</clus>
<clus scale="   35.785">  1  5  2 -1</clus>
</clustering>
</event>
<event>
 9    1  0.4067873E-005  0.1512001E+03  0.7546771E-02  0.1199587E+00
          1   -1    0    0  502    0 -0.00000000000E+00  0.00000000000E+00  0.90255503095E+03  0.90255503095E+03  0.00000000000E+00 0. -1.
         21   -1    0    0  501  502  0.00000000000E+00 -0.00000000000E+00 -0.40819701707E+02  0.40819701707E+02  0.00000000000E+00 0. -1.
        -24    2    1    2    0    0  0.55389548080E+02  0.97856098837E+02  0.34165606369E+03  0.37172228473E+03  0.93833751914E+02 0.  0.
         23    2    1    2    0    0  0.49593535437E+01 -0.13679596031E+03  0.33399842408E+03  0.37219222055E+03  0.90743439473E+02 0.  0.
         13    1    3    3    0    0  0.21154327440E+02  0.97058431467E+02  0.17182720412E+03  0.19847526991E+03  0.00000000000E+00 0. -1.
        -14    1    3    3    0    0  0.34235220640E+02  0.79766736961E+00  0.16982885957E+03  0.17324701483E+03  0.00000000000E+00 0.  1.
        -13    1    4    4    0    0 -0.24903424722E+02 -0.41736478929E+02  0.44022934686E+02  0.65575399463E+02  0.00000000000E+00 0.  1.
         13    1    4    4    0    0  0.29862778266E+02 -0.95059481376E+02  0.28997548939E+03  0.30661682109E+03  0.00000000000E+00 0. -1.
          2    1    1    2  501    0 -0.60348901624E+02  0.38939861469E+02  0.18608084148E+03  0.19946022738E+03  0.00000000000E+00 0. -1.
<scales pt_clust_5="13000.00000" pt_clust_6="13000.00000" pt_clust_7="13000.00000" pt_clust_8="13000.00000" pt_clust_9="71.82136"></scales>
<clustering>
<clus scale="   71.821">  2  9  1 -1</clus>
<clus scale="   90.743">  7  8 -1 -1</clus>
<clus scale="   93.834">  5  6 -1 -1</clus>
<clus scale="  149.302">  2  7  1 -1</clus>
<clus scale="   71.821">  2  5  1 -1</clus>
</clustering>
</event>
<event>
 9    1  0.4067873E-005  0.1066340E+03  0.7546771E-02  0.1267107E+00
         21   -1    0    0  501  502  0.00000000000E+00  0.00000000000E+00  0.16900351460E+03  0.16900351460E+03  0.00000000000E+00 0. -1.
         -2   -1    0    0    0  501 -0.00000000000E+00 -0.00000000000E+00 -0.99006083373E+02  0.99006083373E+02  0.00000000000E+00 0.  1.
         23    2    1    2    0    0  0.53377624880E+02  0.13206167986E+02  0.95845686094E+01  0.10144369258E+03  0.84707644866E+02 0.  0.
        -24    2    1    2    0    0 -0.66545619526E+02 -0.44443732312E+02  0.27698068762E+02  0.11945498049E+03  0.84254047565E+02 0.  0.
         11    1    4    4    0    0 -0.32146621793E+02 -0.20107632696E+02 -0.29760488646E+02  0.48201751730E+02  0.00000000000E+00 0. -1.
        -12    1    4    4    0    0 -0.34398997732E+02 -0.24336099615E+02  0.57458557408E+02  0.71253228761E+02  0.00000000000E+00 0.  1.
        -13    1    3    3    0    0  0.56355703947E+01  0.20764549793E+02  0.39228144755E+02  0.44741183743E+02  0.00000000000E+00 0. -1.
         13    1    3    3    0    0  0.47742054485E+02 -0.75583818069E+01 -0.29643576146E+02  0.56702508839E+02  0.00000000000E+00 0.  1.
         -1    1    1    2    0  502  0.13167994646E+02  0.31237564326E+02  0.32714793860E+02  0.47110924904E+02  0.00000000000E+00 0.  1.
<scales pt_clust_5="13000.00000" pt_clust_6="13000.00000" pt_clust_7="13000.00000" pt_clust_8="13000.00000" pt_clust_9="33.89958"></scales>
<clustering>
<clus scale="   33.900">  1  9  2 -1</clus>
<clus scale="   84.254">  5  6 -1 -1</clus>
<clus scale="   84.708">  7  8 -1 -1</clus>
<clus scale="  106.274">  1  5  2 -1</clus>
<clus scale="   33.900">  1  5  2 -1</clus>
</clustering>
</event>
<event>
 9    1  0.4067873E-005  0.1542848E+03  0.7546771E-02  0.1196564E+00
         21   -1    0    0  501  502  0.00000000000E+00  0.00000000000E+00  0.72236992800E+03  0.72236992800E+03  0.00000000000E+00 0. -1.
          1   -1    0    0  502    0 -0.00000000000E+00 -0.00000000000E+00 -0.49456920902E+02  0.49456920902E+02  0.00000000000E+00 0. -1.
         23    2    1    2    0    0 -0.61796303456E+02  0.10738744376E+03  0.15218737456E+03  0.21657029345E+03  0.91601576589E+02 0.  0.
        -24    2    1    2    0    0  0.29889892588E+02 -0.12469259852E+03  0.37762393741E+03  0.40762328486E+03  0.84351967661E+02 0.  0.
         13    1    4    4    0    0  0.28570440500E+01 -0.12359272048E+03  0.33557228225E+03  0.35762002163E+03  0.00000000000E+00 0. -1.
        -14    1    4    4    0    0  0.27032848538E+02 -0.10998780413E+01  0.42051655166E+02  0.50003263233E+02  0.00000000000E+00 0.  1.
        -13    1    3    3    0    0  0.22349138389E+02  0.36820715970E+02  0.31268804092E+02  0.53225813480E+02  0.00000000000E+00 0.  1.
         13    1    3    3    0    0 -0.84145441845E+02  0.70566727790E+02  0.12091857046E+03  0.16334447997E+03  0.00000000000E+00 0. -1.
          2    1    1    2  501    0  0.31906410868E+02  0.17305154762E+02  0.14310169513E+03  0.14763327059E+03  0.00000000000E+00 0. -1.
<scales pt_clust_5="13000.00000" pt_clust_6="13000.00000" pt_clust_7="13000.00000" pt_clust_8="13000.00000" pt_clust_9="36.29721"></scales>
<clustering>
<clus scale="   36.297">  1  9  2 -1</clus>
<clus scale="   84.352">  5  6 -1 -1</clus>
<clus scale="   91.602">  7  8 -1 -1</clus>
<clus scale="  150.094">  1  5  2 -1</clus>
<clus scale="   36.297">  1  5  2 -1</clus>
</clustering>
</event>
<event>
 9    1  0.4067873E-005  0.9594805E+02  0.7546771E-02  0.1289856E+00
         21   -1    0    0  501  502  0.00000000000E+00  0.00000000000E+00  0.13159753727E+03  0.13159753727E+03  0.00000000000E+00 0. -1.
         -2   -1    0    0    0  501 -0.00000000000E+00 -0.00000000000E+00 -0.27094810193E+03  0.27094810193E+03  0.00000000000E+00 0.  1.
         23    2    1    2    0    0  0.28400227659E+02 -0.76382117419E+01  0.30037579667E+02  0.92743766179E+02  0.82669430645E+02 0.  0.
        -24    2    1    2    0    0 -0.17975983989E+01  0.84812791280E+02  0.48426592572E+01  0.11739608172E+03  0.81005849970E+02 0.  0.
         13    1    4    4    0    0  0.15791005102E+02  0.54152024680E+02 -0.33211211066E+02  0.65458247452E+02  0.00000000000E+00 0. -1.
        -14    1    4    4    0    0 -0.17588603500E+02  0.30660766601E+02  0.38053870323E+02  0.51937834266E+02  0.00000000000E+00 0.  1.
        -11    1    3    3    0    0  0.19823226975E+01  0.35806027519E+02  0.19491452596E+02  0.40815657955E+02  0.00000000000E+00 0.  1.
         11    1    3    3    0    0  0.26417904962E+02 -0.43444239261E+02  0.10546127071E+02  0.51928108224E+02  0.00000000000E+00 0. -1.
         -1    1    1    2    0  502 -0.26602629261E+02 -0.77174579539E+02 -0.17423080358E+03  0.19240579130E+03  0.00000000000E+00 0.  1.
<scales pt_clust_5="13000.00000" pt_clust_6="13000.00000" pt_clust_7="13000.00000" pt_clust_8="13000.00000" pt_clust_9="81.63101"></scales>
<clustering>
<clus scale="   81.006">  5  6 -1 -1</clus>
<clus scale="   81.631">  1  9  2 -1</clus>
<clus scale="   82.669">  7  8 -1 -1</clus>
<clus scale="   94.518">  1  5  2 -1</clus>
<clus scale="   81.631">  1  5  2 -1</clus>
</clustering>
</event>
<event>
 9    1  0.4067873E-005  0.2249243E+03  0.7546771E-02  0.1158532E+00
         21   -1    0    0  501  502  0.00000000000E+00  0.00000000000E+00  0.43179322436E+03  0.43179322436E+03  0.00000000000E+00 0.  1.
         -2   -1    0    0    0  501 -0.00000000000E+00 -0.00000000000E+00 -0.22245984474E+03  0.22245984474E+03  0.00000000000E+00 0.  1.
        -24    2    1    2    0    0 -0.78525943580E+02 -0.12433600696E+02  0.75998854018E+02  0.13729173176E+03  0.82172231045E+02 0.  0.
         23    2    1    2    0    0 -0.11547818108E+03  0.15560148158E+03  0.16866700625E+03  0.27327500886E+03  0.93186050964E+02 0.  0.
         13    1    3    3    0    0 -0.20166456463E+02 -0.69557198837E+01  0.75727816577E+02  0.78675092684E+02  0.00000000000E+00 0. -1.
        -14    1    3    3    0    0 -0.58359487116E+02 -0.54778808128E+01  0.27103744147E+00  0.58616639071E+02  0.00000000000E+00 0.  1.
        -11    1    4    4    0    0  0.74004903731E+00  0.50854427015E+02  0.75959752904E+02  0.91414465380E+02  0.00000000000E+00 0. -1.
         11    1    4    4    0    0 -0.11621823011E+03  0.10474705457E+03  0.92707253346E+02  0.18186054348E+03  0.00000000000E+00 0.  1.
         -1    1    1    2    0  502  0.19400412466E+03 -0.14316788089E+03 -0.35332480648E+02  0.24368632849E+03  0.00000000000E+00 0.  1.
<scales pt_clust_5="13000.00000" pt_clust_6="13000.00000" pt_clust_7="13000.00000" pt_clust_8="13000.00000" pt_clust_9="204.71281"></scales>
<clustering>
<clus scale="   82.172">  5  6 -1 -1</clus>
<clus scale="   93.186">  7  8 -1 -1</clus>
<clus scale="  114.338">  2  5  1 -1</clus>
<clus scale="  204.713">  1  9  2 -1</clus>
<clus scale="  204.713">  1  5  2 -1</clus>
</clustering>
</event>
<event>
 9    1  0.4067873E-005  0.9643803E+02  0.7546771E-02  0.1294961E+00
         21   -1    0    0  501  502  0.00000000000E+00  0.00000000000E+00  0.57612631617E+03  0.57612631617E+03  0.00000000000E+00 0. -1.
         -4   -1    0    0    0  501 -0.00000000000E+00 -0.00000000000E+00 -0.28959065970E+02  0.28959065970E+02  0.00000000000E+00 0.  1.
        -24    2    1    2    0    0 -0.57997378579E+02  0.99798828270E+01  0.14508465024E+03  0.17474167068E+03  0.77600269032E+02 0.  0.
         23    2    1    2    0    0  0.23268166014E+01 -0.61737362487E+01  0.18192960851E+03  0.20322911953E+03  0.90333623189E+02 0.  0.
         13    1    3    3    0    0 -0.52861392735E+02 -0.97542405265E+00  0.33690488084E+02  0.62692322347E+02  0.00000000000E+00 0. -1.
        -14    1    3    3    0    0 -0.51359858440E+01  0.10955306880E+02  0.11139416216E+03  0.11204934834E+03  0.00000000000E+00 0.  1.
        -11    1    4    4    0    0  0.42564227191E+02 -0.12694244083E+02  0.12893465079E+03  0.13637082328E+03  0.00000000000E+00 0. -1.
         11    1    4    4    0    0 -0.40237410590E+02  0.65205078340E+01  0.52994957726E+02  0.66858296252E+02  0.00000000000E+00 0.  1.
         -3    1    1    2    0  502  0.55670561977E+02 -0.38061465783E+01  0.22015299144E+03  0.22711459192E+03  0.00000000000E+00 0.  1.
<scales pt_clust_5="13000.00000" pt_clust_6="13000.00000" pt_clust_7="13000.00000" pt_clust_8="13000.00000" pt_clust_9="55.80052"></scales>
<clustering>
<clus scale="   55.801">  1  9  2 -1</clus>
<clus scale="   77.600">  5  6 -1 -1</clus>
<clus scale="   84.628">  2  5  1 -1</clus>
<clus scale="   90.334">  7  8 -1 -1</clus>
<clus scale="   55.801">  1  5  2 -1</clus>
</clustering>
</event>
<event>
 9    1  0.4067873E-005  0.1018227E+03  0.7546771E-02  0.1279360E+00
         21   -1    0    0  501  502  0.00000000000E+00  0.00000000000E+00  0.17497292178E+03  0.17497292178E+03  0.00000000000E+00 0.  1.
         -2   -1    0    0    0  501 -0.00000000000E+00 -0.00000000000E+00 -0.68810878376E+03  0.68810878376E+03  0.00000000000E+00 0.  1.
        -24    2    1    2    0    0 -0.42662521572E+02 -0.19379855176E+02 -0.63061816197E+03  0.63805546467E+03  0.85087250818E+02 0.  0.
         23    2    1    2    0    0  0.20832388476E+02  0.21512785307E+02 -0.92658288022E+01  0.96394237643E+02  0.91154841485E+02 0.  0.
         13    1    3    3    0    0 -0.21920461203E+02 -0.31237091833E+02 -0.10211518662E+03  0.10901272340E+03  0.00000000000E+00 0. -1.
        -14    1    3    3    0    0 -0.20742060369E+02  0.11857236657E+02 -0.52850297535E+03  0.52904274126E+03  0.00000000000E+00 0.  1.
        -13    1    4    4    0    0 -0.15299399947E+02 -0.29617550165E+02 -0.36222486275E+01  0.33531948969E+02  0.00000000000E+00 0. -1.
         13    1    4    4    0    0  0.36131788423E+02  0.51130335473E+02 -0.56435801747E+01  0.62862288674E+02  0.00000000000E+00 0.  1.
         -1    1    1    2    0  502  0.21830133096E+02 -0.21329301315E+01  0.12674812880E+03  0.12863200323E+03  0.00000000000E+00 0.  1.
<scales pt_clust_5="13000.00000" pt_clust_6="13000.00000" pt_clust_7="13000.00000" pt_clust_8="13000.00000" pt_clust_9="21.93409"></scales>
<clustering>
<clus scale="   21.934">  1  9  2 -1</clus>
<clus scale="   85.087">  5  6 -1 -1</clus>
<clus scale="   91.155">  7  8 -1 -1</clus>
<clus scale="   96.429">  2  5  1 -1</clus>
<clus scale="   21.934">  1  5  2 -1</clus>
</clustering>
</event>
<event>
 9    1  0.4067873E-005  0.1120207E+03  0.7546771E-02  0.1265685E+00
         21   -1    0    0  501  502  0.00000000000E+00  0.00000000000E+00  0.22053932466E+03  0.22053932466E+03  0.00000000000E+00 0.  1.
          1   -1    0    0  502    0 -0.00000000000E+00 -0.00000000000E+00 -0.80711580631E+02  0.80711580631E+02  0.00000000000E+00 0. -1.
        -24    2    1    2    0    0  0.51999541400E+02 -0.17944146221E+02  0.47198930789E+01  0.97518419366E+02  0.80384202649E+02 0.  0.
         23    2    1    2    0    0 -0.42185290718E+02 -0.14982834585E+02  0.71153906484E+02  0.13113350112E+03  0.10064309526E+03 0.  0.
         13    1    3    3    0    0  0.65903006071E+02  0.36068226993E+01 -0.11749177960E+02  0.67039231514E+02  0.00000000000E+00 0. -1.
        -14    1    3    3    0    0 -0.13903464671E+02 -0.21550968921E+02  0.16469071039E+02  0.30479187853E+02  0.00000000000E+00 0.  1.
        -13    1    4    4    0    0 -0.42943147113E+02  0.29753497675E+02  0.68720886726E+02  0.86324647583E+02  0.00000000000E+00 0. -1.
         13    1    4    4    0    0  0.75785639465E+00 -0.44736332260E+02  0.24330197577E+01  0.44808853540E+02  0.00000000000E+00 0.  1.
          2    1    1    2  501    0 -0.98142506820E+01  0.32926980806E+02  0.63953944463E+02  0.72598984799E+02  0.00000000000E+00 0. -1.
<scales pt_clust_5="13000.00000" pt_clust_6="13000.00000" pt_clust_7="13000.00000" pt_clust_8="13000.00000" pt_clust_9="34.35849"></scales>
<clustering>
<clus scale="   34.358">  1  9  2 -1</clus>
<clus scale="   80.384">  5  6 -1 -1</clus>
<clus scale="   94.240">  2  5  1 -1</clus>
<clus scale="  100.643">  7  8 -1 -1</clus>
<clus scale="   34.358">  1  5  2 -1</clus>
</clustering>
</event>
<event>
 9    1  0.4067873E-005  0.2201611E+03  0.7546771E-02  0.1134314E+00
         21   -1    0    0  501  502  0.00000000000E+00  0.00000000000E+00  0.50360313114E+03  0.50360313114E+03  0.00000000000E+00 0.  1.
          1   -1    0    0  502    0 -0.00000000000E+00 -0.00000000000E+00 -0.25561018764E+03  0.25561018764E+03  0.00000000000E+00 0. -1.
         23    2    1    2    0    0 -0.20602342421E+03  0.21637264161E+02 -0.14706163284E+03  0.26972392747E+03  0.90609329953E+02 0.  0.
        -24    2    1    2    0    0  0.17279754619E+03 -0.49676016104E+02  0.17238940546E+03  0.26261958524E+03  0.83212023732E+02 0.  0.
         11    1    4    4    0    0  0.60594365677E+02 -0.12565951178E+02  0.11425341619E+02  0.62929474112E+02  0.00000000000E+00 0. -1.
        -12    1    4    4    0    0  0.11220318051E+03 -0.37110064926E+02  0.16096406384E+03  0.19969011113E+03  0.00000000000E+00 0.  1.
        -13    1    3    3    0    0 -0.29958277626E+02 -0.21173279937E+02 -0.55967338019E+02  0.66918974189E+02  0.00000000000E+00 0.  1.
         13    1    3    3    0    0 -0.17606514658E+03  0.42810544097E+02 -0.91094294819E+02  0.20280495328E+03  0.00000000000E+00 0. -1.
          2    1    1    2  501    0  0.33225878022E+02  0.28038751943E+02  0.22266517088E+03  0.22686980606E+03  0.00000000000E+00 0. -1.
<scales pt_clust_5="13000.00000" pt_clust_6="13000.00000" pt_clust_7="13000.00000" pt_clust_8="13000.00000" pt_clust_9="43.47563"></scales>
<clustering>
<clus scale="   43.476">  1  9  2 -1</clus>
<clus scale="   83.212">  5  6 -1 -1</clus>
<clus scale="   90.609">  7  8 -1 -1</clus>
<clus scale="  217.221">  1  5  2 -1</clus>
<clus scale="   43.476">  1  5  2 -1</clus>
</clustering>
</event>
<event>
 9    1  0.4067873E-005  0.1221912E+03  0.7546771E-02  0.1252415E+00
         21   -1    0    0  501  502  0.00000000000E+00  0.00000000000E+00  0.15762777917E+03  0.15762777917E+03  0.00000000000E+00 0. -1.
         -4   -1    0    0    0  501 -0.00000000000E+00 -0.00000000000E+00 -0.15547452609E+03  0.15547452609E+03  0.00000000000E+00 0.  1.
         23    2    1    2    0    0  0.20413642456E+02  0.13852811410E+02 -0.25103007144E+02  0.97573251939E+02  0.91004183112E+02 0.  0.
        -24    2    1    2    0    0  0.64567608447E+02  0.40684410317E+02  0.10585007052E+02  0.11318623608E+03  0.82914922427E+02 0.  0.
         11    1    4    4    0    0  0.22662789249E+02 -0.11652171144E+02  0.33715750082E+02  0.42262594721E+02  0.00000000000E+00 0. -1.
        -12    1    4    4    0    0  0.41904819197E+02  0.52336581461E+02 -0.23130743030E+02  0.70923641363E+02  0.00000000000E+00 0.  1.
        -13    1    3    3    0    0  0.23495126774E+02  0.48509046987E+02 -0.31158091530E+02  0.62257331211E+02  0.00000000000E+00 0. -1.
         13    1    3    3    0    0 -0.30814843184E+01 -0.34656235576E+02  0.60550843859E+01  0.35315920728E+02  0.00000000000E+00 0.  1.
         -3    1    1    2    0  502 -0.84981250902E+02 -0.54537221728E+02  0.16671253173E+02  0.10234281724E+03  0.00000000000E+00 0.  1.
<scales pt_clust_5="13000.00000" pt_clust_6="13000.00000" pt_clust_7="13000.00000" pt_clust_8="13000.00000" pt_clust_9="89.75415"></scales>
<clustering>
<clus scale="   82.915">  5  6 -1 -1</clus>
<clus scale="   91.004">  7  8 -1 -1</clus>
<clus scale="   94.289">  2  7  1 -1</clus>
<clus scale="   89.754">  1  9  2 -1</clus>
<clus scale="   89.754">  1  5  2 -1</clus>
</clustering>
</event>
<event>
 9    1  0.4067873E-005  0.1510369E+03  0.7546771E-02  0.1200997E+00
         21   -1    0    0  501  502  0.00000000000E+00  0.00000000000E+00  0.11346144493E+03  0.11346144493E+03  0.00000000000E+00 0.  1.
         -2   -1    0    0    0  501 -0.00000000000E+00 -0.00000000000E+00 -0.15111719902E+04  0.15111719902E+04  0.00000000000E+00 0.  1.
        -24    2    1    2    0    0 -0.12258761019E+03 -0.51568511502E+02 -0.11310707249E+04  0.11417114853E+04  0.80604574080E+02 0.  0.
         23    2    1    2    0    0  0.83027639742E+02  0.45767040573E+02 -0.35904396173E+03  0.38223841747E+03  0.90583830617E+02 0.  0.
         13    1    3    3    0    0 -0.58018272234E+02 -0.37592211669E+01 -0.23655662337E+03  0.24359656754E+03  0.00000000000E+00 0. -1.
        -14    1    3    3    0    0 -0.64569337951E+02 -0.47809290335E+02 -0.89451410156E+03  0.89811491778E+03  0.00000000000E+00 0.  1.
        -11    1    4    4    0    0 -0.12981324210E+02  0.27088048419E+02 -0.12540798918E+03  0.12895518949E+03  0.00000000000E+00 0.  1.
         11    1    4    4    0    0  0.96008963951E+02  0.18678992154E+02 -0.23363597255E+03  0.25328322798E+03  0.00000000000E+00 0. -1.
         -1    1    1    2    0  502  0.39559970443E+02  0.58014709289E+01  0.92404141423E+02  0.10068353231E+03  0.00000000000E+00 0.  1.
<scales pt_clust_5="13000.00000" pt_clust_6="13000.00000" pt_clust_7="13000.00000" pt_clust_8="13000.00000" pt_clust_9="39.98310"></scales>
<clustering>
<clus scale="   39.983">  1  9  2 -1</clus>
<clus scale="   80.605">  5  6 -1 -1</clus>
<clus scale="   90.584">  7  8 -1 -1</clus>
<clus scale="  145.272">  2  5  1 -1</clus>
<clus scale="   39.983">  1  5  2 -1</clus>
</clustering>
</event>
<event>
 9    1  0.4067873E-005  0.1199441E+03  0.7546771E-02  0.1247748E+00
         21   -1    0    0  501  502  0.00000000000E+00  0.00000000000E+00  0.21748738808E+03  0.21748738808E+03  0.00000000000E+00 0. -1.
          1   -1    0    0  502    0 -0.00000000000E+00 -0.00000000000E+00 -0.11785966365E+03  0.11785966365E+03  0.00000000000E+00 0. -1.
         23    2    1    2    0    0  0.83146119002E+01  0.76542902826E+02 -0.51936126805E+02  0.13061758422E+03  0.91845758178E+02 0.  0.
        -24    2    1    2    0    0 -0.30317058332E+02 -0.74292512369E+02  0.14201360525E+03  0.18063840891E+03  0.77613589532E+02 0.  0.
         13    1    4    4    0    0 -0.45723870251E+02 -0.31400565262E+02  0.38452969613E+02  0.67492952829E+02  0.00000000000E+00 0. -1.
        -14    1    4    4    0    0  0.15406811918E+02 -0.42891947107E+02  0.10356063563E+03  0.11314545609E+03  0.00000000000E+00 0.  1.
        -11    1    3    3    0    0 -0.40047437752E+02  0.17982610457E+02 -0.19008417855E+02  0.47838180345E+02  0.00000000000E+00 0.  1.
         11    1    3    3    0    0  0.48362049652E+02  0.58560292369E+02 -0.32927708950E+02  0.82779403873E+02  0.00000000000E+00 0. -1.
          2    1    1    2  501    0  0.22002446432E+02 -0.22503904576E+01  0.95502459911E+01  0.24091058605E+02  0.00000000000E+00 0. -1.
<scales pt_clust_5="13000.00000" pt_clust_6="13000.00000" pt_clust_7="13000.00000" pt_clust_8="13000.00000" pt_clust_9="22.11723"></scales>
<clustering>
<clus scale="   22.117">  1  9  2 -1</clus>
<clus scale="   77.614">  5  6 -1 -1</clus>
<clus scale="   91.846">  7  8 -1 -1</clus>
<clus scale="  109.429">  1  5  2 -1</clus>
<clus scale="   22.117">  1  5  2 -1</clus>
</clustering>
</event>
<event>
 9    1  0.4067873E-005  0.1503508E+03  0.7546771E-02  0.1209945E+00
         21   -1    0    0  501  502  0.00000000000E+00  0.00000000000E+00  0.59760923202E+02  0.59760923202E+02  0.00000000000E+00 0.  1.
         -2   -1    0    0    0  501 -0.00000000000E+00 -0.00000000000E+00 -0.89485590587E+03  0.89485590587E+03  0.00000000000E+00 0.  1.
        -24    2    1    2    0    0 -0.61152275000E+02  0.69066488738E+02 -0.55747011536E+03  0.57055173299E+03  0.79035244581E+02 0.  0.
         23    2    1    2    0    0 -0.32094451287E+01  0.41179682277E+02 -0.20106123732E+03  0.23520731605E+03  0.11485118023E+03 0.  0.
         13    1    3    3    0    0 -0.58246354718E+02  0.70324561397E+01 -0.30156696716E+03  0.30722097741E+03  0.00000000000E+00 0. -1.
        -14    1    3    3    0    0 -0.29059202818E+01  0.62034032598E+02 -0.25590314820E+03  0.26333075558E+03  0.00000000000E+00 0.  1.
        -13    1    4    4    0    0  0.18713101704E+02  0.55908222641E+02 -0.20028822121E+03  0.20878525113E+03  0.00000000000E+00 0. -1.
         13    1    4    4    0    0 -0.21922546833E+02 -0.14728540364E+02 -0.77301611748E+00  0.26422064924E+02  0.00000000000E+00 0.  1.
         -1    1    1    2    0  502  0.64361720129E+02 -0.11024617102E+03 -0.76563629985E+02  0.14885778004E+03  0.00000000000E+00 0.  1.
<scales pt_clust_5="13000.00000" pt_clust_6="13000.00000" pt_clust_7="13000.00000" pt_clust_8="13000.00000" pt_clust_9="97.02870"></scales>
<clustering>
<clus scale="   79.035">  5  6 -1 -1</clus>
<clus scale="  114.851">  7  8 -1 -1</clus>
<clus scale="  121.476">  2  5  1 -1</clus>
<clus scale="   97.029">  1  9  2 -1</clus>
<clus scale="   97.029">  1  5  2 -1</clus>
</clustering>
</event>
<event>
 9    1  0.4067873E-005  0.1361848E+03  0.7546771E-02  0.1221933E+00
          3   -1    0    0  502    0 -0.00000000000E+00  0.00000000000E+00  0.36112315894E+03  0.36112315894E+03  0.00000000000E+00 0. -1.
         21   -1    0    0  501  502  0.00000000000E+00 -0.00000000000E+00 -0.80684682664E+02  0.80684682664E+02  0.00000000000E+00 0. -1.
         23    2    1    2    0    0 -0.10166515646E+03 -0.45422532562E+02  0.23617823229E+03  0.27761682608E+03  0.94297053047E+02 0.  0.
        -24    2    1    2    0    0  0.76450725688E+02  0.77382077280E+01  0.42021492908E+02  0.11879401271E+03  0.80259692702E+02 0.  0.
         13    1    4    4    0    0  0.90461331799E+02  0.98779146040E+01  0.48605339963E+02  0.10316639385E+03  0.00000000000E+00 0. -1.
        -14    1    4    4    0    0 -0.14010606110E+02 -0.21397068760E+01 -0.65838470557E+01  0.15627618857E+02  0.00000000000E+00 0.  1.
        -11    1    3    3    0    0 -0.62110502178E+02 -0.66101665343E+02  0.10344039780E+03  0.13757565387E+03  0.00000000000E+00 0. -1.
         11    1    3    3    0    0 -0.39554654284E+02  0.20679132781E+02  0.13273783449E+03  0.14004117221E+03  0.00000000000E+00 0.  1.
          4    1    1    2  501    0  0.25214430774E+02  0.37684324834E+02  0.22387510729E+01  0.45397002807E+02  0.00000000000E+00 0. -1.
<scales pt_clust_5="13000.00000" pt_clust_6="13000.00000" pt_clust_7="13000.00000" pt_clust_8="13000.00000" pt_clust_9="45.34177"></scales>
<clustering>
<clus scale="   45.342">  2  9  1 -1</clus>
<clus scale="   80.260">  5  6 -1 -1</clus>
<clus scale="   94.297">  7  8 -1 -1</clus>
<clus scale="  126.870">  2  5  1 -1</clus>
<clus scale="   45.342">  2  5  1 -1</clus>
</clustering>
</event>
<event>
 9    1  0.4067873E-005  0.1876995E+03  0.7546771E-02  0.1161648E+00
         21   -1    0    0  501  502  0.00000000000E+00  0.00000000000E+00  0.89581200691E+02  0.89581200691E+02  0.00000000000E+00 0.  1.
          1   -1    0    0  502    0 -0.00000000000E+00 -0.00000000000E+00 -0.66438038268E+03  0.66438038268E+03  0.00000000000E+00 0. -1.
         23    2    1    2    0    0  0.15616022849E+03 -0.47371282921E+02 -0.49175307894E+03  0.52604710315E+03  0.90963776760E+02 0.  0.
        -24    2    1    2    0    0 -0.15440881060E+03  0.67496025920E+02 -0.88807977502E+02  0.20690800640E+03  0.80785344816E+02 0.  0.
         13    1    4    4    0    0 -0.76428279074E+02  0.11594709031E+01 -0.68276174591E+02  0.10249030311E+03  0.00000000000E+00 0. -1.
        -14    1    4    4    0    0 -0.77980531529E+02  0.66336555017E+02 -0.20531802911E+02  0.10441770329E+03  0.00000000000E+00 0.  1.
        -13    1    3    3    0    0  0.81057492012E+02 -0.96088916646E+01 -0.12150843172E+03  0.14637946164E+03  0.00000000000E+00 0.  1.
         13    1    3    3    0    0  0.75102736476E+02 -0.37762391256E+02 -0.37024464722E+03  0.37966764151E+03  0.00000000000E+00 0. -1.
          2    1    1    2  501    0 -0.17514178851E+01 -0.20124742999E+02  0.57618744474E+01  0.21006473825E+02  0.00000000000E+00 0. -1.
<scales pt_clust_5="13000.00000" pt_clust_6="13000.00000" pt_clust_7="13000.00000" pt_clust_8="13000.00000" pt_clust_9="20.20081"></scales>
<clustering>
<clus scale="   20.201">  1  9  2 -1</clus>
<clus scale="   80.785">  5  6 -1 -1</clus>
<clus scale="   90.964">  7  8 -1 -1</clus>
<clus scale="  182.984">  1  5  2 -1</clus>
<clus scale="   20.201">  1  5  2 -1</clus>
</clustering>
</event>
<event>
 9    1  0.4067873E-005  0.9544559E+02  0.7546771E-02  0.1305202E+00
          1   -1    0    0  502    0 -0.00000000000E+00  0.00000000000E+00  0.28612656251E+03  0.28612656251E+03  0.00000000000E+00 0. -1.
         21   -1    0    0  501  502  0.00000000000E+00 -0.00000000000E+00 -0.63570060828E+02  0.63570060828E+02  0.00000000000E+00 0. -1.
         23    2    1    2    0    0 -0.15491001350E+02 -0.36192174527E+02  0.21524509924E+03  0.23690239155E+03  0.90787916368E+02 0.  0.
        -24    2    1    2    0    0  0.71690563803E+01  0.79765500722E+01  0.32238871977E+02  0.74235770077E+02  0.66004423883E+02 0.  0.
         11    1    4    4    0    0  0.74009615091E+01 -0.28956324688E+02  0.13005219300E+02  0.32594151312E+02  0.00000000000E+00 0. -1.
        -12    1    4    4    0    0 -0.23190512880E+00  0.36932874761E+02  0.19233652678E+02  0.41641618765E+02  0.00000000000E+00 0.  1.
        -11    1    3    3    0    0 -0.45855818201E+02 -0.45624094725E+02  0.16732256224E+03  0.17939106421E+03  0.00000000000E+00 0. -1.
         11    1    3    3    0    0  0.30364816851E+02  0.94319201981E+01  0.47922536997E+02  0.57511327347E+02  0.00000000000E+00 0.  1.
          2    1    1    2  501    0  0.83219449695E+01  0.28215624455E+02 -0.24927469536E+02  0.38558461703E+02  0.00000000000E+00 0. -1.
<scales pt_clust_5="13000.00000" pt_clust_6="13000.00000" pt_clust_7="13000.00000" pt_clust_8="13000.00000" pt_clust_9="29.41728"></scales>
<clustering>
<clus scale="   29.417">  2  9  1 -1</clus>
<clus scale="   66.004">  5  6 -1 -1</clus>
<clus scale="   72.277">  2  5  1 -1</clus>
<clus scale="   90.788">  7  8 -1 -1</clus>
<clus scale="   29.417">  2  5  1 -1</clus>
</clustering>
</event>
<event>
 9    1  0.4067873E-005  0.9875013E+02  0.7546771E-02  0.1293495E+00
         21   -1    0    0  501  502  0.00000000000E+00  0.00000000000E+00  0.20831200668E+03  0.20831200668E+03  0.00000000000E+00 0.  1.
          1   -1    0    0  502    0 -0.00000000000E+00 -0.00000000000E+00 -0.69798026379E+02  0.69798026379E+02  0.00000000000E+00 0. -1.
        -24    2    1    2    0    0 -0.48743853173E+01 -0.15092247072E+01  0.55257388895E+02  0.96999060726E+02  0.79557534922E+02 0.  0.
         23    2    1    2    0    0 -0.43764742885E+01  0.36634877194E+02  0.96836780681E+02  0.14233196504E+03  0.97569249378E+02 0.  0.
         11    1    3    3    0    0 -0.21447201984E+02 -0.33423501990E+02  0.44103031878E+02  0.59348044442E+02  0.00000000000E+00 0. -1.
        -12    1    3    3    0    0  0.16572816667E+02  0.31914277283E+02  0.11154357017E+02  0.37651016284E+02  0.00000000000E+00 0.  1.
        -13    1    4    4    0    0 -0.29134473983E+02 -0.14482823376E+02  0.74509590287E+02  0.81303436532E+02  0.00000000000E+00 0.  1.
         13    1    4    4    0    0  0.24757999695E+02  0.51117700570E+02  0.22327190394E+02  0.61028528504E+02  0.00000000000E+00 0. -1.
          2    1    1    2  501    0  0.92508596058E+01 -0.35125652487E+02 -0.13580189276E+02  0.38779007295E+02  0.00000000000E+00 0. -1.
<scales pt_clust_5="13000.00000" pt_clust_6="13000.00000" pt_clust_7="13000.00000" pt_clust_8="13000.00000" pt_clust_9="36.32342"></scales>
<clustering>
<clus scale="   36.323">  1  9  2 -1</clus>
<clus scale="   79.558">  5  6 -1 -1</clus>
<clus scale="   81.001">  2  5  1 -1</clus>
<clus scale="   97.569">  7  8 -1 -1</clus>
<clus scale="   36.323">  1  5  2 -1</clus>
</clustering>
</event>
<event>
 9    1  0.4067873E-005  0.1641034E+03  0.7546771E-02  0.1203882E+00
          1   -1    0    0  502    0 -0.00000000000E+00  0.00000000000E+00  0.41634925388E+03  0.41634925388E+03  0.00000000000E+00 0. -1.
         21   -1    0    0  501  502  0.00000000000E+00 -0.00000000000E+00 -0.11042802548E+03  0.11042802548E+03  0.00000000000E+00 0. -1.
         23    2    1    2    0    0 -0.55747868781E+02  0.32931343382E+01  0.13347777176E+03  0.17070172039E+03  0.90576443859E+02 0.  0.
        -24    2    1    2    0    0  0.64709101700E+02  0.13465319909E+03  0.11137676052E+03  0.20495098791E+03  0.85330960343E+02 0.  0.
         11    1    4    4    0    0  0.74462805712E+02  0.12054912519E+03  0.12007057103E+03  0.18572491229E+03  0.00000000000E+00 0. -1.
        -12    1    4    4    0    0 -0.97537040121E+01  0.14104073901E+02 -0.86938105077E+01  0.19226075619E+02  0.00000000000E+00 0.  1.
        -13    1    3    3    0    0 -0.78476486183E+02  0.69125577206E+01  0.12136966396E+03  0.14469601815E+03  0.00000000000E+00 0. -1.
         13    1    3    3    0    0  0.22728617402E+02 -0.36194233823E+01  0.12108107803E+02  0.26005702243E+02  0.00000000000E+00 0.  1.
          2    1    1    2  501    0 -0.89612329187E+01 -0.13794633343E+03  0.61066696126E+02  0.15112457106E+03  0.00000000000E+00 0. -1.
<scales pt_clust_5="13000.00000" pt_clust_6="13000.00000" pt_clust_7="13000.00000" pt_clust_8="13000.00000" pt_clust_9="140.17331"></scales>
<clustering>
<clus scale="   85.331">  5  6 -1 -1</clus>
<clus scale="   90.576">  7  8 -1 -1</clus>
<clus scale="  106.408">  1  7  2 -1</clus>
<clus scale="  140.173">  2  9  1 -1</clus>
<clus scale="  140.173">  2  5  1 -1</clus>
</clustering>
</event>
<event>
 9    1  0.4067873E-005  0.9460647E+02  0.7546771E-02  0.1299406E+00
         21   -1    0    0  501  502  0.00000000000E+00  0.00000000000E+00  0.34271238629E+03  0.34271238629E+03  0.00000000000E+00 0. -1.
          1   -1    0    0  502    0 -0.00000000000E+00 -0.00000000000E+00 -0.12038856967E+03  0.12038856967E+03  0.00000000000E+00 0. -1.
        -24    2    1    2    0    0  0.26687799083E+01  0.17922333104E+02 -0.76015420047E+02  0.11175322226E+03  0.79888085414E+02 0.  0.
         23    2    1    2    0    0 -0.48683928986E+02 -0.26052098000E+02  0.97561868158E+02  0.14520448562E+03  0.92288611287E+02 0.  0.
         11    1    3    3    0    0 -0.18486043299E+02  0.35994901730E+02 -0.73390130775E+02  0.83806193343E+02  0.00000000000E+00 0. -1.
        -12    1    3    3    0    0  0.21154823207E+02 -0.18072568626E+02 -0.26252892713E+01  0.27947028919E+02  0.00000000000E+00 0.  1.
        -11    1    4    4    0    0 -0.21555280199E+02  0.17572796757E+02 -0.70229963872E+01  0.28683719574E+02  0.00000000000E+00 0. -1.
         11    1    4    4    0    0 -0.27128648787E+02 -0.43624894757E+02  0.10458486455E+03  0.11652076604E+03  0.00000000000E+00 0.  1.
          2    1    1    2  501    0  0.46015149078E+02  0.81297648960E+01  0.20077736851E+03  0.20614324808E+03  0.00000000000E+00 0. -1.
<scales pt_clust_5="13000.00000" pt_clust_6="13000.00000" pt_clust_7="13000.00000" pt_clust_8="13000.00000" pt_clust_9="46.72780"></scales>
<clustering>
<clus scale="   46.728">  1  9  2 -1</clus>
<clus scale="   79.888">  5  6 -1 -1</clus>
<clus scale="   82.555">  2  5  1 -1</clus>
<clus scale="   92.289">  7  8 -1 -1</clus>
<clus scale="   46.728">  1  5  2 -1</clus>
</clustering>
</event>
<event>
 9    1  0.4067873E-005  0.1222339E+03  0.7546771E-02  0.1243012E+00
         -4   -1    0    0    0  501 -0.00000000000E+00  0.00000000000E+00  0.21747009729E+03  0.21747009729E+03  0.00000000000E+00 0.  1.
         21   -1    0    0  501  502  0.00000000000E+00 -0.00000000000E+00 -0.16100259840E+03  0.16100259840E+03  0.00000000000E+00 0. -1.
        -24    2    1    2    0    0 -0.71491306119E+02  0.20053862475E+01  0.10459620440E+03  0.15022594289E+03  0.80699687225E+02 0.  0.
         23    2    1    2    0    0  0.10105793296E+03 -0.52712339452E+02  0.82056762334E+01  0.14688986562E+03  0.92293027661E+02 0.  0.
         13    1    3    3    0    0 -0.10510641543E+02  0.36273026421E+02  0.33377761072E+02  0.50401200041E+02  0.00000000000E+00 0. -1.
        -14    1    3    3    0    0 -0.60980664576E+02 -0.34267640173E+02  0.71218443326E+02  0.99824742849E+02  0.00000000000E+00 0.  1.
        -13    1    4    4    0    0  0.31955791419E+02  0.24763948172E+02  0.14332985061E+02  0.42893591538E+02  0.00000000000E+00 0. -1.
         13    1    4    4    0    0  0.69102141543E+02 -0.77476287624E+02 -0.61273088275E+01  0.10399627408E+03  0.00000000000E+00 0.  1.
         -3    1    1    2    0  502 -0.29566626843E+02  0.50706953205E+02 -0.56334381739E+02  0.81356887183E+02  0.00000000000E+00 0.  1.
<scales pt_clust_5="13000.00000" pt_clust_6="13000.00000" pt_clust_7="13000.00000" pt_clust_8="13000.00000" pt_clust_9="58.69736"></scales>
<clustering>
<clus scale="   58.697">  2  9  1 -1</clus>
<clus scale="   80.700">  5  6 -1 -1</clus>
<clus scale="   92.293">  7  8 -1 -1</clus>
<clus scale="  113.735">  1  5  2 -1</clus>
<clus scale="   58.697">  2  5  1 -1</clus>
</clustering>
</event>
<event>
 9    1  0.4067873E-005  0.1122104E+03  0.7546771E-02  0.1260691E+00
         -2   -1    0    0    0  501 -0.00000000000E+00  0.00000000000E+00  0.34481140632E+03  0.34481140632E+03  0.00000000000E+00 0.  1.
         21   -1    0    0  501  502  0.00000000000E+00 -0.00000000000E+00 -0.55824272547E+02  0.55824272547E+02  0.00000000000E+00 0. -1.
         23    2    1    2    0    0  0.33096616577E+02  0.45331231320E+02  0.17675459158E+03  0.20758591927E+03  0.93270690311E+02 0.  0.
        -24    2    1    2    0    0 -0.22489745154E+02 -0.69216044680E+02  0.12281719420E+03  0.16485357389E+03  0.82437783537E+02 0.  0.
         11    1    4    4    0    0 -0.21440165400E+02 -0.49019165760E+02  0.15578859858E+02  0.55724861405E+02  0.00000000000E+00 0. -1.
        -12    1    4    4    0    0 -0.10495797544E+01 -0.20196878920E+02  0.10723833434E+03  0.10912871249E+03  0.00000000000E+00 0.  1.
        -11    1    3    3    0    0  0.53974660468E+02  0.25302961144E+02  0.50706431647E+02  0.78260117721E+02  0.00000000000E+00 0. -1.
         11    1    3    3    0    0 -0.20878043891E+02  0.20028270176E+02  0.12604815993E+03  0.12932580155E+03  0.00000000000E+00 0.  1.
         -1    1    1    2    0  502 -0.10606871423E+02  0.23884813360E+02 -0.10584652008E+02  0.28196185712E+02  0.00000000000E+00 0.  1.
<scales pt_clust_5="13000.00000" pt_clust_6="13000.00000" pt_clust_7="13000.00000" pt_clust_8="13000.00000" pt_clust_9="26.13408"></scales>
<clustering>
<clus scale="   26.134">  2  9  1 -1</clus>
<clus scale="   82.438">  5  6 -1 -1</clus>
<clus scale="   93.271">  7  8 -1 -1</clus>
<clus scale="  103.381">  2  5  1 -1</clus>
<clus scale="   26.134">  2  5  1 -1</clus>
</clustering>
</event>
<event>
 9    1  0.4067873E-005  0.1247500E+03  0.7546771E-02  0.1240316E+00
         -2   -1    0    0    0  501 -0.00000000000E+00  0.00000000000E+00  0.14932895466E+03  0.14932895466E+03  0.00000000000E+00 0.  1.
         21   -1    0    0  501  502  0.00000000000E+00 -0.00000000000E+00 -0.26139591777E+03  0.26139591777E+03  0.00000000000E+00 0. -1.
        -24    2    1    2    0    0 -0.61835141877E+02 -0.38570249526E+02  0.32491142632E+02  0.11241692332E+03  0.79187381439E+02 0.  0.
         23    2    1    2    0    0  0.12087951856E+03 -0.30598766912E+02 -0.44455040244E+02  0.16306293082E+03  0.95210956617E+02 0.  0.
         13    1    3    3    0    0  0.15372870220E+02 -0.24695132641E+02  0.10788725397E+02  0.31025333369E+02  0.00000000000E+00 0. -1.
        -14    1    3    3    0    0 -0.77208012097E+02 -0.13875116885E+02  0.21702417235E+02  0.81391589949E+02  0.00000000000E+00 0.  1.
        -11    1    4    4    0    0  0.78507737934E+02  0.21478266352E+02  0.20056633889E+01  0.81417464506E+02  0.00000000000E+00 0.  1.
         11    1    4    4    0    0  0.42371780623E+02 -0.52077033264E+02 -0.46460703633E+02  0.81645466309E+02  0.00000000000E+00 0. -1.
         -1    1    1    2    0  502 -0.59044376679E+02  0.69169016438E+02 -0.10010306549E+03  0.13524501829E+03  0.00000000000E+00 0.  1.
<scales pt_clust_5="13000.00000" pt_clust_6="13000.00000" pt_clust_7="13000.00000" pt_clust_8="13000.00000" pt_clust_9="90.94279"></scales>
<clustering>
<clus scale="   79.187">  5  6 -1 -1</clus>
<clus scale="   90.943">  2  9  1 -1</clus>
<clus scale="   95.211">  7  8 -1 -1</clus>
<clus scale="  112.996">  1  5  2 -1</clus>
<clus scale="   90.943">  2  5  1 -1</clus>
</clustering>
</event>
<event>
 9    1  0.4067873E-005  0.1699677E+03  0.7546771E-02  0.1206759E+00
         21   -1    0    0  501  502  0.00000000000E+00  0.00000000000E+00  0.41031178208E+03  0.41031178208E+03  0.00000000000E+00 0. -1.
          3   -1    0    0  502    0 -0.00000000000E+00 -0.00000000000E+00 -0.16545935308E+03  0.16545935308E+03  0.00000000000E+00 0. -1.
        -24    2    1    2    0    0 -0.36211666860E+02  0.29622837056E+02 -0.34234216423E+02  0.96308506061E+02  0.76906108168E+02 0.  0.
         23    2    1    2    0    0  0.81730948520E+02  0.10982482919E+03 -0.50874734208E-01  0.16412881901E+03  0.90536321932E+02 0.  0.
         11    1    3    3    0    0  0.44722043985E+01  0.26490678522E+02  0.16248581097E+02  0.31397022923E+02  0.00000000000E+00 0. -1.
        -12    1    3    3    0    0 -0.40683871258E+02  0.31321585338E+01 -0.50482797520E+02  0.64911483138E+02  0.00000000000E+00 0.  1.
        -13    1    4    4    0    0  0.41404282910E+02  0.27670449098E+02  0.40345521447E+02  0.64091571188E+02  0.00000000000E+00 0.  1.
         13    1    4    4    0    0  0.40326665611E+02  0.82154380090E+02 -0.40396396181E+02  0.10003724782E+03  0.00000000000E+00 0. -1.
          4    1    1    2  501    0 -0.45519281660E+02 -0.13944766624E+03  0.27913752016E+03  0.31533381009E+03  0.00000000000E+00 0. -1.
<scales pt_clust_5="13000.00000" pt_clust_6="13000.00000" pt_clust_7="13000.00000" pt_clust_8="13000.00000" pt_clust_9="143.84781"></scales>
<clustering>
<clus scale="   76.906">  5  6 -1 -1</clus>
<clus scale="   90.019">  2  5  1 -1</clus>
<clus scale="   90.536">  7  8 -1 -1</clus>
<clus scale="  143.848">  1  9  2 -1</clus>
<clus scale="  143.848">  1  5  2 -1</clus>
</clustering>
</event>
<event>
 9    1  0.4067873E-005  0.1093607E+03  0.7546771E-02  0.1268001E+00
         21   -1    0    0  501  502  0.00000000000E+00  0.00000000000E+00  0.13886602236E+03  0.13886602236E+03  0.00000000000E+00 0. -1.
          1   -1    0    0  502    0 -0.00000000000E+00 -0.00000000000E+00 -0.19533901766E+03  0.19533901766E+03  0.00000000000E+00 0. -1.
         23    2    1    2    0    0  0.19151661333E+02 -0.46680450398E+02 -0.10856262049E+03  0.15316685151E+03  0.95542614853E+02 0.  0.
        -24    2    1    2    0    0  0.22665700087E+02  0.66927878724E+02 -0.48849564751E+01  0.10752116309E+03  0.80894145651E+02 0.  0.
         13    1    4    4    0    0  0.26890048740E+02  0.76246450737E+02 -0.25275220670E+02  0.84707926142E+02  0.00000000000E+00 0. -1.
        -14    1    4    4    0    0 -0.42243486531E+01 -0.93185720136E+01  0.20390264195E+02  0.22813236944E+02  0.00000000000E+00 0.  1.
        -13    1    3    3    0    0  0.52117955825E+02 -0.35099685016E+02 -0.98447091130E+02  0.11679083423E+03  0.00000000000E+00 0. -1.
         13    1    3    3    0    0 -0.32966294492E+02 -0.11580765381E+02 -0.10115529365E+02  0.36376017287E+02  0.00000000000E+00 0.  1.
          2    1    1    2  501    0 -0.41817361419E+02 -0.20247428326E+02  0.56974581666E+02  0.73517025415E+02  0.00000000000E+00 0. -1.
<scales pt_clust_5="13000.00000" pt_clust_6="13000.00000" pt_clust_7="13000.00000" pt_clust_8="13000.00000" pt_clust_9="46.46127"></scales>
<clustering>
<clus scale="   46.461">  1  9  2 -1</clus>
<clus scale="   80.894">  5  6 -1 -1</clus>
<clus scale="   95.543">  7  8 -1 -1</clus>
<clus scale="   96.826">  1  5  2 -1</clus>
<clus scale="   46.461">  1  5  2 -1</clus>
</clustering>
</event>
<event>
 9    1  0.4067873E-005  0.9663351E+02  0.7546771E-02  0.1295934E+00
         21   -1    0    0  501  502  0.00000000000E+00  0.00000000000E+00  0.21304166504E+03  0.21304166504E+03  0.00000000000E+00 0.  1.
          3   -1    0    0  502    0 -0.00000000000E+00 -0.00000000000E+00 -0.67188450290E+02  0.67188450290E+02  0.00000000000E+00 0. -1.
         23    2    1    2    0    0  0.22094449856E+02  0.17672909580E+02  0.23910706635E+02  0.10075612198E+03  0.93699401154E+02 0.  0.
        -24    2    1    2    0    0 -0.25873292010E+02  0.25605880570E+02  0.70024697856E+02  0.11177766888E+03  0.79156178478E+02 0.  0.
         13    1    4    4    0    0 -0.14302775258E+02  0.43501680759E+02  0.83795927619E+01  0.46553014766E+02  0.00000000000E+00 0. -1.
        -14    1    4    4    0    0 -0.11570516752E+02 -0.17895800189E+02  0.61645105094E+02  0.65224654115E+02  0.00000000000E+00 0.  1.
        -13    1    3    3    0    0 -0.28297945867E+02 -0.19440644605E+02  0.15281000018E+02  0.37579533851E+02  0.00000000000E+00 0.  1.
         13    1    3    3    0    0  0.50392395723E+02  0.37113554185E+02  0.86297066176E+01  0.63176588126E+02  0.00000000000E+00 0. -1.
          4    1    1    2  501    0  0.37788421539E+01 -0.43278790151E+02  0.51917810259E+02  0.67696324472E+02  0.00000000000E+00 0. -1.
<scales pt_clust_5="13000.00000" pt_clust_6="13000.00000" pt_clust_7="13000.00000" pt_clust_8="13000.00000" pt_clust_9="43.44345"></scales>
<clustering>
<clus scale="   43.443">  1  9  2 -1</clus>
<clus scale="   79.156">  5  6 -1 -1</clus>
<clus scale="   82.608">  1  5  2 -1</clus>
<clus scale="   93.699">  7  8 -1 -1</clus>
<clus scale="   43.443">  1  5  2 -1</clus>
</clustering>
</event>
<event>
 9    1  0.4067873E-005  0.1226051E+03  0.7546771E-02  0.1241802E+00
         21   -1    0    0  501  502  0.00000000000E+00  0.00000000000E+00  0.29717612795E+03  0.29717612795E+03  0.00000000000E+00 0.  1.
          1   -1    0    0  502    0 -0.00000000000E+00 -0.00000000000E+00 -0.10557591625E+03  0.10557591625E+03  0.00000000000E+00 0. -1.
        -24    2    1    2    0    0 -0.91615957912E+01 -0.66395593112E+02  0.56119342580E+02  0.11914360425E+03  0.80953741110E+02 0.  0.
         23    2    1    2    0    0 -0.82677808872E+02  0.89643078408E+02  0.64160060512E+02  0.16502690867E+03  0.90806748834E+02 0.  0.
         11    1    3    3    0    0  0.31590188750E+02 -0.30078992354E+02  0.46427750541E+02  0.63704174326E+02  0.00000000000E+00 0. -1.
        -12    1    3    3    0    0 -0.40751784541E+02 -0.36316600758E+02  0.96915920389E+01  0.55439429923E+02  0.00000000000E+00 0.  1.
        -13    1    4    4    0    0 -0.73164421867E+02  0.71237845959E+02  0.48832327894E+01  0.10223360155E+03  0.00000000000E+00 0. -1.
         13    1    4    4    0    0 -0.95133870050E+01  0.18405232449E+02  0.59276827722E+02  0.62793307116E+02  0.00000000000E+00 0.  1.
          2    1    1    2  501    0  0.91839404663E+02 -0.23247485296E+02  0.71320808610E+02  0.11858153129E+03  0.00000000000E+00 0. -1.
<scales pt_clust_5="13000.00000" pt_clust_6="13000.00000" pt_clust_7="13000.00000" pt_clust_8="13000.00000" pt_clust_9="94.73606"></scales>
<clustering>
<clus scale="   80.954">  5  6 -1 -1</clus>
<clus scale="   90.807">  7  8 -1 -1</clus>
<clus scale="   94.736">  1  9  2 -1</clus>
<clus scale="  115.497">  2  5  1 -1</clus>
<clus scale="   94.736">  1  5  2 -1</clus>
</clustering>
</event>
<event>
 9    1  0.4067873E-005  0.1681660E+03  0.7546771E-02  0.1182211E+00
         -2   -1    0    0    0  501 -0.00000000000E+00  0.00000000000E+00  0.90555203110E+02  0.90555203110E+02  0.00000000000E+00 0.  1.
         21   -1    0    0  501  502  0.00000000000E+00 -0.00000000000E+00 -0.61222993155E+03  0.61222993155E+03  0.00000000000E+00 0.  1.
        -24    2    1    2    0    0 -0.83621372811E+02  0.63503713804E+02 -0.10640120984E+03  0.18377317414E+03  0.10689296713E+03 0.  0.
         23    2    1    2    0    0  0.16350730355E+03 -0.10387719253E+03 -0.34018855598E+03  0.40218075182E+03  0.92173716792E+02 0.  0.
         13    1    3    3    0    0 -0.12118208579E+02  0.69285556838E+02 -0.23536602852E+02  0.74170823369E+02  0.00000000000E+00 0. -1.
        -14    1    3    3    0    0 -0.71503164232E+02 -0.57818430337E+01 -0.82864606989E+02  0.10960235078E+03  0.00000000000E+00 0.  1.
        -11    1    4    4    0    0  0.50613103365E+02 -0.88148045192E+01 -0.16655235584E+03  0.17429593869E+03  0.00000000000E+00 0.  1.
         11    1    4    4    0    0  0.11289420019E+03 -0.95062388009E+02 -0.17363620015E+03  0.22788481312E+03  0.00000000000E+00 0. -1.
         -1    1    1    2    0  502 -0.79885930744E+02  0.40373478724E+02 -0.75084962623E+02  0.11683120870E+03  0.00000000000E+00 0.  1.
<scales pt_clust_5="13000.00000" pt_clust_6="13000.00000" pt_clust_7="13000.00000" pt_clust_8="13000.00000" pt_clust_9="89.50859"></scales>
<clustering>
<clus scale="   89.509">  2  9  1 -1</clus>
<clus scale="   92.174">  7  8 -1 -1</clus>
<clus scale="  106.893">  5  6 -1 -1</clus>
<clus scale="  159.216">  2  7  1 -1</clus>
<clus scale="   89.509">  2  5  1 -1</clus>
</clustering>
</event>
<event>
 9    1  0.4067873E-005  0.9645008E+02  0.7546771E-02  0.1291123E+00
         -2   -1    0    0    0  501 -0.00000000000E+00  0.00000000000E+00  0.45109959267E+02  0.45109959267E+02  0.00000000000E+00 0.  1.
         21   -1    0    0  501  502  0.00000000000E+00 -0.00000000000E+00 -0.52019926632E+03  0.52019926632E+03  0.00000000000E+00 0. -1.
         23    2    1    2    0    0  0.22478207190E+02 -0.13462033979E+02 -0.13834731386E+03  0.16631687138E+03  0.88514554155E+02 0.  0.
        -24    2    1    2    0    0 -0.56982482553E+02 -0.65028922911E+02 -0.24979996883E+03  0.27688465202E+03  0.82397341969E+02 0.  0.
         13    1    4    4    0    0 -0.17940243694E+02 -0.76625940159E+02 -0.16288378697E+03  0.18089918492E+03  0.00000000000E+00 0. -1.
        -14    1    4    4    0    0 -0.39042238858E+02  0.11597017247E+02 -0.86916181864E+02  0.95985467097E+02  0.00000000000E+00 0.  1.
        -13    1    3    3    0    0  0.49758142937E+02  0.11470859531E+02 -0.10401604806E+03  0.11587403359E+03  0.00000000000E+00 0. -1.
         13    1    3    3    0    0 -0.27279935746E+02 -0.24932893510E+02 -0.34331265801E+02  0.50442837793E+02  0.00000000000E+00 0.  1.
         -1    1    1    2    0  502  0.34504275362E+02  0.78490956891E+02 -0.86942024362E+02  0.12210770218E+03  0.00000000000E+00 0.  1.
<scales pt_clust_5="13000.00000" pt_clust_6="13000.00000" pt_clust_7="13000.00000" pt_clust_8="13000.00000" pt_clust_9="85.74020"></scales>
<clustering>
<clus scale="   82.397">  5  6 -1 -1</clus>
<clus scale="   85.740">  2  9  1 -1</clus>
<clus scale="   88.515">  7  8 -1 -1</clus>
<clus scale="   90.869">  2  5  1 -1</clus>
<clus scale="   85.740">  2  5  1 -1</clus>
</clustering>
</event>
<event>
 9    1  0.4067873E-005  0.1244999E+03  0.7546771E-02  0.1240384E+00
         21   -1    0    0  501  502  0.00000000000E+00  0.00000000000E+00  0.26194726103E+03  0.26194726103E+03  0.00000000000E+00 0. -1.
         -2   -1    0    0    0  501 -0.00000000000E+00 -0.00000000000E+00 -0.12558606284E+03  0.12558606284E+03  0.00000000000E+00 0.  1.
        -24    2    1    2    0    0  0.76402602590E+02 -0.27868983440E+02 -0.61334538289E+02  0.12636891784E+03  0.74787297641E+02 0.  0.
         23    2    1    2    0    0 -0.10498315400E+03  0.30145283744E+02  0.16137350576E+03  0.21488985680E+03  0.90587203486E+02 0.  0.
         11    1    3    3    0    0  0.40741644422E+02 -0.38915312059E+02 -0.21352829637E+01  0.56381225033E+02  0.00000000000E+00 0. -1.
        -12    1    3    3    0    0  0.35660958168E+02  0.11046328619E+02 -0.59199255325E+02  0.69987692807E+02  0.00000000000E+00 0.  1.
        -11    1    4    4    0    0 -0.77763063550E+02  0.32839884948E+02  0.45626695879E+02  0.95954924173E+02  0.00000000000E+00 0.  1.
         11    1    4    4    0    0 -0.27220090453E+02 -0.26946012045E+01  0.11574680988E+03  0.11893493262E+03  0.00000000000E+00 0. -1.
         -1    1    1    2    0  502  0.28580551413E+02 -0.22763003037E+01  0.36322230717E+02  0.46274549230E+02  0.00000000000E+00 0.  1.
<scales pt_clust_5="13000.00000" pt_clust_6="13000.00000" pt_clust_7="13000.00000" pt_clust_8="13000.00000" pt_clust_9="28.67106"></scales>
<clustering>
<clus scale="   28.671">  1  9  2 -1</clus>
<clus scale="   74.787">  5  6 -1 -1</clus>
<clus scale="   90.587">  7  8 -1 -1</clus>
<clus scale="  113.522">  2  5  1 -1</clus>
<clus scale="   28.671">  1  5  2 -1</clus>
</clustering>
</event>
<event>
 9    1  0.4067873E-005  0.9117832E+02  0.7546771E-02  0.1301452E+00
          1   -1    0    0  502    0 -0.00000000000E+00  0.00000000000E+00  0.96424748833E+02  0.96424748833E+02  0.00000000000E+00 0. -1.
         21   -1    0    0  501  502  0.00000000000E+00 -0.00000000000E+00 -0.16612197796E+03  0.16612197796E+03  0.00000000000E+00 0. -1.
         23    2    1    2    0    0  0.11317242713E+02  0.76075828335E+01 -0.39957245055E+02  0.95090407869E+02  0.85203573500E+02 0.  0.
        -24    2    1    2    0    0 -0.43477189040E+02  0.56115595455E+01 -0.65255470826E+02  0.11775362611E+03  0.87669176010E+02 0.  0.
         13    1    4    4    0    0 -0.51762481253E+02  0.36079053123E+02 -0.28313580248E+02  0.69157149784E+02  0.00000000000E+00 0. -1.
        -14    1    4    4    0    0  0.82852922137E+01 -0.30467493578E+02 -0.36941890578E+02  0.48596476327E+02  0.00000000000E+00 0.  1.
        -13    1    3    3    0    0  0.14549048288E+02  0.41115994786E+02 -0.43053253878E+02  0.61284439321E+02  0.00000000000E+00 0.  1.
         13    1    3    3    0    0 -0.32318055756E+01 -0.33508411953E+02  0.30960088232E+01  0.33805968549E+02  0.00000000000E+00 0. -1.
          2    1    1    2  501    0  0.32159946327E+02 -0.13219142379E+02  0.35515486756E+02  0.49702692810E+02  0.00000000000E+00 0. -1.
<scales pt_clust_5="13000.00000" pt_clust_6="13000.00000" pt_clust_7="13000.00000" pt_clust_8="13000.00000" pt_clust_9="34.77081"></scales>
<clustering>
<clus scale="   34.771">  2  9  1 -1</clus>
<clus scale="   85.204">  7  8 -1 -1</clus>
<clus scale="   87.669">  5  6 -1 -1</clus>
<clus scale="   88.810">  1  7  2 -1</clus>
<clus scale="   34.771">  2  5  1 -1</clus>
</clustering>
</event>
<event>
 9    1  0.4067873E-005  0.1139020E+03  0.7546771E-02  0.1256702E+00
          1   -1    0    0  502    0 -0.00000000000E+00  0.00000000000E+00  0.40248607336E+03  0.40248607336E+03  0.00000000000E+00 0. -1.
         21   -1    0    0  501  502  0.00000000000E+00 -0.00000000000E+00 -0.22608837021E+03  0.22608837021E+03  0.00000000000E+00 0. -1.
         23    2    1    2    0    0 -0.28777069519E+02  0.61451290709E+02  0.28294040548E+03  0.30507246358E+03  0.91703621113E+02 0.  0.
        -24    2    1    2    0    0  0.57203155365E+00 -0.71437222956E+02  0.79385748884E+02  0.13518142354E+03  0.82875304535E+02 0.  0.
         11    1    4    4    0    0  0.26700923355E+02 -0.78412773330E+01  0.56044146068E+02  0.62572927426E+02  0.00000000000E+00 0. -1.
        -12    1    4    4    0    0 -0.26128891801E+02 -0.63595945623E+02  0.23341602816E+02  0.72608496117E+02  0.00000000000E+00 0.  1.
        -13    1    3    3    0    0  0.17343903656E+02 -0.14272694823E+02  0.33414500114E+02  0.40262260609E+02  0.00000000000E+00 0.  1.
         13    1    3    3    0    0 -0.46120973175E+02  0.75723985532E+02  0.24952590536E+03  0.26481020298E+03  0.00000000000E+00 0. -1.
          2    1    1    2  501    0  0.28205037966E+02  0.99859322464E+01 -0.18592845121E+03  0.18832055644E+03  0.00000000000E+00 0. -1.
<scales pt_clust_5="13000.00000" pt_clust_6="13000.00000" pt_clust_7="13000.00000" pt_clust_8="13000.00000" pt_clust_9="29.92061"></scales>
<clustering>
<clus scale="   29.921">  2  9  1 -1</clus>
<clus scale="   82.875">  5  6 -1 -1</clus>
<clus scale="   91.704">  7  8 -1 -1</clus>
<clus scale="  106.923">  2  5  1 -1</clus>
<clus scale="   29.921">  2  5  1 -1</clus>
</clustering>
</event>
<event>
 9    1  0.4067873E-005  0.1326260E+03  0.7546771E-02  0.1227315E+00
         21   -1    0    0  501  502  0.00000000000E+00  0.00000000000E+00  0.10611730038E+03  0.10611730038E+03  0.00000000000E+00 0. -1.
          1   -1    0    0  502    0 -0.00000000000E+00 -0.00000000000E+00 -0.78717938974E+03  0.78717938974E+03  0.00000000000E+00 0. -1.
         23    2    1    2    0    0  0.42166816236E+02 -0.63205409848E+02 -0.38678658784E+03  0.40533443288E+03  0.94441377153E+02 0.  0.
        -24    2    1    2    0    0 -0.52908902872E+02  0.10532054525E+03 -0.37231088946E+03  0.39863925445E+03  0.80038037996E+02 0.  0.
         11    1    4    4    0    0 -0.10143635675E+02  0.50696178106E+02 -0.62287852399E+02  0.80949196263E+02  0.00000000000E+00 0. -1.
        -12    1    4    4    0    0 -0.42765267197E+02  0.54624367142E+02 -0.31002303706E+03  0.31769005819E+03  0.00000000000E+00 0.  1.
        -13    1    3    3    0    0  0.54939340697E+02 -0.18093831036E+02 -0.31011988334E+03  0.31546800142E+03  0.00000000000E+00 0. -1.
         13    1    3    3    0    0 -0.12772524461E+02 -0.45111578813E+02 -0.76666704503E+02  0.89866431460E+02  0.00000000000E+00 0.  1.
          2    1    1    2  501    0  0.10742086636E+02 -0.42115135400E+02  0.78035387943E+02  0.89323002784E+02  0.00000000000E+00 0. -1.
<scales pt_clust_5="13000.00000" pt_clust_6="13000.00000" pt_clust_7="13000.00000" pt_clust_8="13000.00000" pt_clust_9="43.46351"></scales>
<clustering>
<clus scale="   43.464">  1  9  2 -1</clus>
<clus scale="   80.038">  5  6 -1 -1</clus>
<clus scale="   94.441">  7  8 -1 -1</clus>
<clus scale="  122.787">  1  5  2 -1</clus>
<clus scale="   43.464">  1  5  2 -1</clus>
</clustering>
</event>
<event>
 9    1  0.4067873E-005  0.1071294E+03  0.7546771E-02  0.1271256E+00
         21   -1    0    0  501  502  0.00000000000E+00  0.00000000000E+00  0.14452673564E+03  0.14452673564E+03  0.00000000000E+00 0.  1.
          3   -1    0    0  502    0 -0.00000000000E+00 -0.00000000000E+00 -0.19528224437E+03  0.19528224437E+03  0.00000000000E+00 0. -1.
         23    2    1    2    0    0 -0.30695394087E+02  0.56974419977E+02 -0.11206210588E+03  0.15920943884E+03  0.92743938288E+02 0.  0.
        -24    2    1    2    0    0  0.47987668464E+02  0.13194081745E+02  0.51293142964E+02  0.10764126095E+03  0.80490710192E+02 0.  0.
         13    1    4    4    0    0  0.10472578553E+02  0.38126424196E+02  0.21583329007E+00  0.39539166753E+02  0.00000000000E+00 0. -1.
        -14    1    4    4    0    0  0.37515089910E+02 -0.24932342451E+02  0.51077309674E+02  0.68102094202E+02  0.00000000000E+00 0.  1.
        -11    1    3    3    0    0 -0.40456584137E+02 -0.60049008591E+01 -0.15976862403E+02  0.43909613602E+02  0.00000000000E+00 0.  1.
         11    1    3    3    0    0  0.97611900502E+01  0.62979320836E+02 -0.96085243480E+02  0.11529982523E+03  0.00000000000E+00 0. -1.
          4    1    1    2  501    0 -0.17292274376E+02 -0.70168501722E+02  0.10013454190E+02  0.72958280215E+02  0.00000000000E+00 0. -1.
<scales pt_clust_5="13000.00000" pt_clust_6="13000.00000" pt_clust_7="13000.00000" pt_clust_8="13000.00000" pt_clust_9="72.26784"></scales>
<clustering>
<clus scale="   72.268">  1  9  2 -1</clus>
<clus scale="   80.491">  5  6 -1 -1</clus>
<clus scale="   92.744">  7  8 -1 -1</clus>
<clus scale="   96.716">  1  5  2 -1</clus>
<clus scale="   72.268">  1  5  2 -1</clus>
</clustering>
</event>
<event>
 9    1  0.4067873E-005  0.9853926E+02  0.7546771E-02  0.1287722E+00
          1   -1    0    0  502    0 -0.00000000000E+00  0.00000000000E+00  0.26112838603E+03  0.26112838603E+03  0.00000000000E+00 0. -1.
         21   -1    0    0  501  502  0.00000000000E+00 -0.00000000000E+00 -0.11000784169E+03  0.11000784169E+03  0.00000000000E+00 0. -1.
         23    2    1    2    0    0  0.29324406402E+02 -0.11752961060E+02  0.59627795352E+02  0.11269883775E+03  0.90263509499E+02 0.  0.
        -24    2    1    2    0    0 -0.31742070719E+02  0.67041043109E+02 -0.38687888561E+02  0.11698204185E+03  0.81767871933E+02 0.  0.
         11    1    4    4    0    0 -0.44363795752E+02  0.15170462128E+02  0.61223557875E+01  0.47283956423E+02  0.00000000000E+00 0. -1.
        -12    1    4    4    0    0  0.12621725032E+02  0.51870580982E+02 -0.44810244349E+02  0.69698085431E+02  0.00000000000E+00 0.  1.
        -13    1    3    3    0    0  0.50687525701E+02  0.20857278653E+02  0.23814233474E+02  0.59760932476E+02  0.00000000000E+00 0. -1.
         13    1    3    3    0    0 -0.21363119299E+02 -0.32610239713E+02  0.35813561878E+02  0.52937905274E+02  0.00000000000E+00 0.  1.
          2    1    1    2  501    0  0.24176643175E+01 -0.55288082049E+02  0.13018063755E+03  0.14145534812E+03  0.00000000000E+00 0. -1.
<scales pt_clust_5="13000.00000" pt_clust_6="13000.00000" pt_clust_7="13000.00000" pt_clust_8="13000.00000" pt_clust_9="55.34094"></scales>
<clustering>
<clus scale="   55.341">  2  9  1 -1</clus>
<clus scale="   81.768">  5  6 -1 -1</clus>
<clus scale="   90.264">  7  8 -1 -1</clus>
<clus scale="   90.821">  2  5  1 -1</clus>
<clus scale="   55.341">  2  5  1 -1</clus>
</clustering>
</event>
<event>
 9    1  0.4067873E-005  0.1242598E+03  0.7546771E-02  0.1256701E+00
          1   -1    0    0  502    0 -0.00000000000E+00  0.00000000000E+00  0.71028106232E+03  0.71028106232E+03  0.00000000000E+00 0. -1.
         21   -1    0    0  501  502  0.00000000000E+00 -0.00000000000E+00 -0.43350618814E+02  0.43350618814E+02  0.00000000000E+00 0.  1.
        -24    2    1    2    0    0 -0.15518710008E+02  0.11333950045E+02  0.19750756190E+03  0.21398865788E+03  0.80078835580E+02 0.  0.
         23    2    1    2    0    0 -0.47905227251E+02 -0.67440675251E+02  0.96672090164E+02  0.15739478853E+03  0.92652420173E+02 0.  0.
         13    1    3    3    0    0  0.20105302824E+02  0.24566422523E+01  0.93962749169E+01  0.22328194623E+02  0.00000000000E+00 0. -1.
        -14    1    3    3    0    0 -0.35624012832E+02  0.88773077928E+01  0.18811128699E+03  0.19166046326E+03  0.00000000000E+00 0.  1.
        -13    1    4    4    0    0 -0.67905287214E+02 -0.73374232279E+02  0.64247285484E+02  0.11883862876E+03  0.00000000000E+00 0.  1.
         13    1    4    4    0    0  0.20000059964E+02  0.59335570279E+01  0.32424804680E+02  0.38556159768E+02  0.00000000000E+00 0. -1.
          2    1    1    2  501    0  0.63423937258E+02  0.56106725206E+02  0.37275079144E+03  0.38224823473E+03  0.00000000000E+00 0. -1.
<scales pt_clust_5="13000.00000" pt_clust_6="13000.00000" pt_clust_7="13000.00000" pt_clust_8="13000.00000" pt_clust_9="82.80113"></scales>
<clustering>
<clus scale="   80.079">  5  6 -1 -1</clus>
<clus scale="   82.352">  1  5  2 -1</clus>
<clus scale="   82.801">  2  9  1 -1</clus>
<clus scale="   92.652">  7  8 -1 -1</clus>
<clus scale="   82.801">  2  5  1 -1</clus>
</clustering>
</event>
<event>
 9    1  0.4067873E-005  0.1318314E+03  0.7546771E-02  0.1228291E+00
          1   -1    0    0  502    0 -0.00000000000E+00  0.00000000000E+00  0.13676167758E+04  0.13676167758E+04  0.00000000000E+00 0. -1.
         21   -1    0    0  501  502  0.00000000000E+00 -0.00000000000E+00 -0.21773455050E+02  0.21773455050E+02  0.00000000000E+00 0. -1.
         23    2    1    2    0    0  0.72504934444E+02 -0.23246576270E+02  0.61823570015E+03  0.63003946805E+03  0.94535609852E+02 0.  0.
        -24    2    1    2    0    0 -0.12468079161E+03 -0.18065077421E+02  0.53463884199E+03  0.55522844085E+03  0.81044946438E+02 0.  0.
         11    1    4    4    0    0 -0.85902874014E+02  0.26793659943E+02  0.34449329151E+03  0.35605172640E+03  0.00000000000E+00 0. -1.
        -12    1    4    4    0    0 -0.38777917601E+02 -0.44858737364E+02  0.19014555048E+03  0.19917671445E+03  0.00000000000E+00 0.  1.
        -13    1    3    3    0    0  0.95574718768E+02 -0.16717987729E+02  0.47457541929E+03  0.48439224455E+03  0.00000000000E+00 0.  1.
         13    1    3    3    0    0 -0.23069784323E+02 -0.65285885410E+01  0.14366028086E+03  0.14564722350E+03  0.00000000000E+00 0. -1.
          2    1    1    2  501    0  0.52175857170E+02  0.41311653690E+02  0.19296877863E+03  0.20412232197E+03  0.00000000000E+00 0. -1.
<scales pt_clust_5="13000.00000" pt_clust_6="13000.00000" pt_clust_7="13000.00000" pt_clust_8="13000.00000" pt_clust_9="66.55053"></scales>
<clustering>
<clus scale="   66.551">  2  9  1 -1</clus>
<clus scale="   81.045">  5  6 -1 -1</clus>
<clus scale="   94.536">  7  8 -1 -1</clus>
<clus scale="  122.519">  2  5  1 -1</clus>
<clus scale="   66.551">  2  5  1 -1</clus>
</clustering>
</event>
<event>
 9    1  0.4067873E-005  0.1682062E+03  0.7546771E-02  0.1200395E+00
         -4   -1    0    0    0  501 -0.00000000000E+00  0.00000000000E+00  0.24206313513E+03  0.24206313513E+03  0.00000000000E+00 0.  1.
         21   -1    0    0  501  502  0.00000000000E+00 -0.00000000000E+00 -0.18716220228E+03  0.18716220228E+03  0.00000000000E+00 0. -1.
        -24    2    1    2    0    0 -0.29395771482E+02  0.67182886772E+02  0.25444852876E+02  0.10955052567E+03  0.77306050743E+02 0.  0.
         23    2    1    2    0    0  0.13485481955E+03  0.36978665662E+02  0.34582611541E+02  0.17135919843E+03  0.92815805738E+02 0.  0.
         11    1    3    3    0    0  0.22320097689E+02  0.43613890509E+02  0.18166461280E+02  0.52253024043E+02  0.00000000000E+00 0. -1.
        -12    1    3    3    0    0 -0.51715869171E+02  0.23568996263E+02  0.72783915962E+01  0.57297501631E+02  0.00000000000E+00 0.  1.
        -11    1    4    4    0    0  0.10888498032E+03  0.10206864327E+02 -0.13842733286E+02  0.11023493223E+03  0.00000000000E+00 0. -1.
         11    1    4    4    0    0  0.25969839225E+02  0.26771801335E+02  0.48425344828E+02  0.61124266194E+02  0.00000000000E+00 0.  1.
         -3    1    1    2    0  502 -0.10545904807E+03 -0.10416155243E+03 -0.51265315624E+01  0.14831561331E+03  0.00000000000E+00 0.  1.
<scales pt_clust_5="13000.00000" pt_clust_6="13000.00000" pt_clust_7="13000.00000" pt_clust_8="13000.00000" pt_clust_9="140.28032"></scales>
<clustering>
<clus scale="   77.306">  5  6 -1 -1</clus>
<clus scale="   92.816">  7  8 -1 -1</clus>
<clus scale="  106.555">  1  5  2 -1</clus>
<clus scale="  140.280">  2  9  1 -1</clus>
<clus scale="  140.280">  2  5  1 -1</clus>
</clustering>
</event>
<event>
 9    1  0.4067873E-005  0.8912087E+02  0.7546771E-02  0.1307402E+00
          1   -1    0    0  502    0 -0.00000000000E+00  0.00000000000E+00  0.55066793160E+02  0.55066793160E+02  0.00000000000E+00 0. -1.
         21   -1    0    0  501  502  0.00000000000E+00 -0.00000000000E+00 -0.42414761302E+03  0.42414761302E+03  0.00000000000E+00 0. -1.
        -24    2    1    2    0    0 -0.26853824499E+02 -0.24619566386E+02  0.11103479212E+01  0.85770907104E+02  0.77641256389E+02 0.  0.
         23    2    1    2    0    0 -0.46234188525E+01  0.44003541239E+02 -0.22184049956E+03  0.24055636393E+03  0.81831957945E+02 0.  0.
         11    1    3    3    0    0 -0.27711188138E+02 -0.38446453305E+02  0.28340180212E+02  0.55219611863E+02  0.00000000000E+00 0. -1.
        -12    1    3    3    0    0  0.85736363884E+00  0.13826886920E+02 -0.27229832291E+02  0.30551295241E+02  0.00000000000E+00 0.  1.
        -11    1    4    4    0    0  0.15471999389E+02  0.34804910246E+02 -0.21359993166E+03  0.21696934196E+03  0.00000000000E+00 0. -1.
         11    1    4    4    0    0 -0.20095418242E+02  0.91986309930E+01 -0.82405678930E+01  0.23587021975E+02  0.00000000000E+00 0.  1.
          2    1    1    2  501    0  0.31477243352E+02 -0.19383974854E+02 -0.14835066823E+03  0.15288713515E+03  0.00000000000E+00 0. -1.
<scales pt_clust_5="13000.00000" pt_clust_6="13000.00000" pt_clust_7="13000.00000" pt_clust_8="13000.00000" pt_clust_9="36.96695"></scales>
<clustering>
<clus scale="   36.967">  2  9  1 -1</clus>
<clus scale="   77.641">  5  6 -1 -1</clus>
<clus scale="   81.832">  7  8 -1 -1</clus>
<clus scale="   85.289">  1  5  2 -1</clus>
<clus scale="   36.967">  2  5  1 -1</clus>
</clustering>
</event>
<event>
 9    1  0.4067873E-005  0.1324858E+03  0.7546771E-02  0.1223825E+00
         21   -1    0    0  501  502  0.00000000000E+00  0.00000000000E+00  0.15102531749E+03  0.15102531749E+03  0.00000000000E+00 0. -1.
         -2   -1    0    0    0  501 -0.00000000000E+00 -0.00000000000E+00 -0.30214641339E+03  0.30214641339E+03  0.00000000000E+00 0.  1.
        -24    2    1    2    0    0  0.46007046370E+02 -0.78732665146E+02 -0.19866109241E+03  0.23688607295E+03  0.91286916051E+02 0.  0.
         23    2    1    2    0    0 -0.36848627826E+02  0.12270694862E+03  0.62046744111E+02  0.16908332788E+03  0.91239008639E+02 0.  0.
         13    1    3    3    0    0  0.17339321592E+02 -0.91585912273E+02 -0.11835861456E+03  0.15065653998E+03  0.00000000000E+00 0. -1.
        -14    1    3    3    0    0  0.28667724777E+02  0.12853247127E+02 -0.80302477855E+02  0.86229532964E+02  0.00000000000E+00 0.  1.
        -11    1    4    4    0    0 -0.64901334822E+02  0.80402784131E+02  0.57169015224E+02  0.11808931899E+03  0.00000000000E+00 0. -1.
         11    1    4    4    0    0  0.28052706995E+02  0.42304164494E+02  0.48777288870E+01  0.50994008887E+02  0.00000000000E+00 0.  1.
         -1    1    1    2    0  502 -0.91584185433E+01 -0.43974283479E+02 -0.14506747601E+02  0.47202330066E+02  0.00000000000E+00 0.  1.
<scales pt_clust_5="13000.00000" pt_clust_6="13000.00000" pt_clust_7="13000.00000" pt_clust_8="13000.00000" pt_clust_9="44.91786"></scales>
<clustering>
<clus scale="   44.918">  1  9  2 -1</clus>
<clus scale="   91.239">  7  8 -1 -1</clus>
<clus scale="   91.287">  5  6 -1 -1</clus>
<clus scale="  132.453">  1  7  2 -1</clus>
<clus scale="   44.918">  1  5  2 -1</clus>
</clustering>
</event>
<event>
 9    1  0.4067873E-005  0.1770151E+03  0.7546771E-02  0.1202307E+00
         21   -1    0    0  501  502  0.00000000000E+00  0.00000000000E+00  0.62284312215E+02  0.62284312215E+02  0.00000000000E+00 0.  1.
         -2   -1    0    0    0  501 -0.00000000000E+00 -0.00000000000E+00 -0.75925760408E+03  0.75925760408E+03  0.00000000000E+00 0.  1.
        -24    2    1    2    0    0 -0.22001285620E+02  0.28345111018E+02 -0.24752142406E+03  0.26260421950E+03  0.80041357092E+02 0.  0.
         23    2    1    2    0    0 -0.11244851638E+03  0.75215313518E+02 -0.22651483027E+03  0.27875483955E+03  0.89962658995E+02 0.  0.
         11    1    3    3    0    0  0.35780908670E+01 -0.24300470870E+02 -0.39578799173E+02  0.46581079450E+02  0.00000000000E+00 0. -1.
        -12    1    3    3    0    0 -0.25579376487E+02  0.52645581889E+02 -0.20794262489E+03  0.21602314005E+03  0.00000000000E+00 0.  1.
        -13    1    4    4    0    0 -0.73174820665E+02  0.35881512660E+02 -0.20234928227E+03  0.21814506496E+03  0.00000000000E+00 0. -1.
         13    1    4    4    0    0 -0.39273695719E+02  0.39333800859E+02 -0.24165547998E+02  0.60609774586E+02  0.00000000000E+00 0.  1.
         -1    1    1    2    0  502  0.13444980200E+03 -0.10356042454E+03 -0.22293703753E+03  0.28018285724E+03  0.00000000000E+00 0.  1.
<scales pt_clust_5="13000.00000" pt_clust_6="13000.00000" pt_clust_7="13000.00000" pt_clust_8="13000.00000" pt_clust_9="152.45033"></scales>
<clustering>
<clus scale="   80.041">  5  6 -1 -1</clus>
<clus scale="   87.716">  2  5  1 -1</clus>
<clus scale="   89.963">  7  8 -1 -1</clus>
<clus scale="  152.450">  1  9  2 -1</clus>
<clus scale="  152.450">  1  5  2 -1</clus>
</clustering>
</event>
<event>
 9    1  0.4067873E-005  0.9657944E+02  0.7546771E-02  0.1293869E+00
          1   -1    0    0  502    0 -0.00000000000E+00  0.00000000000E+00  0.48675841478E+03  0.48675841478E+03  0.00000000000E+00 0. -1.
         21   -1    0    0  501  502  0.00000000000E+00 -0.00000000000E+00 -0.80114773893E+02  0.80114773893E+02  0.00000000000E+00 0. -1.
        -24    2    1    2    0    0  0.33963373160E+02 -0.11038669989E+02  0.33430650223E+03  0.34527240041E+03  0.78592811979E+02 0.  0.
         23    2    1    2    0    0 -0.11280873162E+02  0.39099041150E+02 -0.37718380016E+02  0.10578154364E+03  0.90061454940E+02 0.  0.
         11    1    3    3    0    0  0.58225977083E+02 -0.65539035551E+01  0.27239004640E+03  0.27862080941E+03  0.00000000000E+00 0. -1.
        -12    1    3    3    0    0 -0.24262603924E+02 -0.44847664335E+01  0.61916455835E+02  0.66651590996E+02  0.00000000000E+00 0.  1.
        -11    1    4    4    0    0 -0.69150236748E+01 -0.20135949007E+02  0.15257861722E+02  0.26193058988E+02  0.00000000000E+00 0.  1.
         11    1    4    4    0    0 -0.43658494870E+01  0.59234990158E+02 -0.52976241738E+02  0.79588484653E+02  0.00000000000E+00 0. -1.
          2    1    1    2  501    0 -0.22682499998E+02 -0.28060371162E+02  0.11005551867E+03  0.11581924462E+03  0.00000000000E+00 0. -1.
<scales pt_clust_5="13000.00000" pt_clust_6="13000.00000" pt_clust_7="13000.00000" pt_clust_8="13000.00000" pt_clust_9="36.08160"></scales>
<clustering>
<clus scale="   36.082">  2  9  1 -1</clus>
<clus scale="   78.593">  5  6 -1 -1</clus>
<clus scale="   85.985">  1  5  2 -1</clus>
<clus scale="   90.061">  7  8 -1 -1</clus>
<clus scale="   36.082">  2  5  1 -1</clus>
</clustering>
</event>
<event>
 9    1  0.4067873E-005  0.1108901E+03  0.7546771E-02  0.1264707E+00
         -4   -1    0    0    0  501 -0.00000000000E+00  0.00000000000E+00  0.17218644945E+03  0.17218644945E+03  0.00000000000E+00 0.  1.
         21   -1    0    0  501  502  0.00000000000E+00 -0.00000000000E+00 -0.24757876944E+03  0.24757876944E+03  0.00000000000E+00 0. -1.
        -24    2    1    2    0    0 -0.29981021628E+02 -0.91251631730E+01  0.11506462002E+03  0.15896506049E+03  0.10510895972E+03 0.  0.
         23    2    1    2    0    0  0.50888034035E+02  0.36212388769E+01 -0.46823527467E+02  0.11554881228E+03  0.92500702248E+02 0.  0.
         11    1    3    3    0    0 -0.12382573281E+02  0.47432108830E+02  0.64973472950E+02  0.81392169502E+02  0.00000000000E+00 0. -1.
        -12    1    3    3    0    0 -0.17598448347E+02 -0.56557272003E+02  0.50091147074E+02  0.77572890985E+02  0.00000000000E+00 0.  1.
        -11    1    4    4    0    0  0.13867059448E+02  0.42243094228E+02 -0.12349191997E-01  0.44460932291E+02  0.00000000000E+00 0.  1.
         11    1    4    4    0    0  0.37020974587E+02 -0.38621855351E+02 -0.46811178275E+02  0.71087879991E+02  0.00000000000E+00 0. -1.
         -3    1    1    2    0  502 -0.20907012407E+02  0.55039242961E+01 -0.14363341254E+03  0.14525134612E+03  0.00000000000E+00 0.  1.
<scales pt_clust_5="13000.00000" pt_clust_6="13000.00000" pt_clust_7="13000.00000" pt_clust_8="13000.00000" pt_clust_9="21.61935"></scales>
<clustering>
<clus scale="   21.619">  2  9  1 -1</clus>
<clus scale="   92.501">  7  8 -1 -1</clus>
<clus scale="   99.021">  2  7  1 -1</clus>
<clus scale="  105.109">  5  6 -1 -1</clus>
<clus scale="   21.619">  2  5  1 -1</clus>
</clustering>
</event>
<event>
 9    1  0.4067873E-005  0.2957099E+03  0.7546771E-02  0.1088867E+00
         21   -1    0    0  501  502  0.00000000000E+00  0.00000000000E+00  0.20065861857E+03  0.20065861857E+03  0.00000000000E+00 0. -1.
          1   -1    0    0  502    0 -0.00000000000E+00 -0.00000000000E+00 -0.99850059013E+03  0.99850059013E+03  0.00000000000E+00 0. -1.
        -24    2    1    2    0    0  0.60451172551E+02 -0.26433160965E+03 -0.72253565602E+03  0.77594823327E+03  0.80699085379E+02 0.  0.
         23    2    1    2    0    0 -0.15259215721E+03  0.25153926599E+03 -0.22848751145E+02  0.31641490259E+03  0.11419262839E+03 0.  0.
         13    1    3    3    0    0  0.66667887293E+02 -0.13336775869E+03 -0.43734718658E+03  0.46206506887E+03  0.00000000000E+00 0. -1.
        -14    1    3    3    0    0 -0.62167147412E+01 -0.13096385096E+03 -0.28518846943E+03  0.31388316441E+03  0.00000000000E+00 0.  1.
        -13    1    4    4    0    0  0.17886641073E+02  0.14237810226E+02 -0.65014183776E+01  0.23767953421E+02  0.00000000000E+00 0.  1.
         13    1    4    4    0    0 -0.17047879828E+03  0.23730145576E+03 -0.16347332768E+02  0.29264694917E+03  0.00000000000E+00 0. -1.
          2    1    1    2  501    0  0.92140984657E+02  0.12792343660E+02 -0.52457564393E+02  0.10679607283E+03  0.00000000000E+00 0. -1.
<scales pt_clust_5="13000.00000" pt_clust_6="13000.00000" pt_clust_7="13000.00000" pt_clust_8="13000.00000" pt_clust_9="93.02476"></scales>
<clustering>
<clus scale="   80.699">  5  6 -1 -1</clus>
<clus scale="   93.025">  1  9  2 -1</clus>
<clus scale="  114.193">  7  8 -1 -1</clus>
<clus scale="  284.459">  2  5  1 -1</clus>
<clus scale="   93.025">  1  5  2 -1</clus>
</clustering>
</event>
<event>
 9    1  0.4067873E-005  0.1489860E+03  0.7546771E-02  0.1203962E+00
         21   -1    0    0  501  502  0.00000000000E+00  0.00000000000E+00  0.21511660626E+03  0.21511660626E+03  0.00000000000E+00 0.  1.
         -2   -1    0    0    0  501 -0.00000000000E+00 -0.00000000000E+00 -0.30631090976E+03  0.30631090976E+03  0.00000000000E+00 0.  1.
         23    2    1    2    0    0 -0.55776814519E+02 -0.10278947599E+03 -0.22461682915E+03  0.26982862330E+03  0.93155979968E+02 0.  0.
        -24    2    1    2    0    0  0.10584203903E+03  0.67386133012E+02  0.11116459400E+03  0.18636593388E+03  0.81432586862E+02 0.  0.
         11    1    4    4    0    0  0.28062449612E+02 -0.14168158656E+02  0.55652921910E+01  0.31925072829E+02  0.00000000000E+00 0. -1.
        -12    1    4    4    0    0  0.77779589417E+02  0.81554291668E+02  0.10559930180E+03  0.15444086105E+03  0.00000000000E+00 0.  1.
        -13    1    3    3    0    0 -0.19302943308E+02 -0.10082217254E+03 -0.20275182739E+03  0.22725760187E+03  0.00000000000E+00 0.  1.
         13    1    3    3    0    0 -0.36473871211E+02 -0.19673034506E+01 -0.21865001752E+02  0.42571021431E+02  0.00000000000E+00 0. -1.
         -1    1    1    2    0  502 -0.50065224510E+02  0.35403342974E+02  0.22257931641E+02  0.65232958847E+02  0.00000000000E+00 0.  1.
<scales pt_clust_5="13000.00000" pt_clust_6="13000.00000" pt_clust_7="13000.00000" pt_clust_8="13000.00000" pt_clust_9="61.31821"></scales>
<clustering>
<clus scale="   61.318">  1  9  2 -1</clus>
<clus scale="   81.433">  5  6 -1 -1</clus>
<clus scale="   93.156">  7  8 -1 -1</clus>
<clus scale="  141.951">  1  5  2 -1</clus>
<clus scale="   61.318">  1  5  2 -1</clus>
</clustering>
</event>
<event>
 9    1  0.4067873E-005  0.1346735E+03  0.7546771E-02  0.1224124E+00
          1   -1    0    0  502    0 -0.00000000000E+00  0.00000000000E+00  0.27727072873E+03  0.27727072873E+03  0.00000000000E+00 0. -1.
         21   -1    0    0  501  502  0.00000000000E+00 -0.00000000000E+00 -0.84988422685E+02  0.84988422685E+02  0.00000000000E+00 0.  1.
         23    2    1    2    0    0  0.93514052144E+02  0.47375450520E+02  0.12652741079E+03  0.18899869545E+03  0.93391701665E+02 0.  0.
        -24    2    1    2    0    0 -0.59829563941E+02 -0.68365404219E+02  0.48523968372E+02  0.12999236446E+03  0.79309735183E+02 0.  0.
         11    1    4    4    0    0 -0.63391322515E+02 -0.39957315617E+02  0.15124838217E+01  0.74948878903E+02  0.00000000000E+00 0. -1.
        -12    1    4    4    0    0  0.35617585739E+01 -0.28408088601E+02  0.47011484550E+02  0.55043485552E+02  0.00000000000E+00 0.  1.
        -11    1    3    3    0    0 -0.36025908410E+01  0.31729811249E+02  0.44835663396E+01  0.32246890544E+02  0.00000000000E+00 0.  1.
         11    1    3    3    0    0  0.97116642985E+02  0.15645639271E+02  0.12204384445E+03  0.15675180490E+03  0.00000000000E+00 0. -1.
          2    1    1    2  501    0 -0.33684488203E+02  0.20989953699E+02  0.17230926886E+02  0.43268091513E+02  0.00000000000E+00 0. -1.
<scales pt_clust_5="13000.00000" pt_clust_6="13000.00000" pt_clust_7="13000.00000" pt_clust_8="13000.00000" pt_clust_9="39.68908"></scales>
<clustering>
<clus scale="   39.689">  2  9  1 -1</clus>
<clus scale="   79.310">  5  6 -1 -1</clus>
<clus scale="   93.392">  7  8 -1 -1</clus>
<clus scale="  125.320">  2  5  1 -1</clus>
<clus scale="   39.689">  2  5  1 -1</clus>
</clustering>
</event>
<event>
 9    1  0.4067873E-005  0.1256870E+03  0.7546771E-02  0.1238091E+00
         21   -1    0    0  501  502  0.00000000000E+00  0.00000000000E+00  0.17397310871E+03  0.17397310871E+03  0.00000000000E+00 0.  1.
         -2   -1    0    0    0  501 -0.00000000000E+00 -0.00000000000E+00 -0.12642510638E+03  0.12642510638E+03  0.00000000000E+00 0.  1.
         23    2    1    2    0    0 -0.80100903992E+02 -0.38434140208E+02 -0.34076934701E+02  0.13345998582E+03  0.93578803065E+02 0.  0.
        -24    2    1    2    0    0  0.76898985616E+02  0.12926927424E+02  0.40639273469E+02  0.11855750168E+03  0.79522142918E+02 0.  0.
         11    1    4    4    0    0  0.36468696262E+02 -0.24535084392E+02 -0.84380960121E+01  0.44756425656E+02  0.00000000000E+00 0. -1.
        -12    1    4    4    0    0  0.40430289353E+02  0.37462011816E+02  0.49077369482E+02  0.73801076020E+02  0.00000000000E+00 0.  1.
        -13    1    3    3    0    0 -0.53490521387E+01 -0.25962013524E+02  0.25712534760E+02  0.36929296619E+02  0.00000000000E+00 0.  1.
         13    1    3    3    0    0 -0.74751851853E+02 -0.12472126683E+02 -0.59789469460E+02  0.96530689202E+02  0.00000000000E+00 0. -1.
         -1    1    1    2    0  502  0.32019183766E+01  0.25507212784E+02  0.40985663558E+02  0.48380727595E+02  0.00000000000E+00 0.  1.
<scales pt_clust_5="13000.00000" pt_clust_6="13000.00000" pt_clust_7="13000.00000" pt_clust_8="13000.00000" pt_clust_9="25.70740"></scales>
<clustering>
<clus scale="   25.707">  1  9  2 -1</clus>
<clus scale="   79.522">  5  6 -1 -1</clus>
<clus scale="   93.579">  7  8 -1 -1</clus>
<clus scale="  115.603">  1  5  2 -1</clus>
<clus scale="   25.707">  1  5  2 -1</clus>
</clustering>
</event>
<event>
 9    1  0.4067873E-005  0.9300171E+02  0.7546771E-02  0.1300624E+00
         21   -1    0    0  501  502  0.00000000000E+00  0.00000000000E+00  0.12241878292E+03  0.12241878292E+03  0.00000000000E+00 0.  1.
         -2   -1    0    0    0  501 -0.00000000000E+00 -0.00000000000E+00 -0.75302584600E+03  0.75302584600E+03  0.00000000000E+00 0.  1.
        -24    2    1    2    0    0  0.15812877233E+01  0.32600162944E+02 -0.66015313220E+03  0.66578902637E+03  0.80047477058E+02 0.  0.
         23    2    1    2    0    0  0.49580637354E+02  0.35985956858E+02 -0.21835866783E+02  0.10984727753E+03  0.88523390188E+02 0.  0.
         13    1    3    3    0    0  0.13298654856E+02 -0.22837036248E+02 -0.13304886682E+03  0.13564802028E+03  0.00000000000E+00 0. -1.
        -14    1    3    3    0    0 -0.11717367133E+02  0.55437199192E+02 -0.52710426538E+03  0.53014100609E+03  0.00000000000E+00 0.  1.
        -13    1    4    4    0    0  0.62836586603E+02 -0.34670554714E+01 -0.25848569996E+02  0.68033856721E+02  0.00000000000E+00 0.  1.
         13    1    4    4    0    0 -0.13255949249E+02  0.39453012329E+02  0.40127032123E+01  0.41813420805E+02  0.00000000000E+00 0. -1.
         -1    1    1    2    0  502 -0.51161925077E+02 -0.68586119802E+02  0.51381935899E+02  0.99808325023E+02  0.00000000000E+00 0.  1.
<scales pt_clust_5="13000.00000" pt_clust_6="13000.00000" pt_clust_7="13000.00000" pt_clust_8="13000.00000" pt_clust_9="85.56634"></scales>
<clustering>
<clus scale="   80.047">  5  6 -1 -1</clus>
<clus scale="   85.566">  1  9  2 -1</clus>
<clus scale="   84.974">  2  5  1 -1</clus>
<clus scale="   88.523">  7  8 -1 -1</clus>
<clus scale="   85.566">  1  5  2 -1</clus>
</clustering>
</event>
<event>
 9    1  0.4067873E-005  0.1422455E+03  0.7546771E-02  0.1212212E+00
         21   -1    0    0  501  502  0.00000000000E+00  0.00000000000E+00  0.31681345744E+03  0.31681345744E+03  0.00000000000E+00 0. -1.
          3   -1    0    0  502    0 -0.00000000000E+00 -0.00000000000E+00 -0.15233812759E+03  0.15233812759E+03  0.00000000000E+00 0. -1.
        -24    2    1    2    0    0  0.86196187005E+02 -0.71669962344E+02 -0.80155696941E+02  0.15955167812E+03  0.80407935434E+02 0.  0.
         23    2    1    2    0    0 -0.48505608900E+02  0.98532611928E+02  0.20149507490E+03  0.24633149483E+03  0.89540328520E+02 0.  0.
         11    1    3    3    0    0  0.94747279855E+02 -0.36761802707E+02 -0.53860692780E+02  0.11501935231E+03  0.00000000000E+00 0. -1.
        -12    1    3    3    0    0 -0.85510928498E+01 -0.34908159637E+02 -0.26295004161E+02  0.44532325810E+02  0.00000000000E+00 0.  1.
        -13    1    4    4    0    0 -0.17452307545E+02 -0.11902334345E+02  0.10640407989E+02  0.23653052312E+02  0.00000000000E+00 0.  1.
         13    1    4    4    0    0 -0.31053301355E+02  0.11043494627E+03  0.19085466691E+03  0.22267844252E+03  0.00000000000E+00 0. -1.
          4    1    1    2  501    0 -0.37690578105E+02 -0.26862649584E+02  0.43135951897E+02  0.63268412075E+02  0.00000000000E+00 0. -1.
<scales pt_clust_5="13000.00000" pt_clust_6="13000.00000" pt_clust_7="13000.00000" pt_clust_8="13000.00000" pt_clust_9="46.28371"></scales>
<clustering>
<clus scale="   46.284">  1  9  2 -1</clus>
<clus scale="   80.408">  5  6 -1 -1</clus>
<clus scale="   89.540">  7  8 -1 -1</clus>
<clus scale="  136.681">  2  5  1 -1</clus>
<clus scale="   46.284">  1  5  2 -1</clus>
</clustering>
</event>
<event>
 9    1  0.4067873E-005  0.9672090E+02  0.7546771E-02  0.1292730E+00
          3   -1    0    0  502    0 -0.00000000000E+00  0.00000000000E+00  0.37188306222E+03  0.37188306222E+03  0.00000000000E+00 0. -1.
         21   -1    0    0  501  502  0.00000000000E+00 -0.00000000000E+00 -0.25299154406E+03  0.25299154406E+03  0.00000000000E+00 0. -1.
        -24    2    1    2    0    0  0.51674110612E+01 -0.37849212543E+02  0.33342535315E+03  0.34486703289E+03  0.79382234951E+02 0.  0.
         23    2    1    2    0    0 -0.17521938756E+02  0.16251987817E+02 -0.35421782079E+02  0.99175601752E+02  0.89498334573E+02 0.  0.
         11    1    3    3    0    0 -0.12849051943E+02 -0.58156358705E+02  0.25544472973E+03  0.26229614968E+03  0.00000000000E+00 0. -1.
        -12    1    3    3    0    0  0.18016463005E+02  0.20307146162E+02  0.77980623422E+02  0.82570883207E+02  0.00000000000E+00 0.  1.
        -11    1    4    4    0    0  0.10002102355E+02  0.38793134466E+02 -0.47005080175E+02  0.61761046749E+02  0.00000000000E+00 0.  1.
         11    1    4    4    0    0 -0.27524041111E+02 -0.22541146649E+02  0.11583298095E+02  0.37414555003E+02  0.00000000000E+00 0. -1.
          4    1    1    2  501    0  0.12354527695E+02  0.21597224726E+02 -0.17911205291E+03  0.18083197164E+03  0.00000000000E+00 0. -1.
<scales pt_clust_5="13000.00000" pt_clust_6="13000.00000" pt_clust_7="13000.00000" pt_clust_8="13000.00000" pt_clust_9="24.88121"></scales>
<clustering>
<clus scale="   24.881">  2  9  1 -1</clus>
<clus scale="   79.382">  5  6 -1 -1</clus>
<clus scale="   87.444">  1  5  2 -1</clus>
<clus scale="   89.498">  7  8 -1 -1</clus>
<clus scale="   24.881">  2  5  1 -1</clus>
</clustering>
</event>
<event>
 9    1  0.4067873E-005  0.1313678E+03  0.7546771E-02  0.1228931E+00
         -2   -1    0    0    0  501 -0.00000000000E+00  0.00000000000E+00  0.57851379839E+03  0.57851379839E+03  0.00000000000E+00 0.  1.
         21   -1    0    0  501  502  0.00000000000E+00 -0.00000000000E+00 -0.59748865552E+02  0.59748865552E+02  0.00000000000E+00 0. -1.
        -24    2    1    2    0    0 -0.65611755773E+02 -0.67136443049E+02  0.42609041622E+03  0.44352113400E+03  0.79660209844E+02 0.  0.
         23    2    1    2    0    0  0.44793863073E+02  0.78842042110E+02  0.10570242740E+03  0.16753615979E+03  0.93127890043E+02 0.  0.
         11    1    3    3    0    0 -0.13033021275E+02 -0.43501163372E+02  0.74599708722E+02  0.87334571617E+02  0.00000000000E+00 0. -1.
        -12    1    3    3    0    0 -0.52578734498E+02 -0.23635279677E+02  0.35149070750E+03  0.35618656239E+03  0.00000000000E+00 0.  1.
        -13    1    4    4    0    0  0.25079415923E+02  0.83344182943E+02  0.34679429964E+02  0.93690409307E+02  0.00000000000E+00 0. -1.
         13    1    4    4    0    0  0.19714447149E+02 -0.45021408327E+01  0.71022997441E+02  0.73845750480E+02  0.00000000000E+00 0.  1.
         -1    1    1    2    0  502  0.20817892700E+02 -0.11705599061E+02 -0.13027910784E+02  0.27205370155E+02  0.00000000000E+00 0.  1.
<scales pt_clust_5="13000.00000" pt_clust_6="13000.00000" pt_clust_7="13000.00000" pt_clust_8="13000.00000" pt_clust_9="23.88317"></scales>
<clustering>
<clus scale="   23.883">  2  9  1 -1</clus>
<clus scale="   79.660">  5  6 -1 -1</clus>
<clus scale="   93.128">  7  8 -1 -1</clus>
<clus scale="  122.190">  1  5  2 -1</clus>
<clus scale="   23.883">  2  5  1 -1</clus>
</clustering>
</event>
<event>
 9    1  0.4067873E-005  0.1244511E+03  0.7546771E-02  0.1253945E+00
         21   -1    0    0  501  502  0.00000000000E+00  0.00000000000E+00  0.25439377853E+03  0.25439377853E+03  0.00000000000E+00 0. -1.
          1   -1    0    0  502    0 -0.00000000000E+00 -0.00000000000E+00 -0.21939182879E+03  0.21939182879E+03  0.00000000000E+00 0. -1.
        -24    2    1    2    0    0 -0.16559276920E+02 -0.25244731158E+02 -0.15638629760E+03  0.17874943038E+03  0.81136789916E+02 0.  0.
         23    2    1    2    0    0 -0.75666592585E+02 -0.13162406018E+02  0.55538348422E+02  0.12640665928E+03  0.83638825906E+02 0.  0.
         13    1    3    3    0    0  0.24614600401E+02 -0.35796984092E+02 -0.89747160879E+02  0.99708853713E+02  0.00000000000E+00 0. -1.
        -14    1    3    3    0    0 -0.41173877320E+02  0.10552252934E+02 -0.66639136725E+02  0.79040576662E+02  0.00000000000E+00 0.  1.
        -13    1    4    4    0    0 -0.32092774451E+02 -0.36555133013E+02 -0.42329009505E+01  0.48827670147E+02  0.00000000000E+00 0. -1.
         13    1    4    4    0    0 -0.43573818134E+02  0.23392726995E+02  0.59771249373E+02  0.77578989132E+02  0.00000000000E+00 0.  1.
          2    1    1    2  501    0  0.92225869505E+02  0.38407137176E+02  0.13584989892E+03  0.16862951767E+03  0.00000000000E+00 0. -1.
<scales pt_clust_5="13000.00000" pt_clust_6="13000.00000" pt_clust_7="13000.00000" pt_clust_8="13000.00000" pt_clust_9="92.15549"></scales>
<clustering>
<clus scale="   81.137">  5  6 -1 -1</clus>
<clus scale="   83.639">  7  8 -1 -1</clus>
<clus scale="   86.572">  2  5  1 -1</clus>
<clus scale="   92.155">  1  9  2 -1</clus>
<clus scale="   92.155">  1  5  2 -1</clus>
</clustering>
</event>
<event>
 9    1  0.4067873E-005  0.1459687E+03  0.7546771E-02  0.1206594E+00
          1   -1    0    0  502    0 -0.00000000000E+00  0.00000000000E+00  0.41831640593E+03  0.41831640593E+03  0.00000000000E+00 0. -1.
         21   -1    0    0  501  502  0.00000000000E+00 -0.00000000000E+00 -0.90609517293E+02  0.90609517293E+02  0.00000000000E+00 0. -1.
         23    2    1    2    0    0  0.10350492917E+03  0.56824500244E+02  0.21423497280E+03  0.26103766399E+03  0.91113908144E+02 0.  0.
        -24    2    1    2    0    0 -0.11501078914E+03  0.16812942451E+01  0.32016730090E+02  0.14694144112E+03  0.85652832669E+02 0.  0.
         13    1    4    4    0    0 -0.12377458904E+03  0.17696886164E+02  0.29932475063E+02  0.12856625426E+03  0.00000000000E+00 0. -1.
        -14    1    4    4    0    0  0.87637998967E+01 -0.16015591919E+02  0.20842550275E+01  0.18375186861E+02  0.00000000000E+00 0.  1.
        -11    1    3    3    0    0 -0.16662438324E+02  0.13162363866E+02  0.28057358045E+02  0.35186645392E+02  0.00000000000E+00 0.  1.
         11    1    3    3    0    0  0.12016736749E+03  0.43662136378E+02  0.18617761476E+03  0.22585101859E+03  0.00000000000E+00 0. -1.
          2    1    1    2  501    0  0.11505859978E+02 -0.58505794489E+02  0.81455185740E+02  0.10094681811E+03  0.00000000000E+00 0. -1.
<scales pt_clust_5="13000.00000" pt_clust_6="13000.00000" pt_clust_7="13000.00000" pt_clust_8="13000.00000" pt_clust_9="59.62647"></scales>
<clustering>
<clus scale="   59.626">  2  9  1 -1</clus>
<clus scale="   85.653">  5  6 -1 -1</clus>
<clus scale="   91.114">  7  8 -1 -1</clus>
<clus scale="  142.624">  2  5  1 -1</clus>
<clus scale="   59.626">  2  5  1 -1</clus>
</clustering>
</event>
<event>
 9    1  0.4067873E-005  0.1876179E+03  0.7546771E-02  0.1172872E+00
         21   -1    0    0  501  502  0.00000000000E+00  0.00000000000E+00  0.15492756508E+03  0.15492756508E+03  0.00000000000E+00 0. -1.
          3   -1    0    0  502    0 -0.00000000000E+00 -0.00000000000E+00 -0.41998685387E+03  0.41998685387E+03  0.00000000000E+00 0. -1.
         23    2    1    2    0    0 -0.65469641590E+02  0.59733216505E+02 -0.59734263402E+02  0.15364714760E+03  0.11038538226E+03 0.  0.
        -24    2    1    2    0    0 -0.29830527363E+02 -0.18816009596E+03 -0.11764875724E+03  0.23888658826E+03  0.83255569743E+02 0.  0.
         13    1    4    4    0    0 -0.52647343206E+02 -0.13919914396E+03 -0.10832369095E+03  0.18407109074E+03  0.00000000000E+00 0. -1.
        -14    1    4    4    0    0  0.22816815844E+02 -0.48960952008E+02 -0.93250662869E+01  0.54815497517E+02  0.00000000000E+00 0.  1.
        -13    1    3    3    0    0  0.21819412292E+02  0.33363147984E+02  0.72295832674E+01  0.40514852467E+02  0.00000000000E+00 0. -1.
         13    1    3    3    0    0 -0.87289053883E+02  0.26370068521E+02 -0.66963846670E+02  0.11313229513E+03  0.00000000000E+00 0.  1.
          4    1    1    2  501    0  0.95300168953E+02  0.12842687946E+03 -0.87676268141E+02  0.18238068309E+03  0.00000000000E+00 0. -1.
<scales pt_clust_5="13000.00000" pt_clust_6="13000.00000" pt_clust_7="13000.00000" pt_clust_8="13000.00000" pt_clust_9="168.13388"></scales>
<clustering>
<clus scale="   83.256">  5  6 -1 -1</clus>
<clus scale="  110.385">  7  8 -1 -1</clus>
<clus scale="  141.560">  2  7  1 -1</clus>
<clus scale="  168.134">  1  9  2 -1</clus>
<clus scale="  168.134">  1  5  2 -1</clus>
</clustering>
</event>
<event>
 9    1  0.4067873E-005  0.2774314E+03  0.7546771E-02  0.1097668E+00
         -4   -1    0    0    0  501 -0.00000000000E+00  0.00000000000E+00  0.27788778162E+03  0.27788778162E+03  0.00000000000E+00 0.  1.
         21   -1    0    0  501  502  0.00000000000E+00 -0.00000000000E+00 -0.71219934353E+03  0.71219934353E+03  0.00000000000E+00 0. -1.
        -24    2    1    2    0    0  0.39164280755E+02 -0.25318650515E+03  0.70411110487E+02  0.27750664517E+03  0.80093485110E+02 0.  0.
         23    2    1    2    0    0 -0.10538214251E+02  0.29269931701E+03 -0.56003947085E+03  0.63881963552E+03  0.93071873702E+02 0.  0.
         13    1    3    3    0    0 -0.15109525108E+02 -0.23963167860E+02 -0.76581170651E+01  0.29345833092E+02  0.00000000000E+00 0. -1.
        -14    1    3    3    0    0  0.54273805863E+02 -0.22922333729E+03  0.78069227552E+02  0.24816081208E+03  0.00000000000E+00 0.  1.
        -11    1    4    4    0    0  0.17064513187E+02  0.23089276202E+03 -0.48702593665E+03  0.53925590227E+03  0.00000000000E+00 0. -1.
         11    1    4    4    0    0 -0.27602727438E+02  0.61806554995E+02 -0.73013534208E+02  0.99563733256E+02  0.00000000000E+00 0.  1.
         -3    1    1    2    0  502 -0.28626066504E+02 -0.39512811868E+02  0.55316798458E+02  0.73760844469E+02  0.00000000000E+00 0.  1.
<scales pt_clust_5="13000.00000" pt_clust_6="13000.00000" pt_clust_7="13000.00000" pt_clust_8="13000.00000" pt_clust_9="48.79259"></scales>
<clustering>
<clus scale="   48.793">  2  9  1 -1</clus>
<clus scale="   80.093">  5  6 -1 -1</clus>
<clus scale="   93.072">  7  8 -1 -1</clus>
<clus scale="  273.351">  1  5  2 -1</clus>
<clus scale="   48.793">  2  5  1 -1</clus>
</clustering>
</event>
<event>
 9    1  0.4067873E-005  0.1129238E+03  0.7546771E-02  0.1260990E+00
         21   -1    0    0  501  502  0.00000000000E+00  0.00000000000E+00  0.17682543995E+03  0.17682543995E+03  0.00000000000E+00 0. -1.
          1   -1    0    0  502    0 -0.00000000000E+00 -0.00000000000E+00 -0.16841917891E+03  0.16841917891E+03  0.00000000000E+00 0. -1.
         23    2    1    2    0    0 -0.31741120562E+02  0.55920449863E+02 -0.95251666876E+02  0.14849482216E+03  0.94038485305E+02 0.  0.
        -24    2    1    2    0    0  0.58979061338E+02 -0.29902646150E+02  0.20047320880E+02  0.10504611555E+03  0.79120751984E+02 0.  0.
         13    1    4    4    0    0  0.78756284366E+02 -0.21659243018E+02  0.16432932385E+02  0.83316963471E+02  0.00000000000E+00 0. -1.
        -14    1    4    4    0    0 -0.19777223028E+02 -0.82434031318E+01  0.36143884941E+01  0.21729152079E+02  0.00000000000E+00 0.  1.
        -13    1    3    3    0    0  0.28835059733E+02  0.43186134256E+02 -0.40484816728E+02  0.65844690350E+02  0.00000000000E+00 0. -1.
         13    1    3    3    0    0 -0.60576180296E+02  0.12734315608E+02 -0.54766850148E+02  0.82650131811E+02  0.00000000000E+00 0.  1.
          2    1    1    2  501    0 -0.27237940776E+02 -0.26017803714E+02  0.83610607033E+02  0.91703681148E+02  0.00000000000E+00 0. -1.
<scales pt_clust_5="13000.00000" pt_clust_6="13000.00000" pt_clust_7="13000.00000" pt_clust_8="13000.00000" pt_clust_9="37.66738"></scales>
<clustering>
<clus scale="   37.667">  1  9  2 -1</clus>
<clus scale="   79.121">  5  6 -1 -1</clus>
<clus scale="   94.038">  7  8 -1 -1</clus>
<clus scale="  100.840">  1  5  2 -1</clus>
<clus scale="   37.667">  1  5  2 -1</clus>
</clustering>
</event>
<event>
 9    1  0.4067873E-005  0.1088034E+03  0.7546771E-02  0.1265876E+00
         -4   -1    0    0    0  501 -0.00000000000E+00  0.00000000000E+00  0.83082151419E+03  0.83082151419E+03  0.00000000000E+00 0.  1.
         21   -1    0    0  501  502  0.00000000000E+00 -0.00000000000E+00 -0.30320546474E+02  0.30320546474E+02  0.00000000000E+00 0.  1.
        -24    2    1    2    0    0  0.30998552342E+02  0.48613248291E+02  0.41819633330E+03  0.42942064527E+03  0.78675023011E+02 0.  0.
         23    2    1    2    0    0 -0.13810661314E+02 -0.81245089179E+02  0.37564292068E+03  0.39424290064E+03  0.86766133777E+02 0.  0.
         13    1    3    3    0    0  0.47450748335E+02  0.37125357875E+02  0.16900735775E+03  0.17942506149E+03  0.00000000000E+00 0. -1.
        -14    1    3    3    0    0 -0.16452195992E+02  0.11487890416E+02  0.24918897555E+03  0.24999558379E+03  0.00000000000E+00 0.  1.
        -11    1    4    4    0    0 -0.49228289517E+02 -0.34217929283E+02  0.16617939589E+03  0.17666319026E+03  0.00000000000E+00 0.  1.
         11    1    4    4    0    0  0.35417628204E+02 -0.47027159896E+02  0.20946352479E+03  0.21757971039E+03  0.00000000000E+00 0. -1.
         -3    1    1    2    0  502 -0.17187891029E+02  0.32631840888E+02  0.66617137405E+01  0.37478514748E+02  0.00000000000E+00 0.  1.
<scales pt_clust_5="13000.00000" pt_clust_6="13000.00000" pt_clust_7="13000.00000" pt_clust_8="13000.00000" pt_clust_9="36.88171"></scales>
<clustering>
<clus scale="   36.882">  2  9  1 -1</clus>
<clus scale="   78.675">  5  6 -1 -1</clus>
<clus scale="   86.766">  7  8 -1 -1</clus>
<clus scale="  102.467">  1  5  2 -1</clus>
<clus scale="   36.882">  2  5  1 -1</clus>
</clustering>
</event>
<event>
 9    1  0.4067873E-005  0.1159122E+03  0.7546771E-02  0.1251579E+00
         -4   -1    0    0    0  501 -0.00000000000E+00  0.00000000000E+00  0.24645801605E+03  0.24645801605E+03  0.00000000000E+00 0.  1.
         21   -1    0    0  501  502  0.00000000000E+00 -0.00000000000E+00 -0.13983736414E+03  0.13983736414E+03  0.00000000000E+00 0. -1.
        -24    2    1    2    0    0  0.66863294410E+02  0.27612434386E+01  0.53148801100E+02  0.12103378141E+03  0.85709139417E+02 0.  0.
         23    2    1    2    0    0 -0.88605643702E+02 -0.21482407087E+02 -0.64628979378E+02  0.14372552260E+03  0.90375145702E+02 0.  0.
         11    1    3    3    0    0  0.36981093988E+01  0.36487016338E+02  0.23345959640E+02  0.43474270620E+02  0.00000000000E+00 0. -1.
        -12    1    3    3    0    0  0.63165185011E+02 -0.33725772899E+02  0.29802841460E+02  0.77559510792E+02  0.00000000000E+00 0.  1.
        -13    1    4    4    0    0 -0.11518266830E+02  0.31024733512E+02 -0.62145740562E+01  0.33672325298E+02  0.00000000000E+00 0.  1.
         13    1    4    4    0    0 -0.77087376873E+02 -0.52507140600E+02 -0.58414405321E+02  0.11005319730E+03  0.00000000000E+00 0. -1.
         -3    1    1    2    0  502  0.21742349292E+02  0.18721163649E+02  0.11810083019E+03  0.12153607618E+03  0.00000000000E+00 0.  1.
<scales pt_clust_5="13000.00000" pt_clust_6="13000.00000" pt_clust_7="13000.00000" pt_clust_8="13000.00000" pt_clust_9="28.69168"></scales>
<clustering>
<clus scale="   28.692">  2  9  1 -1</clus>
<clus scale="   85.709">  5  6 -1 -1</clus>
<clus scale="   90.375">  7  8 -1 -1</clus>
<clus scale="  112.312">  1  5  2 -1</clus>
<clus scale="   28.692">  2  5  1 -1</clus>
</clustering>
</event>
<event>
 9    1  0.4067873E-005  0.1461006E+03  0.7546771E-02  0.1207938E+00
          1   -1    0    0  502    0 -0.00000000000E+00  0.00000000000E+00  0.43571400730E+03  0.43571400730E+03  0.00000000000E+00 0. -1.
         21   -1    0    0  501  502  0.00000000000E+00 -0.00000000000E+00 -0.11084170442E+03  0.11084170442E+03  0.00000000000E+00 0. -1.
        -24    2    1    2    0    0 -0.10053393484E+03  0.88173359199E+02  0.24631153210E+03  0.29111465899E+03  0.78719505231E+02 0.  0.
         23    2    1    2    0    0  0.96335390292E+02  0.19920038739E+02  0.37552531293E+02  0.13975403462E+03  0.91889510935E+02 0.  0.
         13    1    3    3    0    0 -0.86953614958E+02  0.91708757908E+02  0.24657943983E+03  0.27707913595E+03  0.00000000000E+00 0. -1.
        -14    1    3    3    0    0 -0.13580319887E+02 -0.35353987089E+01 -0.26790773541E+00  0.14035523033E+02  0.00000000000E+00 0.  1.
        -11    1    4    4    0    0 -0.84565883124E+01  0.19095326733E+02  0.27423856636E+02  0.34470469995E+02  0.00000000000E+00 0.  1.
         11    1    4    4    0    0  0.10479197860E+03  0.82471200645E+00  0.10128674658E+02  0.10528356462E+03  0.00000000000E+00 0. -1.
          2    1    1    2  501    0  0.41985445522E+01 -0.10809339794E+03  0.41008239494E+02  0.11568701812E+03  0.00000000000E+00 0. -1.
<scales pt_clust_5="13000.00000" pt_clust_6="13000.00000" pt_clust_7="13000.00000" pt_clust_8="13000.00000" pt_clust_9="108.17491"></scales>
<clustering>
<clus scale="   78.720">  5  6 -1 -1</clus>
<clus scale="   91.890">  7  8 -1 -1</clus>
<clus scale="  108.175">  2  9  1 -1</clus>
<clus scale="  138.197">  1  5  2 -1</clus>
<clus scale="  108.175">  2  5  1 -1</clus>
</clustering>
</event>
<event>
 9    1  0.4067873E-005  0.2346579E+03  0.7546771E-02  0.1124325E+00
          1   -1    0    0  502    0 -0.00000000000E+00  0.00000000000E+00  0.68098421835E+03  0.68098421835E+03  0.00000000000E+00 0. -1.
         21   -1    0    0  501  502  0.00000000000E+00 -0.00000000000E+00 -0.17031589441E+03  0.17031589441E+03  0.00000000000E+00 0.  1.
        -24    2    1    2    0    0  0.14624238013E+03 -0.12933850210E+03  0.22869000032E+03  0.31101868289E+03  0.79487250476E+02 0.  0.
         23    2    1    2    0    0 -0.25608158594E+03  0.48080807601E+02  0.29308881781E+03  0.40320150017E+03  0.93706199888E+02 0.  0.
         11    1    3    3    0    0  0.38075304266E+02 -0.53451429494E+01  0.14888371549E+02  0.41230607023E+02  0.00000000000E+00 0. -1.
        -12    1    3    3    0    0  0.10816707586E+03 -0.12399335915E+03  0.21380162877E+03  0.26978807586E+03  0.00000000000E+00 0.  1.
        -13    1    4    4    0    0 -0.19953774922E+03  0.64575096338E+02  0.18298061909E+03  0.27832923561E+03  0.00000000000E+00 0.  1.
         13    1    4    4    0    0 -0.56543836718E+02 -0.16494288736E+02  0.11010819872E+03  0.12487226456E+03  0.00000000000E+00 0. -1.
          2    1    1    2  501    0  0.10983920581E+03  0.81257694496E+02 -0.11110494183E+02  0.13707992971E+03  0.00000000000E+00 0. -1.
<scales pt_clust_5="13000.00000" pt_clust_6="13000.00000" pt_clust_7="13000.00000" pt_clust_8="13000.00000" pt_clust_9="136.62893"></scales>
<clustering>
<clus scale="   79.487">  5  6 -1 -1</clus>
<clus scale="   93.706">  7  8 -1 -1</clus>
<clus scale="  136.629">  2  9  1 -1</clus>
<clus scale="  229.351">  1  5  2 -1</clus>
<clus scale="  136.629">  2  5  1 -1</clus>
</clustering>
</event>
<event>
 9    1  0.4067873E-005  0.9057496E+02  0.7546771E-02  0.1311774E+00
          1   -1    0    0  502    0 -0.00000000000E+00  0.00000000000E+00  0.38243070088E+02  0.38243070088E+02  0.00000000000E+00 0. -1.
         21   -1    0    0  501  502  0.00000000000E+00 -0.00000000000E+00 -0.40446072207E+03  0.40446072207E+03  0.00000000000E+00 0. -1.
         23    2    1    2    0    0 -0.19642436382E+01  0.15926326854E+02 -0.65757128072E+02  0.11304181499E+03  0.90536986385E+02 0.  0.
        -24    2    1    2    0    0  0.18520939172E+01  0.34868761409E+02 -0.15681221196E+03  0.17729731231E+03  0.75000042407E+02 0.  0.
         13    1    4    4    0    0  0.36497102720E+02  0.29949095771E+02 -0.80048215981E+02  0.92933867488E+02  0.00000000000E+00 0. -1.
        -14    1    4    4    0    0 -0.34645008803E+02  0.49196656386E+01 -0.76763995974E+02  0.84363444826E+02  0.00000000000E+00 0.  1.
        -11    1    3    3    0    0  0.33131979620E+02  0.32792538166E+02 -0.14797814630E+02  0.48908628592E+02  0.00000000000E+00 0.  1.
         11    1    3    3    0    0 -0.35096223258E+02 -0.16866211313E+02 -0.50959313441E+02  0.64133186397E+02  0.00000000000E+00 0. -1.
          2    1    1    2  501    0  0.11214972106E+00 -0.50795088263E+02 -0.14364831196E+03  0.15236466486E+03  0.00000000000E+00 0. -1.
<scales pt_clust_5="13000.00000" pt_clust_6="13000.00000" pt_clust_7="13000.00000" pt_clust_8="13000.00000" pt_clust_9="50.79521"></scales>
<clustering>
<clus scale="   50.795">  2  9  1 -1</clus>
<clus scale="   75.000">  5  6 -1 -1</clus>
<clus scale="   75.046">  2  5  1 -1</clus>
<clus scale="   90.537">  7  8 -1 -1</clus>
<clus scale="   50.795">  2  5  1 -1</clus>
</clustering>
</event>
<event>
 9    1  0.4067873E-005  0.9414922E+02  0.7546771E-02  0.1304066E+00
         21   -1    0    0  501  502  0.00000000000E+00  0.00000000000E+00  0.94240911887E+02  0.94240911887E+02  0.00000000000E+00 0.  1.
         -2   -1    0    0    0  501 -0.00000000000E+00 -0.00000000000E+00 -0.18065870989E+03  0.18065870989E+03  0.00000000000E+00 0.  1.
         23    2    1    2    0    0  0.23722907474E+02  0.19135942832E+02 -0.97447839271E+02  0.13730297467E+03  0.91799045904E+02 0.  0.
        -24    2    1    2    0    0  0.26759399868E+02 -0.15281773942E+02  0.26889953384E+02  0.84541442038E+02  0.73990457039E+02 0.  0.
         11    1    4    4    0    0 -0.25784376469E+02 -0.85151499269E+01  0.82363313390E+01  0.28375676240E+02  0.00000000000E+00 0. -1.
        -12    1    4    4    0    0  0.52543776337E+02 -0.67666240148E+01  0.18653622045E+02  0.56165765798E+02  0.00000000000E+00 0.  1.
        -11    1    3    3    0    0  0.31889736623E+02 -0.27946063077E+01 -0.10725418376E+03  0.11192955401E+03  0.00000000000E+00 0.  1.
         11    1    3    3    0    0 -0.81668291493E+01  0.21930549140E+02  0.98063444915E+01  0.25373420665E+02  0.00000000000E+00 0. -1.
         -1    1    1    2    0  502 -0.50482307342E+02 -0.38541688906E+01 -0.15859912120E+02  0.53055205068E+02  0.00000000000E+00 0.  1.
<scales pt_clust_5="13000.00000" pt_clust_6="13000.00000" pt_clust_7="13000.00000" pt_clust_8="13000.00000" pt_clust_9="50.62922"></scales>
<clustering>
<clus scale="   50.629">  1  9  2 -1</clus>
<clus scale="   73.990">  5  6 -1 -1</clus>
<clus scale="   76.887">  1  5  2 -1</clus>
<clus scale="   91.799">  7  8 -1 -1</clus>
<clus scale="   50.629">  1  5  2 -1</clus>
</clustering>
</event>
<event>
 9    1  0.4067873E-005  0.9866237E+02  0.7546771E-02  0.1288296E+00
         21   -1    0    0  501  502  0.00000000000E+00  0.00000000000E+00  0.11803697771E+03  0.11803697771E+03  0.00000000000E+00 0. -1.
          1   -1    0    0  502    0 -0.00000000000E+00 -0.00000000000E+00 -0.18217634588E+03  0.18217634588E+03  0.00000000000E+00 0. -1.
        -24    2    1    2    0    0  0.31033325177E+02 -0.20151386635E+02 -0.95174507148E+02  0.12961468202E+03  0.79828775077E+02 0.  0.
         23    2    1    2    0    0 -0.65396030765E+02  0.34298851209E+01  0.56375527163E+02  0.12474518563E+03  0.89970863751E+02 0.  0.
         13    1    3    3    0    0  0.48961330946E+02 -0.38366491256E+02 -0.71581620056E+02  0.94832103789E+02  0.00000000000E+00 0. -1.
        -14    1    3    3    0    0 -0.17928005769E+02  0.18215104622E+02 -0.23592887092E+02  0.34782578234E+02  0.00000000000E+00 0.  1.
        -11    1    4    4    0    0  0.10460363245E+02 -0.20787682922E+02  0.35462713657E+02  0.42416400371E+02  0.00000000000E+00 0.  1.
         11    1    4    4    0    0 -0.75856394010E+02  0.24217568043E+02  0.20912813506E+02  0.82328785263E+02  0.00000000000E+00 0. -1.
          2    1    1    2  501    0  0.34362705589E+02  0.16721501514E+02 -0.25340388183E+02  0.45853455939E+02  0.00000000000E+00 0. -1.
<scales pt_clust_5="13000.00000" pt_clust_6="13000.00000" pt_clust_7="13000.00000" pt_clust_8="13000.00000" pt_clust_9="38.21525"></scales>
<clustering>
<clus scale="   38.215">  1  9  2 -1</clus>
<clus scale="   79.829">  5  6 -1 -1</clus>
<clus scale="   89.511">  2  5  1 -1</clus>
<clus scale="   89.971">  7  8 -1 -1</clus>
<clus scale="   38.215">  1  5  2 -1</clus>
</clustering>
</event>
<event>
 9    1  0.4067873E-005  0.1094104E+03  0.7546771E-02  0.1266634E+00
         21   -1    0    0  501  502  0.00000000000E+00  0.00000000000E+00  0.61451563010E+02  0.61451563010E+02  0.00000000000E+00 0.  1.
          1   -1    0    0  502    0 -0.00000000000E+00 -0.00000000000E+00 -0.31189699720E+03  0.31189699720E+03  0.00000000000E+00 0. -1.
        -24    2    1    2    0    0 -0.24666423117E+02  0.58707129745E+02 -0.12337963460E+03  0.15974059626E+03  0.78990913058E+02 0.  0.
         23    2    1    2    0    0 -0.30385850466E+02 -0.62229700304E+02 -0.70504863452E+02  0.13459973130E+03  0.91380065595E+02 0.  0.
         11    1    3    3    0    0 -0.50670771666E+02  0.47962609758E+02 -0.10522736753E+03  0.12625663512E+03  0.00000000000E+00 0. -1.
        -12    1    3    3    0    0  0.26004348549E+02  0.10744519987E+02 -0.18152267076E+02  0.33483961134E+02  0.00000000000E+00 0.  1.
        -11    1    4    4    0    0 -0.31813240271E+02  0.76902004704E+01 -0.53354023766E+02  0.62592917266E+02  0.00000000000E+00 0.  1.
         11    1    4    4    0    0  0.14273898050E+01 -0.69919900774E+02 -0.17150839686E+02  0.72006814038E+02  0.00000000000E+00 0. -1.
          2    1    1    2  501    0  0.55052273583E+02  0.35225705589E+01 -0.56560936134E+02  0.79008232649E+02  0.00000000000E+00 0. -1.
<scales pt_clust_5="13000.00000" pt_clust_6="13000.00000" pt_clust_7="13000.00000" pt_clust_8="13000.00000" pt_clust_9="55.16488"></scales>
<clustering>
<clus scale="   55.165">  1  9  2 -1</clus>
<clus scale="   78.991">  5  6 -1 -1</clus>
<clus scale="   91.380">  7  8 -1 -1</clus>
<clus scale="   99.297">  2  5  1 -1</clus>
<clus scale="   55.165">  1  5  2 -1</clus>
</clustering>
</event>
<event>
 9    1  0.4067873E-005  0.1009339E+03  0.7546771E-02  0.1286486E+00
         21   -1    0    0  501  502  0.00000000000E+00  0.00000000000E+00  0.16073557065E+03  0.16073557065E+03  0.00000000000E+00 0. -1.
          1   -1    0    0  502    0 -0.00000000000E+00 -0.00000000000E+00 -0.16031810026E+03  0.16031810026E+03  0.00000000000E+00 0. -1.
         23    2    1    2    0    0 -0.38849820589E+02 -0.22377095242E+01 -0.39446882806E+02  0.11019039166E+03  0.95244684616E+02 0.  0.
        -24    2    1    2    0    0  0.13909098137E+02  0.50102091159E+01  0.10981830925E+03  0.13654449052E+03  0.79785785943E+02 0.  0.
         11    1    4    4    0    0  0.33588373153E+02 -0.24763349989E+02  0.38419621550E+02  0.56722743532E+02  0.00000000000E+00 0. -1.
        -12    1    4    4    0    0 -0.19679275016E+02  0.29773559105E+02  0.71398687702E+02  0.79821746989E+02  0.00000000000E+00 0.  1.
        -11    1    3    3    0    0 -0.59114922284E+02  0.15951239398E+02  0.12284021741E+01  0.61241530409E+02  0.00000000000E+00 0. -1.
         11    1    3    3    0    0  0.20265101695E+02 -0.18188948922E+02 -0.40675284980E+02  0.48948861252E+02  0.00000000000E+00 0.  1.
          2    1    1    2  501    0  0.24940722452E+02 -0.27724995917E+01 -0.69953956059E+02  0.74318788733E+02  0.00000000000E+00 0. -1.
<scales pt_clust_5="13000.00000" pt_clust_6="13000.00000" pt_clust_7="13000.00000" pt_clust_8="13000.00000" pt_clust_9="25.09436"></scales>
<clustering>
<clus scale="   25.094">  1  9  2 -1</clus>
<clus scale="   79.786">  5  6 -1 -1</clus>
<clus scale="   86.498">  1  5  2 -1</clus>
<clus scale="   95.245">  7  8 -1 -1</clus>
<clus scale="   25.094">  1  5  2 -1</clus>
</clustering>
</event>
<event>
 9    1  0.4067873E-005  0.1143685E+03  0.7546771E-02  0.1257010E+00
          1   -1    0    0  502    0 -0.00000000000E+00  0.00000000000E+00  0.14431113506E+03  0.14431113506E+03  0.00000000000E+00 0. -1.
         21   -1    0    0  501  502  0.00000000000E+00 -0.00000000000E+00 -0.17527215392E+03  0.17527215392E+03  0.00000000000E+00 0. -1.
        -24    2    1    2    0    0 -0.94058872162E+02 -0.11944381029E+02  0.42343996331E+02  0.13153421648E+03  0.80737205854E+02 0.  0.
         23    2    1    2    0    0  0.17750172544E+02  0.19991209406E+02 -0.42848273242E+02  0.10549374431E+03  0.92618780434E+02 0.  0.
         11    1    3    3    0    0 -0.97654058289E+02  0.13484092539E+02  0.30028985201E+02  0.10305278164E+03  0.00000000000E+00 0. -1.
        -12    1    3    3    0    0  0.35951861272E+01 -0.25428473568E+02  0.12315011130E+02  0.28481434838E+02  0.00000000000E+00 0.  1.
        -11    1    4    4    0    0  0.37737024866E+02 -0.23749792246E+02 -0.61730125221E+01  0.45013795231E+02  0.00000000000E+00 0. -1.
         11    1    4    4    0    0 -0.19986852322E+02  0.43741001652E+02 -0.36675260720E+02  0.60479949075E+02  0.00000000000E+00 0.  1.
          2    1    1    2  501    0  0.76308699618E+02 -0.80468283774E+01 -0.30456741947E+02  0.82555328200E+02  0.00000000000E+00 0. -1.
<scales pt_clust_5="13000.00000" pt_clust_6="13000.00000" pt_clust_7="13000.00000" pt_clust_8="13000.00000" pt_clust_9="76.73180"></scales>
<clustering>
<clus scale="   76.732">  2  9  1 -1</clus>
<clus scale="   80.737">  5  6 -1 -1</clus>
<clus scale="   92.619">  7  8 -1 -1</clus>
<clus scale="  104.978">  1  5  2 -1</clus>
<clus scale="   76.732">  2  5  1 -1</clus>
</clustering>
</event>
<event>
 9    1  0.1225820E-004  0.1338961E+03  0.7546771E-02  0.1225236E+00
          1   -1    0    0  502    0 -0.00000000000E+00  0.00000000000E+00  0.65926879223E+03  0.65926879223E+03  0.00000000000E+00 0. -1.
         21   -1    0    0  501  502  0.00000000000E+00 -0.00000000000E+00 -0.24414277095E+03  0.24414277095E+03  0.00000000000E+00 0. -1.
         23    2    1    2    0    0 -0.81216553689E+02 -0.59287504603E+02  0.62657056623E+03  0.64093569375E+03  0.89981955228E+02 0.  0.
        -24    2    1    2    0    0  0.59286521416E+02  0.47733476761E+02 -0.94348050925E+02  0.14278455483E+03  0.75448644523E+02 0.  0.
         11    1    4    4    0    0 -0.11044715269E+02  0.26364875146E+02 -0.86162440759E+01  0.29855184455E+02  0.00000000000E+00 0. -1.
        -12    1    4    4    0    0  0.70331236685E+02  0.21368601615E+02 -0.85731806849E+02  0.11292937038E+03  0.00000000000E+00 0.  1.
        -13    1    3    3    0    0 -0.28492706813E+02  0.23249797585E+02  0.18788830350E+03  0.19145339387E+03  0.00000000000E+00 0.  1.
         13    1    3    3    0    0 -0.52723846876E+02 -0.82537302188E+02  0.43868226273E+03  0.44948229989E+03  0.00000000000E+00 0. -1.
          2    1    1    2  501    0  0.21930032273E+02  0.11554027842E+02 -0.11709649403E+03  0.11969131459E+03  0.00000000000E+00 0. -1.
<scales pt_clust_5="13000.00000" pt_clust_6="13000.00000" pt_clust_7="13000.00000" pt_clust_8="13000.00000" pt_clust_9="24.78753"></scales>
<clustering>
<clus scale="   24.788">  2  9  1 -1</clus>
<clus scale="   75.449">  5  6 -1 -1</clus>
<clus scale="   89.982">  7  8 -1 -1</clus>
<clus scale="  124.595">  2  5  1 -1</clus>
<clus scale="   24.788">  2  5  1 -1</clus>
</clustering>
</event>
<event>
 9    1  0.4067873E-005  0.9508384E+02  0.7546771E-02  0.1296721E+00
         -4   -1    0    0    0  501 -0.00000000000E+00  0.00000000000E+00  0.68250476808E+03  0.68250476808E+03  0.00000000000E+00 0.  1.
         21   -1    0    0  501  502  0.00000000000E+00 -0.00000000000E+00 -0.19410617191E+02  0.19410617191E+02  0.00000000000E+00 0. -1.
         23    2    1    2    0    0 -0.27723934719E+02 -0.59881712079E+01  0.31407724346E+03  0.32831593702E+03  0.91336547385E+02 0.  0.
        -24    2    1    2    0    0  0.19326175623E+02 -0.33326643887E+02  0.20067788913E+03  0.21990936597E+03  0.81267138489E+02 0.  0.
         13    1    4    4    0    0 -0.23969957457E+02 -0.31232241525E+02  0.53137744683E+02  0.66133438450E+02  0.00000000000E+00 0. -1.
        -14    1    4    4    0    0  0.43296133079E+02 -0.20944023622E+01  0.14754014445E+03  0.15377592752E+03  0.00000000000E+00 0.  1.
        -13    1    3    3    0    0 -0.18066462529E+02  0.39913723190E+02  0.10027131979E+03  0.10942504256E+03  0.00000000000E+00 0. -1.
         13    1    3    3    0    0 -0.96574721896E+01 -0.45901894398E+02  0.21380592367E+03  0.21889089445E+03  0.00000000000E+00 0.  1.
         -3    1    1    2    0  502  0.83977590962E+01  0.39314815095E+02  0.14833901830E+03  0.15369008229E+03  0.00000000000E+00 0.  1.
<scales pt_clust_5="13000.00000" pt_clust_6="13000.00000" pt_clust_7="13000.00000" pt_clust_8="13000.00000" pt_clust_9="40.20172"></scales>
<clustering>
<clus scale="   40.202">  2  9  1 -1</clus>
<clus scale="   81.267">  5  6 -1 -1</clus>
<clus scale="   85.457">  2  5  1 -1</clus>
<clus scale="   91.337">  7  8 -1 -1</clus>
<clus scale="   40.202">  2  5  1 -1</clus>
</clustering>
</event>
<event>
 9    1  0.4067873E-005  0.9091548E+02  0.7546771E-02  0.1306474E+00
          1   -1    0    0  502    0 -0.00000000000E+00  0.00000000000E+00  0.16394118725E+03  0.16394118725E+03  0.00000000000E+00 0. -1.
         21   -1    0    0  501  502  0.00000000000E+00 -0.00000000000E+00 -0.73946281351E+02  0.73946281351E+02  0.00000000000E+00 0. -1.
         23    2    1    2    0    0 -0.29493515294E+01  0.53806215253E+01  0.67668248916E+02  0.11322932472E+03  0.90577250475E+02 0.  0.
        -24    2    1    2    0    0  0.10130954515E+02  0.26117652665E+02  0.11482404221E+01  0.86028595259E+02  0.81331621932E+02 0.  0.
         13    1    4    4    0    0  0.10351839199E+02 -0.28921106059E+02 -0.28165110531E+01  0.30846777546E+02  0.00000000000E+00 0. -1.
        -14    1    4    4    0    0 -0.22088468325E+00  0.55038758723E+02  0.39647514752E+01  0.55181817713E+02  0.00000000000E+00 0.  1.
        -13    1    3    3    0    0 -0.73969684505E+01  0.45483890883E+02  0.18579559135E+02  0.49686008994E+02  0.00000000000E+00 0. -1.
         13    1    3    3    0    0  0.44476169211E+01 -0.40103269358E+02  0.49088689781E+02  0.63543315730E+02  0.00000000000E+00 0.  1.
          2    1    1    2  501    0 -0.71816029860E+01 -0.31498274190E+02  0.21178416561E+02  0.38629548618E+02  0.00000000000E+00 0. -1.
<scales pt_clust_5="13000.00000" pt_clust_6="13000.00000" pt_clust_7="13000.00000" pt_clust_8="13000.00000" pt_clust_9="32.30662"></scales>
<clustering>
<clus scale="   32.307">  2  9  1 -1</clus>
<clus scale="   81.332">  5  6 -1 -1</clus>
<clus scale="   81.708">  2  5  1 -1</clus>
<clus scale="   90.577">  7  8 -1 -1</clus>
<clus scale="   32.307">  2  5  1 -1</clus>
</clustering>
</event>
<event>
 9    1  0.4067873E-005  0.1179549E+03  0.7546771E-02  0.1251092E+00
         -2   -1    0    0    0  501 -0.00000000000E+00  0.00000000000E+00  0.35720148847E+02  0.35720148847E+02  0.00000000000E+00 0.  1.
         21   -1    0    0  501  502  0.00000000000E+00 -0.00000000000E+00 -0.78152301976E+03  0.78152301976E+03  0.00000000000E+00 0.  1.
         23    2    1    2    0    0 -0.48996713108E+02 -0.39922294868E+02 -0.16103332844E+03  0.19567602257E+03  0.91448922464E+02 0.  0.
        -24    2    1    2    0    0  0.96362684032E+02  0.53122538660E+02 -0.53466058783E+03  0.55136252387E+03  0.77658982485E+02 0.  0.
         13    1    4    4    0    0  0.73609797018E+02  0.48060352734E+02 -0.23680263798E+03  0.25259392129E+03  0.00000000000E+00 0. -1.
        -14    1    4    4    0    0  0.22752887015E+02  0.50621859267E+01 -0.29785794985E+03  0.29876860257E+03  0.00000000000E+00 0.  1.
        -13    1    3    3    0    0  0.84989228546E+01 -0.30256074519E+02 -0.87634940357E+01  0.32626071825E+02  0.00000000000E+00 0.  1.
         13    1    3    3    0    0 -0.57495635962E+02 -0.96662203491E+01 -0.15226983440E+03  0.16304995075E+03  0.00000000000E+00 0. -1.
         -1    1    1    2    0  502 -0.47365970925E+02 -0.13200243792E+02 -0.50108954655E+02  0.70204622173E+02  0.00000000000E+00 0.  1.
<scales pt_clust_5="13000.00000" pt_clust_6="13000.00000" pt_clust_7="13000.00000" pt_clust_8="13000.00000" pt_clust_9="49.17097"></scales>
<clustering>
<clus scale="   49.171">  2  9  1 -1</clus>
<clus scale="   77.659">  5  6 -1 -1</clus>
<clus scale="   91.449">  7  8 -1 -1</clus>
<clus scale="  107.617">  2  5  1 -1</clus>
<clus scale="   49.171">  2  5  1 -1</clus>
</clustering>
</event>
<event>
 9    1  0.4067873E-005  0.1138371E+03  0.7546771E-02  0.1257112E+00
          1   -1    0    0  502    0 -0.00000000000E+00  0.00000000000E+00  0.29950112436E+03  0.29950112436E+03  0.00000000000E+00 0. -1.
         21   -1    0    0  501  502  0.00000000000E+00 -0.00000000000E+00 -0.92742040852E+02  0.92742040852E+02  0.00000000000E+00 0.  1.
         23    2    1    2    0    0  0.15521194363E+02  0.73918063135E+02  0.23010512147E+03  0.25839259635E+03  0.90075409455E+02 0.  0.
        -24    2    1    2    0    0 -0.72167585654E+01 -0.50516368591E+02  0.61337665842E+01  0.95306284745E+02  0.80260075502E+02 0.  0.
         11    1    4    4    0    0 -0.24920787270E+02  0.13400439629E+02  0.62755433974E+01  0.28982751169E+02  0.00000000000E+00 0. -1.
        -12    1    4    4    0    0  0.17704028704E+02 -0.63916808220E+02 -0.14177681319E+00  0.66323533576E+02  0.00000000000E+00 0.  1.
        -11    1    3    3    0    0 -0.13257284767E+02  0.18589215193E+02  0.31790374713E+01  0.23052566020E+02  0.00000000000E+00 0.  1.
         11    1    3    3    0    0  0.28778479129E+02  0.55328847942E+02  0.22692608400E+03  0.23534003033E+03  0.00000000000E+00 0. -1.
          2    1    1    2  501    0 -0.83044357976E+01 -0.23401694544E+02 -0.29479804552E+02  0.38544284114E+02  0.00000000000E+00 0. -1.
<scales pt_clust_5="13000.00000" pt_clust_6="13000.00000" pt_clust_7="13000.00000" pt_clust_8="13000.00000" pt_clust_9="24.83149"></scales>
<clustering>
<clus scale="   24.831">  2  9  1 -1</clus>
<clus scale="   80.260">  5  6 -1 -1</clus>
<clus scale="   90.075">  7  8 -1 -1</clus>
<clus scale="  106.240">  2  5  1 -1</clus>
<clus scale="   24.831">  2  5  1 -1</clus>
</clustering>
</event>
<event>
 9    1  0.4067873E-005  0.1047168E+03  0.7546771E-02  0.1276456E+00
         21   -1    0    0  501  502  0.00000000000E+00  0.00000000000E+00  0.32873699343E+03  0.32873699343E+03  0.00000000000E+00 0.  1.
         -2   -1    0    0    0  501 -0.00000000000E+00 -0.00000000000E+00 -0.56203861581E+02  0.56203861581E+02  0.00000000000E+00 0.  1.
        -24    2    1    2    0    0 -0.65954115795E+01 -0.32654367038E+02  0.87921119650E+02  0.12305747579E+03  0.79392769995E+02 0.  0.
         23    2    1    2    0    0 -0.46295801437E+00  0.80576084959E+02  0.17326171283E+03  0.21213259103E+03  0.92129773934E+02 0.  0.
         11    1    3    3    0    0  0.32224030968E+01 -0.33909871557E+02 -0.51764695871E+00  0.34066570551E+02  0.00000000000E+00 0. -1.
        -12    1    3    3    0    0 -0.98178146763E+01  0.12555045181E+01  0.88438766609E+02  0.88990905243E+02  0.00000000000E+00 0.  1.
        -11    1    4    4    0    0  0.44026305019E+02  0.55353003366E+02  0.90731031952E+02  0.11504082177E+03  0.00000000000E+00 0.  1.
         11    1    4    4    0    0 -0.44489263034E+02  0.25223081593E+02  0.82530680882E+02  0.97091769255E+02  0.00000000000E+00 0. -1.
         -1    1    1    2    0  502  0.70583695939E+01 -0.47921717921E+02  0.11350299365E+02  0.49750788189E+02  0.00000000000E+00 0.  1.
<scales pt_clust_5="13000.00000" pt_clust_6="13000.00000" pt_clust_7="13000.00000" pt_clust_8="13000.00000" pt_clust_9="48.43877"></scales>
<clustering>
<clus scale="   48.439">  1  9  2 -1</clus>
<clus scale="   79.393">  5  6 -1 -1</clus>
<clus scale="   92.130">  7  8 -1 -1</clus>
<clus scale="   93.707">  2  5  1 -1</clus>
<clus scale="   48.439">  1  5  2 -1</clus>
</clustering>
</event>
<event>
 9    1  0.4067873E-005  0.1079967E+03  0.7546771E-02  0.1274358E+00
          1   -1    0    0  502    0 -0.00000000000E+00  0.00000000000E+00  0.54137424521E+03  0.54137424521E+03  0.00000000000E+00 0. -1.
         21   -1    0    0  501  502  0.00000000000E+00 -0.00000000000E+00 -0.30627595654E+03  0.30627595654E+03  0.00000000000E+00 0. -1.
        -24    2    1    2    0    0 -0.23543988579E+02  0.19548003498E+02  0.46208510657E+03  0.47046716558E+03  0.82947358819E+02 0.  0.
         23    2    1    2    0    0  0.13353066667E+02 -0.58079475808E+02  0.25303602505E+02  0.12176380142E+03  0.10312429946E+03 0.  0.
         11    1    3    3    0    0 -0.53867231647E+02  0.46905885804E+01  0.30979401900E+03  0.31447736719E+03  0.00000000000E+00 0. -1.
        -12    1    3    3    0    0  0.30323243068E+02  0.14857414918E+02  0.15229108757E+03  0.15598979839E+03  0.00000000000E+00 0.  1.
        -13    1    4    4    0    0  0.50866826997E+02 -0.13423990677E+01  0.14356344582E+02  0.52870982153E+02  0.00000000000E+00 0.  1.
         13    1    4    4    0    0 -0.37513760331E+02 -0.56737076741E+02  0.10947257923E+02  0.68892819272E+02  0.00000000000E+00 0. -1.
          2    1    1    2  501    0  0.10190921912E+02  0.38531472310E+02 -0.25229042041E+03  0.25541923475E+03  0.00000000000E+00 0. -1.
<scales pt_clust_5="13000.00000" pt_clust_6="13000.00000" pt_clust_7="13000.00000" pt_clust_8="13000.00000" pt_clust_9="39.85636"></scales>
<clustering>
<clus scale="   39.856">  2  9  1 -1</clus>
<clus scale="   82.947">  5  6 -1 -1</clus>
<clus scale="   88.932">  1  5  2 -1</clus>
<clus scale="  103.124">  7  8 -1 -1</clus>
<clus scale="   39.856">  2  5  1 -1</clus>
</clustering>
</event>
<event>
 9    1  0.4067873E-005  0.9281390E+02  0.7546771E-02  0.1302951E+00
         21   -1    0    0  501  502  0.00000000000E+00  0.00000000000E+00  0.34947253620E+02  0.34947253620E+02  0.00000000000E+00 0.  1.
          3   -1    0    0  502    0 -0.00000000000E+00 -0.00000000000E+00 -0.65644528232E+03  0.65644528232E+03  0.00000000000E+00 0. -1.
        -24    2    1    2    0    0 -0.70673570311E+01  0.29474738657E+02 -0.31329375577E+03  0.32468520673E+03  0.79679346803E+02 0.  0.
         23    2    1    2    0    0 -0.69214405987E-01  0.32451813486E+02 -0.66695118988E+02  0.11728299209E+03  0.90851176921E+02 0.  0.
         13    1    3    3    0    0  0.28630397866E+02  0.38909941874E+02 -0.18085408632E+03  0.18719477503E+03  0.00000000000E+00 0. -1.
        -14    1    3    3    0    0 -0.35697754897E+02 -0.94352032170E+01 -0.13243966945E+03  0.13749043170E+03  0.00000000000E+00 0.  1.
        -11    1    4    4    0    0 -0.22711256198E+02  0.85454641868E+01  0.15462029850E+02  0.28773259866E+02  0.00000000000E+00 0.  1.
         11    1    4    4    0    0  0.22642041792E+02  0.23906349300E+02 -0.82157148838E+02  0.88509732225E+02  0.00000000000E+00 0. -1.
          4    1    1    2  501    0  0.71365714371E+01 -0.61926552143E+02 -0.24150915395E+03  0.24942433713E+03  0.00000000000E+00 0. -1.
<scales pt_clust_5="13000.00000" pt_clust_6="13000.00000" pt_clust_7="13000.00000" pt_clust_8="13000.00000" pt_clust_9="62.33645"></scales>
<clustering>
<clus scale="   62.336">  1  9  2 -1</clus>
<clus scale="   79.679">  5  6 -1 -1</clus>
<clus scale="   81.910">  2  5  1 -1</clus>
<clus scale="   90.851">  7  8 -1 -1</clus>
<clus scale="   62.336">  1  5  2 -1</clus>
</clustering>
</event>
<event>
 9    1  0.4067873E-005  0.1828541E+03  0.7546771E-02  0.1180114E+00
         21   -1    0    0  501  502  0.00000000000E+00  0.00000000000E+00  0.47310122500E+03  0.47310122500E+03  0.00000000000E+00 0.  1.
         -2   -1    0    0    0  501 -0.00000000000E+00 -0.00000000000E+00 -0.14716851071E+03  0.14716851071E+03  0.00000000000E+00 0.  1.
        -24    2    1    2    0    0  0.35184969346E+02  0.95401846349E+02  0.13866935151E+03  0.18994950976E+03  0.80697787178E+02 0.  0.
         23    2    1    2    0    0  0.14273834154E+03  0.82486048911E+01  0.13925146083E+03  0.21888403385E+03  0.89872005104E+02 0.  0.
         13    1    3    3    0    0  0.27243281533E+02  0.71053969747E+01  0.76920753193E+02  0.81911448080E+02  0.00000000000E+00 0. -1.
        -14    1    3    3    0    0  0.79416878132E+01  0.88296449374E+02  0.61748598314E+02  0.10803806168E+03  0.00000000000E+00 0.  1.
        -13    1    4    4    0    0  0.10845110804E+03  0.40391421742E+02  0.12366360878E+03  0.16936882216E+03  0.00000000000E+00 0.  1.
         13    1    4    4    0    0  0.34287233505E+02 -0.32142816850E+02  0.15587852048E+02  0.49515211683E+02  0.00000000000E+00 0. -1.
         -1    1    1    2    0  502 -0.17792331089E+03 -0.10365045124E+03  0.48011901964E+02  0.21143619210E+03  0.00000000000E+00 0.  1.
<scales pt_clust_5="13000.00000" pt_clust_6="13000.00000" pt_clust_7="13000.00000" pt_clust_8="13000.00000" pt_clust_9="159.24404"></scales>
<clustering>
<clus scale="   80.698">  5  6 -1 -1</clus>
<clus scale="   89.872">  7  8 -1 -1</clus>
<clus scale="  129.814">  2  5  1 -1</clus>
<clus scale="  159.244">  1  9  2 -1</clus>
<clus scale="  159.244">  1  5  2 -1</clus>
</clustering>
</event>
<event>
 9    1  0.4067873E-005  0.1186748E+03  0.7546771E-02  0.1246149E+00
         21   -1    0    0  501  502  0.00000000000E+00  0.00000000000E+00  0.43856173764E+03  0.43856173764E+03  0.00000000000E+00 0.  1.
         -2   -1    0    0    0  501 -0.00000000000E+00 -0.00000000000E+00 -0.77785777621E+02  0.77785777621E+02  0.00000000000E+00 0.  1.
        -24    2    1    2    0    0  0.44326359282E+02 -0.23610065215E+02  0.15644457309E+03  0.18290171378E+03  0.80348435883E+02 0.  0.
         23    2    1    2    0    0 -0.13498374209E+03  0.17859085521E+02  0.18162310180E+03  0.23981086656E+03  0.77348193542E+02 0.  0.
         11    1    3    3    0    0 -0.16754776732E+02  0.14732792512E+02  0.43668354868E+02  0.49037770498E+02  0.00000000000E+00 0. -1.
        -12    1    3    3    0    0  0.61081136014E+02 -0.38342857727E+02  0.11277621822E+03  0.13386394328E+03  0.00000000000E+00 0.  1.
        -11    1    4    4    0    0 -0.10866617612E+03  0.40707669792E+02  0.10876024357E+03  0.15904163855E+03  0.00000000000E+00 0.  1.
         11    1    4    4    0    0 -0.26317565974E+02 -0.22848584271E+02  0.72862858238E+02  0.80769228006E+02  0.00000000000E+00 0. -1.
         -1    1    1    2    0  502  0.90657382810E+02  0.57509796935E+01  0.22708285132E+02  0.93634934929E+02  0.00000000000E+00 0.  1.
<scales pt_clust_5="13000.00000" pt_clust_6="13000.00000" pt_clust_7="13000.00000" pt_clust_8="13000.00000" pt_clust_9="90.83966"></scales>
<clustering>
<clus scale="   77.348">  7  8 -1 -1</clus>
<clus scale="   80.348">  5  6 -1 -1</clus>
<clus scale="   90.840">  1  9  2 -1</clus>
<clus scale="  116.664">  1  7  2 -1</clus>
<clus scale="   90.840">  1  5  2 -1</clus>
</clustering>
</event>
<event>
 9    1  0.4067873E-005  0.1413716E+03  0.7546771E-02  0.1233627E+00
         21   -1    0    0  501  502  0.00000000000E+00  0.00000000000E+00  0.29274665298E+03  0.29274665298E+03  0.00000000000E+00 0. -1.
          3   -1    0    0  502    0 -0.00000000000E+00 -0.00000000000E+00 -0.28824423493E+03  0.28824423493E+03  0.00000000000E+00 0. -1.
        -24    2    1    2    0    0  0.36933422578E+02  0.31356015174E+01 -0.22181683841E+03  0.23900610822E+03  0.80915389537E+02 0.  0.
         23    2    1    2    0    0  0.43980474022E+02  0.85735494432E+02  0.14163824634E+03  0.19496095906E+03  0.93078062027E+02 0.  0.
         11    1    3    3    0    0  0.62634183424E+02 -0.24601933500E+01 -0.15829012705E+03  0.17024939884E+03  0.00000000000E+00 0. -1.
        -12    1    3    3    0    0 -0.25700760846E+02  0.55957948675E+01 -0.63526711354E+02  0.68756709372E+02  0.00000000000E+00 0.  1.
        -11    1    4    4    0    0 -0.19904220977E+02  0.19102202071E+02  0.21197984669E+01  0.27668857624E+02  0.00000000000E+00 0.  1.
         11    1    4    4    0    0  0.63884695000E+02  0.66633292361E+02  0.13951844787E+03  0.16729210143E+03  0.00000000000E+00 0. -1.
          4    1    1    2  501    0 -0.80913896600E+02 -0.88871095949E+02  0.84681010115E+02  0.14702382063E+03  0.00000000000E+00 0. -1.
<scales pt_clust_5="13000.00000" pt_clust_6="13000.00000" pt_clust_7="13000.00000" pt_clust_8="13000.00000" pt_clust_9="106.40680"></scales>
<clustering>
<clus scale="   80.915">  5  6 -1 -1</clus>
<clus scale="   89.001">  2  5  1 -1</clus>
<clus scale="   93.078">  7  8 -1 -1</clus>
<clus scale="  106.407">  1  9  2 -1</clus>
<clus scale="  106.407">  1  5  2 -1</clus>
</clustering>
</event>
<event>
 9    1  0.4067873E-005  0.1076140E+03  0.7546771E-02  0.1271070E+00
          3   -1    0    0  502    0 -0.00000000000E+00  0.00000000000E+00  0.79507324055E+02  0.79507324055E+02  0.00000000000E+00 0. -1.
         21   -1    0    0  501  502  0.00000000000E+00 -0.00000000000E+00 -0.28486271410E+03  0.28486271410E+03  0.00000000000E+00 0. -1.
         23    2    1    2    0    0  0.35332635153E+02 -0.42611261558E+02 -0.70544519631E+02  0.13071958666E+03  0.95115542197E+02 0.  0.
        -24    2    1    2    0    0  0.44547267268E+02  0.57928738736E+02 -0.74288467917E+02  0.13226808064E+03  0.81460854997E+02 0.  0.
         11    1    4    4    0    0  0.55506404096E+02  0.57572201970E+02 -0.28052012289E+02  0.84749246185E+02  0.00000000000E+00 0. -1.
        -12    1    4    4    0    0 -0.10959136828E+02  0.35653676586E+00 -0.46236455628E+02  0.47518834451E+02  0.00000000000E+00 0.  1.
        -11    1    3    3    0    0  0.11020441026E+02 -0.64386198951E+02 -0.73036710966E+02  0.97986702590E+02  0.00000000000E+00 0. -1.
         11    1    3    3    0    0  0.24312194127E+02  0.21774937393E+02  0.24921913348E+01  0.32732884068E+02  0.00000000000E+00 0.  1.
          4    1    1    2  501    0 -0.79879902421E+02 -0.15317477178E+02 -0.60522402501E+02  0.10138237087E+03  0.00000000000E+00 0. -1.
<scales pt_clust_5="13000.00000" pt_clust_6="13000.00000" pt_clust_7="13000.00000" pt_clust_8="13000.00000" pt_clust_9="81.33526"></scales>
<clustering>
<clus scale="   81.335">  2  9  1 -1</clus>
<clus scale="   81.461">  5  6 -1 -1</clus>
<clus scale="   95.116">  7  8 -1 -1</clus>
<clus scale="   95.758">  2  5  1 -1</clus>
<clus scale="   81.335">  2  5  1 -1</clus>
</clustering>
</event>
<event>
 9    1  0.4067873E-005  0.1598464E+03  0.7546771E-02  0.1190365E+00
         21   -1    0    0  501  502  0.00000000000E+00  0.00000000000E+00  0.16807160660E+04  0.16807160660E+04  0.00000000000E+00 0.  1.
         -2   -1    0    0    0  501 -0.00000000000E+00 -0.00000000000E+00 -0.25682591797E+02  0.25682591797E+02  0.00000000000E+00 0.  1.
         23    2    1    2    0    0  0.13129215648E+03  0.40912927076E+02  0.32375094658E+03  0.36317725798E+03  0.90396611369E+02 0.  0.
        -24    2    1    2    0    0 -0.10929655376E+03 -0.22867451168E+02  0.12391617739E+04  0.12468072981E+04  0.80857156523E+02 0.  0.
         13    1    4    4    0    0 -0.49548871894E+02  0.81501474669E+01  0.23072849463E+03  0.23612952768E+03  0.00000000000E+00 0. -1.
        -14    1    4    4    0    0 -0.59747681861E+02 -0.31017598634E+02  0.10084332792E+04  0.10106777704E+04  0.00000000000E+00 0.  1.
        -11    1    3    3    0    0  0.69256194901E+02  0.37902401988E+02  0.83030551387E+02  0.11457349201E+03  0.00000000000E+00 0.  1.
         11    1    3    3    0    0  0.62035961579E+02  0.30105250880E+01  0.24072039520E+03  0.24860376597E+03  0.00000000000E+00 0. -1.
         -1    1    1    2    0  502 -0.21995602725E+02 -0.18045475908E+02  0.92120753710E+02  0.96414101687E+02  0.00000000000E+00 0.  1.
<scales pt_clust_5="13000.00000" pt_clust_6="13000.00000" pt_clust_7="13000.00000" pt_clust_8="13000.00000" pt_clust_9="28.45077"></scales>
<clustering>
<clus scale="   28.451">  1  9  2 -1</clus>
<clus scale="   80.857">  5  6 -1 -1</clus>
<clus scale="   90.397">  7  8 -1 -1</clus>
<clus scale="  154.652">  1  5  2 -1</clus>
<clus scale="   28.451">  1  5  2 -1</clus>
</clustering>
</event>
<event>
 9    1  0.4067873E-005  0.2547259E+03  0.7546771E-02  0.1110354E+00
         -2   -1    0    0    0  501 -0.00000000000E+00  0.00000000000E+00  0.10402727461E+03  0.10402727461E+03  0.00000000000E+00 0.  1.
         21   -1    0    0  501  502  0.00000000000E+00 -0.00000000000E+00 -0.58979040835E+03  0.58979040835E+03  0.00000000000E+00 0.  1.
        -24    2    1    2    0    0 -0.51896437015E+02  0.35782862662E+02 -0.13583558268E+03  0.17016683985E+03  0.80819517606E+02 0.  0.
         23    2    1    2    0    0 -0.10373301191E+03  0.51762534740E+02 -0.30588363860E+03  0.33973622106E+03  0.91738769207E+02 0.  0.
         13    1    3    3    0    0  0.20895481939E+02 -0.73560067129E+00 -0.24165965928E+02  0.31955534466E+02  0.00000000000E+00 0. -1.
        -14    1    3    3    0    0 -0.72791918954E+02  0.36518463333E+02 -0.11166961675E+03  0.13821130538E+03  0.00000000000E+00 0.  1.
        -11    1    4    4    0    0 -0.47573732471E+02  0.33386745424E+02 -0.48623117408E+02  0.75776924837E+02  0.00000000000E+00 0. -1.
         11    1    4    4    0    0 -0.56159279443E+02  0.18375789316E+02 -0.25726052119E+03  0.26395929622E+03  0.00000000000E+00 0.  1.
         -1    1    1    2    0  502  0.15562944893E+03 -0.87545397402E+02 -0.44043912458E+02  0.18391462205E+03  0.00000000000E+00 0.  1.
<scales pt_clust_5="13000.00000" pt_clust_6="13000.00000" pt_clust_7="13000.00000" pt_clust_8="13000.00000" pt_clust_9="178.56302"></scales>
<clustering>
<clus scale="   80.820">  5  6 -1 -1</clus>
<clus scale="   91.739">  7  8 -1 -1</clus>
<clus scale="   95.374">  5  7 -1 -1</clus>
<clus scale="  178.563">  2  9  1 -1</clus>
<clus scale="  178.563">  2  5  1 -1</clus>
</clustering>
</event>
<event>
 9    1  0.4067873E-005  0.1757461E+03  0.7546771E-02  0.1173979E+00
         21   -1    0    0  501  502  0.00000000000E+00  0.00000000000E+00  0.81763050480E+02  0.81763050480E+02  0.00000000000E+00 0. -1.
          1   -1    0    0  502    0 -0.00000000000E+00 -0.00000000000E+00 -0.78690441011E+03  0.78690441011E+03  0.00000000000E+00 0. -1.
        -24    2    1    2    0    0  0.29438453076E+02 -0.16943408014E+03 -0.30755399951E+03  0.36138471782E+03  0.80217963222E+02 0.  0.
         23    2    1    2    0    0  0.66540930644E+02  0.11091032210E+03 -0.10037921249E+03  0.18952535833E+03  0.95472928890E+02 0.  0.
         11    1    3    3    0    0  0.11951125234E+02 -0.16514449300E+03 -0.24071596370E+03  0.29216383784E+03  0.00000000000E+00 0. -1.
        -12    1    3    3    0    0  0.17487327842E+02 -0.42895871332E+01 -0.66838035811E+02  0.69220879971E+02  0.00000000000E+00 0.  1.
        -11    1    4    4    0    0  0.57717645757E+01  0.95661369004E+02 -0.44869832672E+02  0.10581924527E+03  0.00000000000E+00 0. -1.
         11    1    4    4    0    0  0.60769166069E+02  0.15248953092E+02 -0.55509379820E+02  0.83706113057E+02  0.00000000000E+00 0.  1.
          2    1    1    2  501    0 -0.95979383720E+02  0.58523758042E+02 -0.29720814763E+03  0.31775738445E+03  0.00000000000E+00 0. -1.
<scales pt_clust_5="13000.00000" pt_clust_6="13000.00000" pt_clust_7="13000.00000" pt_clust_8="13000.00000" pt_clust_9="112.41479"></scales>
<clustering>
<clus scale="   80.218">  5  6 -1 -1</clus>
<clus scale="   95.473">  7  8 -1 -1</clus>
<clus scale="  112.415">  1  9  2 -1</clus>
<clus scale="  167.948">  2  5  1 -1</clus>
<clus scale="  112.415">  1  5  2 -1</clus>
</clustering>
</event>
<event>
 9    1  0.4067873E-005  0.3830531E+03  0.7546771E-02  0.1050079E+00
         21   -1    0    0  501  502  0.00000000000E+00  0.00000000000E+00  0.71568572398E+03  0.71568572398E+03  0.00000000000E+00 0. -1.
          1   -1    0    0  502    0 -0.00000000000E+00 -0.00000000000E+00 -0.61133817406E+03  0.61133817406E+03  0.00000000000E+00 0. -1.
         23    2    1    2    0    0 -0.32113765987E+03 -0.10683588884E+03  0.20829109389E+03  0.40999589459E+03  0.10083724536E+03 0.  0.
        -24    2    1    2    0    0  0.24536808046E+03  0.37930106872E+03  0.19987142785E+03  0.50195952656E+03  0.89106582214E+02 0.  0.
         13    1    4    4    0    0  0.24560770266E+03  0.38335755704E+03  0.19418088576E+03  0.49496704592E+03  0.00000000000E+00 0. -1.
        -14    1    4    4    0    0 -0.23962219593E+00 -0.40564883263E+01  0.56905420820E+01  0.69924806417E+01  0.00000000000E+00 0.  1.
        -11    1    3    3    0    0 -0.18457656090E+03 -0.95823928038E+02  0.16754178360E+03  0.26705988331E+03  0.00000000000E+00 0.  1.
         11    1    3    3    0    0 -0.13656109897E+03 -0.11011960801E+02  0.40749310292E+02  0.14293601128E+03  0.00000000000E+00 0. -1.
          2    1    1    2  501    0  0.75769579408E+02 -0.27246517988E+03 -0.30381497182E+03  0.41506847689E+03  0.00000000000E+00 0. -1.
<scales pt_clust_5="13000.00000" pt_clust_6="13000.00000" pt_clust_7="13000.00000" pt_clust_8="13000.00000" pt_clust_9="282.80450"></scales>
<clustering>
<clus scale="   89.107">  5  6 -1 -1</clus>
<clus scale="  100.837">  7  8 -1 -1</clus>
<clus scale="  282.804">  1  9  2 -1</clus>
<clus scale="  380.134">  1  5  2 -1</clus>
<clus scale="  282.804">  1  5  2 -1</clus>
</clustering>
</event>
<event>
 9    1  0.4067873E-005  0.1106383E+03  0.7546771E-02  0.1262857E+00
          3   -1    0    0  502    0 -0.00000000000E+00  0.00000000000E+00  0.12794032382E+03  0.12794032382E+03  0.00000000000E+00 0. -1.
         21   -1    0    0  501  502  0.00000000000E+00 -0.00000000000E+00 -0.15130631528E+03  0.15130631528E+03  0.00000000000E+00 0.  1.
        -24    2    1    2    0    0  0.56171061616E+02  0.35276632588E+02  0.61413378511E+02  0.12182482665E+03  0.81670412995E+02 0.  0.
         23    2    1    2    0    0 -0.56335459649E+02 -0.10576654839E+02 -0.62567440799E+02  0.12420305683E+03  0.90698208556E+02 0.  0.
         13    1    3    3    0    0  0.34720124571E+02  0.73894090864E+00  0.71890902347E+02  0.79839432138E+02  0.00000000000E+00 0. -1.
        -14    1    3    3    0    0  0.21450937045E+02  0.34537691680E+02 -0.10477523837E+02  0.41985394513E+02  0.00000000000E+00 0.  1.
        -11    1    4    4    0    0 -0.49434984731E+02 -0.48057263536E+02 -0.44212274283E+02  0.81902646424E+02  0.00000000000E+00 0. -1.
         11    1    4    4    0    0 -0.69004749184E+01  0.37480608697E+02 -0.18355166516E+02  0.42300410402E+02  0.00000000000E+00 0.  1.
          4    1    1    2  501    0  0.16439803360E+00 -0.24699977750E+02 -0.22211929175E+02  0.33218755624E+02  0.00000000000E+00 0. -1.
<scales pt_clust_5="13000.00000" pt_clust_6="13000.00000" pt_clust_7="13000.00000" pt_clust_8="13000.00000" pt_clust_9="24.70052"></scales>
<clustering>
<clus scale="   24.701">  2  9  1 -1</clus>
<clus scale="   81.670">  5  6 -1 -1</clus>
<clus scale="   90.698">  7  8 -1 -1</clus>
<clus scale="  103.367">  1  5  2 -1</clus>
<clus scale="   24.701">  2  5  1 -1</clus>
</clustering>
</event>
<event>
 9    1  0.4067873E-005  0.9696251E+02  0.7546771E-02  0.1301638E+00
         -2   -1    0    0    0  501 -0.00000000000E+00  0.00000000000E+00  0.46912371861E+02  0.46912371861E+02  0.00000000000E+00 0.  1.
         21   -1    0    0  501  502  0.00000000000E+00 -0.00000000000E+00 -0.27661615462E+03  0.27661615462E+03  0.00000000000E+00 0.  1.
        -24    2    1    2    0    0 -0.23428593165E+02  0.98277064014E+01 -0.87134850263E+02  0.13226088676E+03  0.96202792297E+02 0.  0.
         23    2    1    2    0    0 -0.76156851111E+01  0.28093495112E+02 -0.93826889751E+02  0.12214780560E+03  0.72590344020E+02 0.  0.
         13    1    3    3    0    0  0.14211751522E+02  0.41064724086E+02 -0.16798078002E+02  0.46588205269E+02  0.00000000000E+00 0. -1.
        -14    1    3    3    0    0 -0.37640344687E+02 -0.31237017685E+02 -0.70336772261E+02  0.85672681493E+02  0.00000000000E+00 0.  1.
        -13    1    4    4    0    0 -0.28020273313E+02  0.29597357586E+01 -0.63642275293E+01  0.28885967949E+02  0.00000000000E+00 0. -1.
         13    1    4    4    0    0  0.20404588202E+02  0.25133759353E+02 -0.87462662221E+02  0.93261837650E+02  0.00000000000E+00 0.  1.
         -1    1    1    2    0  502  0.31044278276E+02 -0.37921201513E+02 -0.48742042744E+02  0.69119834120E+02  0.00000000000E+00 0.  1.
<scales pt_clust_5="13000.00000" pt_clust_6="13000.00000" pt_clust_7="13000.00000" pt_clust_8="13000.00000" pt_clust_9="49.00783"></scales>
<clustering>
<clus scale="   49.008">  2  9  1 -1</clus>
<clus scale="   72.590">  7  8 -1 -1</clus>
<clus scale="   73.594">  2  7  1 -1</clus>
<clus scale="   96.203">  5  6 -1 -1</clus>
<clus scale="   49.008">  2  5  1 -1</clus>
</clustering>
</event>
<event>
 9    1  0.4067873E-005  0.9922007E+02  0.7546771E-02  0.1288268E+00
          1   -1    0    0  502    0 -0.00000000000E+00  0.00000000000E+00  0.10410337354E+03  0.10410337354E+03  0.00000000000E+00 0. -1.
         21   -1    0    0  501  502  0.00000000000E+00 -0.00000000000E+00 -0.24829001442E+03  0.24829001442E+03  0.00000000000E+00 0.  1.
        -24    2    1    2    0    0 -0.19621655759E+02 -0.36200278033E+02  0.57051652031E+02  0.10523194641E+03  0.78252169562E+02 0.  0.
         23    2    1    2    0    0 -0.10112569494E+01  0.41199189900E+02 -0.90951926468E+02  0.13485031642E+03  0.90630894412E+02 0.  0.
         11    1    3    3    0    0 -0.19594321167E+02 -0.54966115317E+02  0.62681454009E+02  0.85639803431E+02  0.00000000000E+00 0. -1.
        -12    1    3    3    0    0 -0.27334592860E-01  0.18765837284E+02 -0.56298019784E+01  0.19592142978E+02  0.00000000000E+00 0.  1.
        -11    1    4    4    0    0 -0.37525015233E+02  0.28057029819E+02 -0.14388711166E+02  0.49013862319E+02  0.00000000000E+00 0. -1.
         11    1    4    4    0    0  0.36513758283E+02  0.13142160081E+02 -0.76563215302E+02  0.85836454103E+02  0.00000000000E+00 0.  1.
          2    1    1    2  501    0  0.20632912709E+02 -0.49989118662E+01 -0.11028636644E+03  0.11231112514E+03  0.00000000000E+00 0. -1.
<scales pt_clust_5="13000.00000" pt_clust_6="13000.00000" pt_clust_7="13000.00000" pt_clust_8="13000.00000" pt_clust_9="21.22984"></scales>
<clustering>
<clus scale="   21.230">  2  9  1 -1</clus>
<clus scale="   78.252">  5  6 -1 -1</clus>
<clus scale="   88.057">  1  5  2 -1</clus>
<clus scale="   90.631">  7  8 -1 -1</clus>
<clus scale="   21.230">  2  5  1 -1</clus>
</clustering>
</event>
<event>
 9    1  0.4067873E-005  0.1190119E+03  0.7546771E-02  0.1248831E+00
         21   -1    0    0  501  502  0.00000000000E+00  0.00000000000E+00  0.47803617166E+03  0.47803617166E+03  0.00000000000E+00 0. -1.
         -2   -1    0    0    0  501 -0.00000000000E+00 -0.00000000000E+00 -0.47619827788E+02  0.47619827788E+02  0.00000000000E+00 0.  1.
        -24    2    1    2    0    0 -0.41065370464E+02 -0.63123632564E+02  0.61498232363E+02  0.12533643881E+03  0.79096350557E+02 0.  0.
         23    2    1    2    0    0  0.62640667971E+02  0.51460390461E+02  0.34499801008E+03  0.36606031471E+03  0.91676070906E+02 0.  0.
         13    1    3    3    0    0  0.12849142265E+02 -0.52607528613E+02  0.27507343695E+02  0.60739661514E+02  0.00000000000E+00 0. -1.
        -14    1    3    3    0    0 -0.53914512729E+02 -0.10516103951E+02  0.33990888667E+02  0.64596777300E+02  0.00000000000E+00 0.  1.
        -13    1    4    4    0    0  0.19810421458E+01  0.60940100522E+02  0.16951112163E+03  0.18014338938E+03  0.00000000000E+00 0.  1.
         13    1    4    4    0    0  0.60659625825E+02 -0.94797100610E+01  0.17548688845E+03  0.18591692533E+03  0.00000000000E+00 0. -1.
         -1    1    1    2    0  502 -0.21575297507E+02  0.11663242103E+02  0.23920101429E+02  0.34259245924E+02  0.00000000000E+00 0.  1.
<scales pt_clust_5="13000.00000" pt_clust_6="13000.00000" pt_clust_7="13000.00000" pt_clust_8="13000.00000" pt_clust_9="24.52601"></scales>
<clustering>
<clus scale="   24.526">  1  9  2 -1</clus>
<clus scale="   79.096">  5  6 -1 -1</clus>
<clus scale="   91.676">  7  8 -1 -1</clus>
<clus scale="  109.616">  2  5  1 -1</clus>
<clus scale="   24.526">  1  5  2 -1</clus>
</clustering>
</event>
<event>
 9    1  0.4067873E-005  0.1121152E+03  0.7546771E-02  0.1265706E+00
         21   -1    0    0  501  502  0.00000000000E+00  0.00000000000E+00  0.61515051952E+03  0.61515051952E+03  0.00000000000E+00 0.  1.
         -2   -1    0    0    0  501 -0.00000000000E+00 -0.00000000000E+00 -0.28649233095E+02  0.28649233095E+02  0.00000000000E+00 0.  1.
         23    2    1    2    0    0  0.22153922217E+02  0.38048646905E+02  0.25314239144E+03  0.27600825261E+03  0.10080173294E+03 0.  0.
        -24    2    1    2    0    0 -0.92813404153E+01 -0.56659893673E+02  0.33061428761E+03  0.34499644049E+03  0.80126462200E+02 0.  0.
         13    1    4    4    0    0  0.22138269973E+02  0.93872542463E+01  0.59127331321E+02  0.63829968266E+02  0.00000000000E+00 0. -1.
        -14    1    4    4    0    0 -0.31419610388E+02 -0.66047147920E+02  0.27148695629E+03  0.28116647222E+03  0.00000000000E+00 0.  1.
        -13    1    3    3    0    0  0.33819817595E+01  0.65387545273E+02  0.10152874014E+03  0.12080999111E+03  0.00000000000E+00 0. -1.
         13    1    3    3    0    0  0.18771940458E+02 -0.27338898368E+02  0.15161365130E+03  0.15519826151E+03  0.00000000000E+00 0.  1.
         -1    1    1    2    0  502 -0.12872581802E+02  0.18611246768E+02  0.27446073674E+01  0.22795059511E+02  0.00000000000E+00 0.  1.
<scales pt_clust_5="13000.00000" pt_clust_6="13000.00000" pt_clust_7="13000.00000" pt_clust_8="13000.00000" pt_clust_9="22.62924"></scales>
<clustering>
<clus scale="   22.629">  1  9  2 -1</clus>
<clus scale="   80.126">  5  6 -1 -1</clus>
<clus scale="   93.963">  1  5  2 -1</clus>
<clus scale="  100.802">  7  8 -1 -1</clus>
<clus scale="   22.629">  1  5  2 -1</clus>
</clustering>
</event>
<event>
 9    1  0.4067873E-005  0.1415858E+03  0.7546771E-02  0.1212598E+00
         21   -1    0    0  501  502  0.00000000000E+00  0.00000000000E+00  0.18858189266E+02  0.18858189266E+02  0.00000000000E+00 0. -1.
          3   -1    0    0  502    0 -0.00000000000E+00 -0.00000000000E+00 -0.12213178679E+04  0.12213178679E+04  0.00000000000E+00 0. -1.
        -24    2    1    2    0    0 -0.85229252379E+02 -0.43592208378E+02 -0.52929026938E+03  0.54655072753E+03  0.96980422773E+02 0.  0.
         23    2    1    2    0    0  0.10629369042E+03  0.33354118794E+02 -0.58327133891E+03  0.60072650253E+03  0.90862699620E+02 0.  0.
         13    1    3    3    0    0 -0.51985005246E+02  0.15332476364E+02 -0.11954537405E+03  0.13125784570E+03  0.00000000000E+00 0. -1.
        -14    1    3    3    0    0 -0.33244247132E+02 -0.58924684742E+02 -0.40974489534E+03  0.41529288182E+03  0.00000000000E+00 0.  1.
        -13    1    4    4    0    0  0.29555888112E+02  0.43081761741E+02 -0.11771931943E+03  0.12879218487E+03  0.00000000000E+00 0.  1.
         13    1    4    4    0    0  0.76737802306E+02 -0.97276429469E+01 -0.46555201949E+03  0.47193431766E+03  0.00000000000E+00 0. -1.
          4    1    1    2  501    0 -0.21064438039E+02  0.10238089584E+02 -0.89898070331E+02  0.92898827105E+02  0.00000000000E+00 0. -1.
<scales pt_clust_5="13000.00000" pt_clust_6="13000.00000" pt_clust_7="13000.00000" pt_clust_8="13000.00000" pt_clust_9="23.42070"></scales>
<clustering>
<clus scale="   23.421">  1  9  2 -1</clus>
<clus scale="   90.863">  7  8 -1 -1</clus>
<clus scale="   96.980">  5  6 -1 -1</clus>
<clus scale="  137.468">  1  7  2 -1</clus>
<clus scale="   23.421">  1  5  2 -1</clus>
</clustering>
</event>
<event>
 9    1  0.4067873E-005  0.1019976E+03  0.7546771E-02  0.1281590E+00
         21   -1    0    0  501  502  0.00000000000E+00  0.00000000000E+00  0.35468324391E+03  0.35468324391E+03  0.00000000000E+00 0.  1.
         -4   -1    0    0    0  501 -0.00000000000E+00 -0.00000000000E+00 -0.92535066283E+02  0.92535066283E+02  0.00000000000E+00 0.  1.
        -24    2    1    2    0    0  0.21199460166E+01  0.37379984427E+02  0.55937683285E+00  0.87963621827E+02  0.79596032914E+02 0.  0.
         23    2    1    2    0    0  0.53575648514E+02 -0.93616063626E+02  0.23794102269E+03  0.27664891821E+03  0.91018548569E+02 0.  0.
         11    1    3    3    0    0  0.36923096664E+01 -0.23702107241E+02  0.10270906883E+02  0.26094339741E+02  0.00000000000E+00 0. -1.
        -12    1    3    3    0    0 -0.15723636498E+01  0.61082091668E+02 -0.97115300505E+01  0.61869282086E+02  0.00000000000E+00 0.  1.
        -13    1    4    4    0    0 -0.20792202096E+02 -0.11722167071E+02  0.82362321072E+02  0.85751249560E+02  0.00000000000E+00 0. -1.
         13    1    4    4    0    0  0.74367850610E+02 -0.81893896555E+02  0.15557870162E+03  0.19089766865E+03  0.00000000000E+00 0.  1.
         -3    1    1    2    0  502 -0.55695594531E+02  0.56236079199E+02  0.23647778101E+02  0.82605770155E+02  0.00000000000E+00 0.  1.
<scales pt_clust_5="13000.00000" pt_clust_6="13000.00000" pt_clust_7="13000.00000" pt_clust_8="13000.00000" pt_clust_9="79.14861"></scales>
<clustering>
<clus scale="   79.149">  1  9  2 -1</clus>
<clus scale="   79.596">  5  6 -1 -1</clus>
<clus scale="   91.019">  7  8 -1 -1</clus>
<clus scale="   91.949">  2  5  1 -1</clus>
<clus scale="   79.149">  1  5  2 -1</clus>
</clustering>
</event>
<event>
 9    1  0.4067873E-005  0.9853849E+02  0.7546771E-02  0.1289142E+00
         21   -1    0    0  501  502  0.00000000000E+00  0.00000000000E+00  0.21022579476E+03  0.21022579476E+03  0.00000000000E+00 0. -1.
          1   -1    0    0  502    0 -0.00000000000E+00 -0.00000000000E+00 -0.11233574173E+03  0.11233574173E+03  0.00000000000E+00 0. -1.
        -24    2    1    2    0    0 -0.35948622305E+02  0.17872255012E+02 -0.56865383685E+02  0.10680975526E+03  0.81011918953E+02 0.  0.
         23    2    1    2    0    0 -0.81114158876E+01 -0.28486164498E+02  0.13575456793E+03  0.16660938554E+03  0.91935455625E+02 0.  0.
         13    1    3    3    0    0 -0.37172648803E+02  0.47016982470E+02 -0.46474890292E+02  0.75844036597E+02  0.00000000000E+00 0. -1.
        -14    1    3    3    0    0  0.12240264982E+01 -0.29144727458E+02 -0.10390493393E+02  0.30965718665E+02  0.00000000000E+00 0.  1.
        -13    1    4    4    0    0 -0.41925383260E+02  0.12097436933E+02  0.57151721695E+02  0.71905528540E+02  0.00000000000E+00 0. -1.
         13    1    4    4    0    0  0.33813967373E+02 -0.40583601431E+02  0.78602846231E+02  0.94703856998E+02  0.00000000000E+00 0.  1.
          2    1    1    2  501    0  0.44060038193E+02  0.10613909486E+02  0.19000868791E+02  0.49142395698E+02  0.00000000000E+00 0. -1.
<scales pt_clust_5="13000.00000" pt_clust_6="13000.00000" pt_clust_7="13000.00000" pt_clust_8="13000.00000" pt_clust_9="45.32044"></scales>
<clustering>
<clus scale="   45.320">  1  9  2 -1</clus>
<clus scale="   81.012">  5  6 -1 -1</clus>
<clus scale="   88.434">  2  5  1 -1</clus>
<clus scale="   91.935">  7  8 -1 -1</clus>
<clus scale="   45.320">  1  5  2 -1</clus>
</clustering>
</event>
<event>
 9    1  0.4067873E-005  0.1032666E+03  0.7546771E-02  0.1278374E+00
         21   -1    0    0  501  502  0.00000000000E+00  0.00000000000E+00  0.21211047856E+03  0.21211047856E+03  0.00000000000E+00 0.  1.
         -4   -1    0    0    0  501 -0.00000000000E+00 -0.00000000000E+00 -0.13043259213E+03  0.13043259213E+03  0.00000000000E+00 0.  1.
        -24    2    1    2    0    0 -0.65449965236E+02 -0.39991219847E+02  0.62510899279E+01  0.11153963681E+03  0.80740441164E+02 0.  0.
         23    2    1    2    0    0 -0.12250096129E+02  0.86148177311E+00  0.10455580202E+03  0.13925957904E+03  0.91161985571E+02 0.  0.
         13    1    3    3    0    0 -0.40463660992E+02  0.16898398790E+02 -0.14253568834E+02  0.46108870806E+02  0.00000000000E+00 0. -1.
        -14    1    3    3    0    0 -0.24986304244E+02 -0.56889618636E+02  0.20504658762E+02  0.65430766000E+02  0.00000000000E+00 0.  1.
        -11    1    4    4    0    0  0.32615897691E+02  0.41890315268E+01  0.83192451889E+02  0.89455736645E+02  0.00000000000E+00 0.  1.
         11    1    4    4    0    0 -0.44865993820E+02 -0.33275497537E+01  0.21363350129E+02  0.49803842397E+02  0.00000000000E+00 0. -1.
         -3    1    1    2    0  502  0.77700061365E+02  0.39129738074E+02 -0.29129005520E+02  0.91743854838E+02  0.00000000000E+00 0.  1.
<scales pt_clust_5="13000.00000" pt_clust_6="13000.00000" pt_clust_7="13000.00000" pt_clust_8="13000.00000" pt_clust_9="86.99680"></scales>
<clustering>
<clus scale="   80.740">  5  6 -1 -1</clus>
<clus scale="   86.997">  1  9  2 -1</clus>
<clus scale="   91.162">  7  8 -1 -1</clus>
<clus scale="   94.194">  2  5  1 -1</clus>
<clus scale="   86.997">  1  5  2 -1</clus>
</clustering>
</event>
<event>
 9    1  0.4067873E-005  0.1123820E+03  0.7546771E-02  0.1259336E+00
          3   -1    0    0  502    0 -0.00000000000E+00  0.00000000000E+00  0.26341405546E+03  0.26341405546E+03  0.00000000000E+00 0. -1.
         21   -1    0    0  501  502  0.00000000000E+00 -0.00000000000E+00 -0.77756289799E+02  0.77756289799E+02  0.00000000000E+00 0.  1.
        -24    2    1    2    0    0 -0.62834446144E+02 -0.34659876217E+02  0.14985455612E+03  0.18493758432E+03  0.81216054211E+02 0.  0.
         23    2    1    2    0    0  0.30620436347E+02  0.55631536482E+02  0.11026216058E+02  0.11050036140E+03  0.89756746020E+02 0.  0.
         13    1    3    3    0    0 -0.23246969522E+02 -0.50970749567E+02  0.12090414623E+03  0.13325258526E+03  0.00000000000E+00 0. -1.
        -14    1    3    3    0    0 -0.39587476623E+02  0.16310873350E+02  0.28950409897E+02  0.51684999061E+02  0.00000000000E+00 0.  1.
        -11    1    4    4    0    0 -0.11096788654E+02  0.42699844541E+02 -0.27729487010E+02  0.52108923345E+02  0.00000000000E+00 0.  1.
         11    1    4    4    0    0  0.41717225000E+02  0.12931691941E+02  0.38755703068E+02  0.58391438058E+02  0.00000000000E+00 0. -1.
          4    1    1    2  501    0  0.32214009798E+02 -0.20971660264E+02  0.24776993482E+02  0.45732399538E+02  0.00000000000E+00 0. -1.
<scales pt_clust_5="13000.00000" pt_clust_6="13000.00000" pt_clust_7="13000.00000" pt_clust_8="13000.00000" pt_clust_9="38.43895"></scales>
<clustering>
<clus scale="   38.439">  2  9  1 -1</clus>
<clus scale="   81.216">  5  6 -1 -1</clus>
<clus scale="   89.757">  7  8 -1 -1</clus>
<clus scale="  105.686">  1  5  2 -1</clus>
<clus scale="   38.439">  2  5  1 -1</clus>
</clustering>
</event>
<event>
 9    1  0.4067873E-005  0.3435170E+03  0.7546771E-02  0.1065517E+00
          1   -1    0    0  502    0 -0.00000000000E+00  0.00000000000E+00  0.51147647581E+03  0.51147647581E+03  0.00000000000E+00 0. -1.
         21   -1    0    0  501  502  0.00000000000E+00 -0.00000000000E+00 -0.30811920803E+03  0.30811920803E+03  0.00000000000E+00 0.  1.
         23    2    1    2    0    0 -0.27909693548E+03  0.16375984907E+03  0.20061252401E+03  0.39072588343E+03  0.87800590131E+02 0.  0.
        -24    2    1    2    0    0  0.32709718521E+03 -0.13072982492E+03 -0.29359819093E+02  0.36234379478E+03  0.79675409861E+02 0.  0.
         13    1    4    4    0    0  0.77195945040E+02 -0.36334977125E+02 -0.41615790979E+02  0.94927965069E+02  0.00000000000E+00 0. -1.
        -14    1    4    4    0    0  0.24990124017E+03 -0.94394847796E+02  0.12255971886E+02  0.26741582971E+03  0.00000000000E+00 0.  1.
        -11    1    3    3    0    0 -0.12249709420E+02  0.36876116342E+02  0.14257200725E+02  0.41390471245E+02  0.00000000000E+00 0.  1.
         11    1    3    3    0    0 -0.26684722606E+03  0.12688373273E+03  0.18635532329E+03  0.34933541218E+03  0.00000000000E+00 0. -1.
          2    1    1    2  501    0 -0.48000249732E+02 -0.33030024150E+02  0.32104562863E+02  0.66526005639E+02  0.00000000000E+00 0. -1.
<scales pt_clust_5="13000.00000" pt_clust_6="13000.00000" pt_clust_7="13000.00000" pt_clust_8="13000.00000" pt_clust_9="58.26671"></scales>
<clustering>
<clus scale="   58.267">  2  9  1 -1</clus>
<clus scale="   79.675">  5  6 -1 -1</clus>
<clus scale="   87.801">  7  8 -1 -1</clus>
<clus scale="  341.531">  2  5  1 -1</clus>
<clus scale="   58.267">  2  5  1 -1</clus>
</clustering>
</event>
<event>
 9    1  0.4067873E-005  0.1002382E+03  0.7546771E-02  0.1286931E+00
          1   -1    0    0  502    0 -0.00000000000E+00  0.00000000000E+00  0.45647686038E+03  0.45647686038E+03  0.00000000000E+00 0. -1.
         21   -1    0    0  501  502  0.00000000000E+00 -0.00000000000E+00 -0.31559165829E+02  0.31559165829E+02  0.00000000000E+00 0. -1.
        -24    2    1    2    0    0  0.34791737780E+02  0.24123564334E+02  0.21100105256E+03  0.22985022918E+03  0.80729624659E+02 0.  0.
         23    2    1    2    0    0 -0.25233597965E+02  0.11485515881E+02  0.10803370193E+03  0.14606728105E+03  0.94317115619E+02 0.  0.
         13    1    3    3    0    0  0.40042816859E+02  0.46756431748E+02  0.18503695593E+03  0.19500837456E+03  0.00000000000E+00 0. -1.
        -14    1    3    3    0    0 -0.52510790790E+01 -0.22632867414E+02  0.25964096635E+02  0.34841854614E+02  0.00000000000E+00 0.  1.
        -11    1    4    4    0    0  0.24322708072E+02  0.30411352958E+02  0.72258928191E+02  0.82084086277E+02  0.00000000000E+00 0.  1.
         11    1    4    4    0    0 -0.49556306037E+02 -0.18925837077E+02  0.35774773744E+02  0.63983194774E+02  0.00000000000E+00 0. -1.
          2    1    1    2  501    0 -0.95581398150E+01 -0.35609080215E+02  0.10588294005E+03  0.11211851598E+03  0.00000000000E+00 0. -1.
<scales pt_clust_5="13000.00000" pt_clust_6="13000.00000" pt_clust_7="13000.00000" pt_clust_8="13000.00000" pt_clust_9="36.86958"></scales>
<clustering>
<clus scale="   36.870">  2  9  1 -1</clus>
<clus scale="   80.730">  5  6 -1 -1</clus>
<clus scale="   87.574">  1  5  2 -1</clus>
<clus scale="   94.317">  7  8 -1 -1</clus>
<clus scale="   36.870">  2  5  1 -1</clus>
</clustering>
</event>
<event>
 9    1  0.4067873E-005  0.9992395E+02  0.7546771E-02  0.1286423E+00
         21   -1    0    0  501  502  0.00000000000E+00  0.00000000000E+00  0.13000694509E+02  0.13000694509E+02  0.00000000000E+00 0. -1.
          1   -1    0    0  502    0 -0.00000000000E+00 -0.00000000000E+00 -0.15808322843E+04  0.15808322843E+04  0.00000000000E+00 0. -1.
        -24    2    1    2    0    0  0.61039853837E+01 -0.32810727262E+02 -0.70364099972E+03  0.70875076367E+03  0.78122890728E+02 0.  0.
         23    2    1    2    0    0 -0.70836348428E+02  0.47225170725E+02 -0.52149548884E+03  0.53602922860E+03  0.90120941080E+02 0.  0.
         11    1    3    3    0    0  0.11790964462E+02 -0.25074164667E+02 -0.73698011028E+02  0.78734601074E+02  0.00000000000E+00 0. -1.
        -12    1    3    3    0    0 -0.56869790781E+01 -0.77365625952E+01 -0.62994298869E+03  0.63001616260E+03  0.00000000000E+00 0.  1.
        -13    1    4    4    0    0  0.19585920439E+02  0.23301253536E+02 -0.12676205421E+03  0.13036554408E+03  0.00000000000E+00 0.  1.
         13    1    4    4    0    0 -0.90422268867E+02  0.23923917189E+02 -0.39473343463E+03  0.40566368452E+03  0.00000000000E+00 0. -1.
          2    1    1    2  501    0  0.64732363044E+02 -0.14414443463E+02 -0.34269510121E+03  0.34905298652E+03  0.00000000000E+00 0. -1.
<scales pt_clust_5="13000.00000" pt_clust_6="13000.00000" pt_clust_7="13000.00000" pt_clust_8="13000.00000" pt_clust_9="66.31783"></scales>
<clustering>
<clus scale="   66.318">  1  9  2 -1</clus>
<clus scale="   78.123">  5  6 -1 -1</clus>
<clus scale="   89.254">  2  5  1 -1</clus>
<clus scale="   90.121">  7  8 -1 -1</clus>
<clus scale="   66.318">  1  5  2 -1</clus>
</clustering>
</event>
<event>
 9    1  0.4067873E-005  0.1630399E+03  0.7546771E-02  0.1211665E+00
         21   -1    0    0  501  502  0.00000000000E+00  0.00000000000E+00  0.78246791953E+02  0.78246791953E+02  0.00000000000E+00 0.  1.
         -2   -1    0    0    0  501 -0.00000000000E+00 -0.00000000000E+00 -0.59713816479E+03  0.59713816479E+03  0.00000000000E+00 0.  1.
        -24    2    1    2    0    0  0.54102204873E+01 -0.38226184450E+02 -0.22812154119E+03  0.24591221186E+03  0.83323866456E+02 0.  0.
         23    2    1    2    0    0 -0.12356343643E+03 -0.42211905763E+02 -0.21937948472E+03  0.26970087493E+03  0.86956516794E+02 0.  0.
         13    1    3    3    0    0 -0.34029489296E+02  0.30129366698E+01 -0.72126292239E+02  0.79807806393E+02  0.00000000000E+00 0. -1.
        -14    1    3    3    0    0  0.39439709783E+02 -0.41239121120E+02 -0.15599524895E+03  0.16610440546E+03  0.00000000000E+00 0.  1.
        -13    1    4    4    0    0 -0.12714997152E+02 -0.24563505082E+02 -0.10833215750E+03  0.11180739369E+03  0.00000000000E+00 0. -1.
         13    1    4    4    0    0 -0.11084843928E+03 -0.17648400681E+02 -0.11104732721E+03  0.15789348124E+03  0.00000000000E+00 0.  1.
         -1    1    1    2    0  502  0.11815321594E+03  0.80438090213E+02 -0.71390346929E+02  0.15977186996E+03  0.00000000000E+00 0.  1.
<scales pt_clust_5="13000.00000" pt_clust_6="13000.00000" pt_clust_7="13000.00000" pt_clust_8="13000.00000" pt_clust_9="137.91514"></scales>
<clustering>
<clus scale="   83.324">  5  6 -1 -1</clus>
<clus scale="   86.957">  7  8 -1 -1</clus>
<clus scale="   91.833">  2  5  1 -1</clus>
<clus scale="  137.915">  1  9  2 -1</clus>
<clus scale="  137.915">  1  5  2 -1</clus>
</clustering>
</event>
<event>
 9    1  0.4067873E-005  0.1021719E+03  0.7546771E-02  0.1280402E+00
         21   -1    0    0  501  502  0.00000000000E+00  0.00000000000E+00  0.16440353354E+03  0.16440353354E+03  0.00000000000E+00 0. -1.
          1   -1    0    0  502    0 -0.00000000000E+00 -0.00000000000E+00 -0.31460579811E+03  0.31460579811E+03  0.00000000000E+00 0. -1.
        -24    2    1    2    0    0 -0.42018017999E+01 -0.48421916419E+02 -0.23165890289E+03  0.24975744041E+03  0.79690618172E+02 0.  0.
         23    2    1    2    0    0 -0.17560828720E+02  0.51603548209E+02 -0.35110617864E+02  0.11062786297E+03  0.89635147599E+02 0.  0.
         11    1    3    3    0    0 -0.41801054459E+01 -0.65670692345E+02 -0.21811972619E+03  0.22782960314E+03  0.00000000000E+00 0. -1.
        -12    1    3    3    0    0 -0.21696354026E-01  0.17248775925E+02 -0.13539176703E+02  0.21927837273E+02  0.00000000000E+00 0.  1.
        -11    1    4    4    0    0  0.20051395084E+02  0.14587905309E+02  0.21799214386E+02  0.33016225919E+02  0.00000000000E+00 0.  1.
         11    1    4    4    0    0 -0.37612223803E+02  0.37015642900E+02 -0.56909832251E+02  0.77611637050E+02  0.00000000000E+00 0. -1.
          2    1    1    2  501    0  0.21762630520E+02 -0.31816317903E+01  0.11656725618E+03  0.11862402827E+03  0.00000000000E+00 0. -1.
<scales pt_clust_5="13000.00000" pt_clust_6="13000.00000" pt_clust_7="13000.00000" pt_clust_8="13000.00000" pt_clust_9="21.99397"></scales>
<clustering>
<clus scale="   21.994">  1  9  2 -1</clus>
<clus scale="   79.691">  5  6 -1 -1</clus>
<clus scale="   89.635">  7  8 -1 -1</clus>
<clus scale="   93.569">  2  5  1 -1</clus>
<clus scale="   21.994">  1  5  2 -1</clus>
</clustering>
</event>
<event>
 9    1  0.4067873E-005  0.1441346E+03  0.7546771E-02  0.1209606E+00
         -4   -1    0    0    0  501 -0.00000000000E+00  0.00000000000E+00  0.12087654294E+04  0.12087654294E+04  0.00000000000E+00 0.  1.
         21   -1    0    0  501  502  0.00000000000E+00 -0.00000000000E+00 -0.47125202525E+02  0.47125202525E+02  0.00000000000E+00 0.  1.
        -24    2    1    2    0    0  0.10132393176E+03 -0.21628685075E+02  0.71835109038E+03  0.73024959762E+03  0.80634028888E+02 0.  0.
         23    2    1    2    0    0 -0.16868340819E+03 -0.33595790583E+02  0.27955895861E+03  0.34018318755E+03  0.89379082589E+02 0.  0.
         11    1    3    3    0    0  0.10419152734E+03 -0.38563834248E+00  0.49350256347E+03  0.50438160478E+03  0.00000000000E+00 0. -1.
        -12    1    3    3    0    0 -0.28675955820E+01 -0.21243046733E+02  0.22484852690E+03  0.22586799284E+03  0.00000000000E+00 0.  1.
        -11    1    4    4    0    0 -0.15727025636E+03 -0.45772517886E+01  0.25829053796E+03  0.30243823628E+03  0.00000000000E+00 0.  1.
         11    1    4    4    0    0 -0.11413151829E+02 -0.29018538795E+02  0.21268420659E+02  0.37744951262E+02  0.00000000000E+00 0. -1.
         -3    1    1    2    0  502  0.67359476429E+02  0.55224475659E+02  0.16373017793E+03  0.18545784680E+03  0.00000000000E+00 0.  1.
<scales pt_clust_5="13000.00000" pt_clust_6="13000.00000" pt_clust_7="13000.00000" pt_clust_8="13000.00000" pt_clust_9="87.10363"></scales>
<clustering>
<clus scale="   80.634">  5  6 -1 -1</clus>
<clus scale="   87.104">  2  9  1 -1</clus>
<clus scale="   89.379">  7  8 -1 -1</clus>
<clus scale="  138.881">  1  5  2 -1</clus>
<clus scale="   87.104">  2  5  1 -1</clus>
</clustering>
</event>
<event>
 9    1  0.4067873E-005  0.9945852E+02  0.7546771E-02  0.1286444E+00
         21   -1    0    0  501  502  0.00000000000E+00  0.00000000000E+00  0.20615284266E+02  0.20615284266E+02  0.00000000000E+00 0.  1.
          1   -1    0    0  502    0 -0.00000000000E+00 -0.00000000000E+00 -0.61471365968E+03  0.61471365968E+03  0.00000000000E+00 0. -1.
         23    2    1    2    0    0  0.53585908766E+02  0.13997895892E+02 -0.34742899996E+03  0.36315553854E+03  0.90042459173E+02 0.  0.
        -24    2    1    2    0    0 -0.24290550915E+02 -0.14715124011E+02 -0.19678307151E+03  0.21431689558E+03  0.80009929129E+02 0.  0.
         13    1    4    4    0    0 -0.45745965066E+02 -0.28967044710E+02 -0.16349112951E+03  0.17222407621E+03  0.00000000000E+00 0. -1.
        -14    1    4    4    0    0  0.21455414151E+02  0.14251920699E+02 -0.33291942001E+02  0.42092819366E+02  0.00000000000E+00 0.  1.
        -11    1    3    3    0    0 -0.12886160312E+02 -0.24517474874E+02 -0.69836993410E+02  0.75128991411E+02  0.00000000000E+00 0.  1.
         11    1    3    3    0    0  0.66472069079E+02  0.38515370766E+02 -0.27759200655E+03  0.28802654713E+03  0.00000000000E+00 0. -1.
          2    1    1    2  501    0 -0.29295357852E+02  0.71722811850E+00 -0.49886303947E+02  0.57856509827E+02  0.00000000000E+00 0. -1.
<scales pt_clust_5="13000.00000" pt_clust_6="13000.00000" pt_clust_7="13000.00000" pt_clust_8="13000.00000" pt_clust_9="29.30414"></scales>
<clustering>
<clus scale="   29.304">  1  9  2 -1</clus>
<clus scale="   80.010">  5  6 -1 -1</clus>
<clus scale="   90.042">  7  8 -1 -1</clus>
<clus scale="   90.476">  1  5  2 -1</clus>
<clus scale="   29.304">  1  5  2 -1</clus>
</clustering>
</event>
<event>
 9    1  0.4067873E-005  0.9152086E+02  0.7546771E-02  0.1306319E+00
         21   -1    0    0  501  502  0.00000000000E+00  0.00000000000E+00  0.94737640581E+02  0.94737640581E+02  0.00000000000E+00 0. -1.
          1   -1    0    0  502    0 -0.00000000000E+00 -0.00000000000E+00 -0.24013290164E+03  0.24013290164E+03  0.00000000000E+00 0. -1.
        -24    2    1    2    0    0 -0.20497581414E+02 -0.85821908986E+01 -0.17896434474E+03  0.19668832043E+03  0.78512762400E+02 0.  0.
         23    2    1    2    0    0 -0.19936096949E+02  0.64490371633E+01  0.14679840325E+02  0.93502962565E+02  0.89934800020E+02 0.  0.
         13    1    3    3    0    0 -0.97611408733E+00 -0.30872283410E+02 -0.15646350809E+03  0.15948316540E+03  0.00000000000E+00 0. -1.
        -14    1    3    3    0    0 -0.19521467327E+02  0.22290092512E+02 -0.22500836651E+02  0.37205155030E+02  0.00000000000E+00 0.  1.
        -11    1    4    4    0    0 -0.10713328248E+02 -0.34134366016E+02  0.32402373875E+02  0.48268459456E+02  0.00000000000E+00 0. -1.
         11    1    4    4    0    0 -0.92227687008E+01  0.40583403179E+02 -0.17722533550E+02  0.45234503109E+02  0.00000000000E+00 0.  1.
          2    1    1    2  501    0  0.40433678363E+02  0.21331537353E+01  0.18889243355E+02  0.44679259230E+02  0.00000000000E+00 0. -1.
<scales pt_clust_5="13000.00000" pt_clust_6="13000.00000" pt_clust_7="13000.00000" pt_clust_8="13000.00000" pt_clust_9="40.48991"></scales>
<clustering>
<clus scale="   40.490">  1  9  2 -1</clus>
<clus scale="   78.513">  5  6 -1 -1</clus>
<clus scale="   80.325">  2  5  1 -1</clus>
<clus scale="   89.935">  7  8 -1 -1</clus>
<clus scale="   40.490">  1  5  2 -1</clus>
</clustering>
</event>
<event>
 9    1  0.4067873E-005  0.1143884E+03  0.7546771E-02  0.1256727E+00
         21   -1    0    0  501  502  0.00000000000E+00  0.00000000000E+00  0.18074157478E+03  0.18074157478E+03  0.00000000000E+00 0. -1.
          1   -1    0    0  502    0 -0.00000000000E+00 -0.00000000000E+00 -0.18631986000E+03  0.18631986000E+03  0.00000000000E+00 0. -1.
         23    2    1    2    0    0 -0.36201754139E+02 -0.78718609231E+01 -0.29471401969E+02  0.10334635657E+03  0.91866058400E+02 0.  0.
        -24    2    1    2    0    0  0.10484402949E+03 -0.31105350029E+02 -0.60035781575E+02  0.14849769708E+03  0.80544755568E+02 0.  0.
         13    1    4    4    0    0  0.79230717221E+02 -0.54310413137E+02 -0.61233474527E+02  0.11391516988E+03  0.00000000000E+00 0. -1.
        -14    1    4    4    0    0  0.25613312270E+02  0.23205063108E+02  0.11976929519E+01  0.34582527202E+02  0.00000000000E+00 0.  1.
        -13    1    3    3    0    0 -0.17790471990E+02  0.26007670227E+02 -0.50425821028E+02  0.59461443227E+02  0.00000000000E+00 0. -1.
         13    1    3    3    0    0 -0.18411282149E+02 -0.33879531150E+02  0.20954419059E+02  0.43884913347E+02  0.00000000000E+00 0.  1.
          2    1    1    2  501    0 -0.68642275352E+02  0.38977210952E+02  0.83928898326E+02  0.11521738112E+03  0.00000000000E+00 0. -1.
<scales pt_clust_5="13000.00000" pt_clust_6="13000.00000" pt_clust_7="13000.00000" pt_clust_8="13000.00000" pt_clust_9="78.93659"></scales>
<clustering>
<clus scale="   78.937">  1  9  2 -1</clus>
<clus scale="   80.545">  5  6 -1 -1</clus>
<clus scale="   91.866">  7  8 -1 -1</clus>
<clus scale="  105.512">  1  5  2 -1</clus>
<clus scale="   78.937">  1  5  2 -1</clus>
</clustering>
</event>
<event>
 9    1  0.4067873E-005  0.9140464E+02  0.7546771E-02  0.1306873E+00
          1   -1    0    0  502    0 -0.00000000000E+00  0.00000000000E+00  0.28408150297E+03  0.28408150297E+03  0.00000000000E+00 0. -1.
         21   -1    0    0  501  502  0.00000000000E+00 -0.00000000000E+00 -0.88142875419E+02  0.88142875419E+02  0.00000000000E+00 0. -1.
        -24    2    1    2    0    0  0.12867704710E+02  0.91297636202E+01  0.21351103012E+03  0.22821004064E+03  0.79018556424E+02 0.  0.
         23    2    1    2    0    0  0.72639405583E+01  0.72261628984E+01  0.24568545681E+02  0.94530411129E+02  0.90705032543E+02 0.  0.
         13    1    3    3    0    0  0.17744803481E+02  0.41089752807E+02  0.15533066170E+03  0.16165042623E+03  0.00000000000E+00 0. -1.
        -14    1    3    3    0    0 -0.48770987712E+01 -0.31959989187E+02  0.58180368414E+02  0.66559614408E+02  0.00000000000E+00 0.  1.
        -11    1    4    4    0    0  0.14011596377E+02  0.46687687340E+02  0.24825959326E+01  0.48808075815E+02  0.00000000000E+00 0. -1.
         11    1    4    4    0    0 -0.67476558183E+01 -0.39461524441E+02  0.22085949749E+02  0.45722335314E+02  0.00000000000E+00 0.  1.
          2    1    1    2  501    0 -0.20131645268E+02 -0.16355926519E+02 -0.42140948252E+02  0.49483926613E+02  0.00000000000E+00 0. -1.
<scales pt_clust_5="13000.00000" pt_clust_6="13000.00000" pt_clust_7="13000.00000" pt_clust_8="13000.00000" pt_clust_9="25.93838"></scales>
<clustering>
<clus scale="   25.938">  2  9  1 -1</clus>
<clus scale="   79.019">  5  6 -1 -1</clus>
<clus scale="   79.821">  1  5  2 -1</clus>
<clus scale="   90.705">  7  8 -1 -1</clus>
<clus scale="   25.938">  2  5  1 -1</clus>
</clustering>
</event>
<event>
 9    1  0.4067873E-005  0.1151446E+03  0.7546771E-02  0.1262990E+00
         -2   -1    0    0    0  501 -0.00000000000E+00  0.00000000000E+00  0.33299158138E+03  0.33299158138E+03  0.00000000000E+00 0.  1.
         21   -1    0    0  501  502  0.00000000000E+00 -0.00000000000E+00 -0.21510269057E+03  0.21510269057E+03  0.00000000000E+00 0.  1.
        -24    2    1    2    0    0 -0.31096033887E+02 -0.10382244446E+02  0.19345404696E+03  0.21265696186E+03  0.81998541566E+02 0.  0.
         23    2    1    2    0    0  0.55037201087E+02  0.40073551198E+02  0.96061892035E+02  0.15962321269E+03  0.10778079568E+03 0.  0.
         11    1    3    3    0    0  0.17781198702E+02 -0.25771387738E+02  0.39531858688E+02  0.50429190996E+02  0.00000000000E+00 0. -1.
        -12    1    3    3    0    0 -0.48877232589E+02  0.15389143292E+02  0.15392218827E+03  0.16222777086E+03  0.00000000000E+00 0.  1.
        -11    1    4    4    0    0  0.20291505739E+00  0.55984368093E+02  0.10811355332E+02  0.57019084958E+02  0.00000000000E+00 0. -1.
         11    1    4    4    0    0  0.54834286029E+02 -0.15910816895E+02  0.85250536704E+02  0.10260412773E+03  0.00000000000E+00 0.  1.
         -1    1    1    2    0  502 -0.23941167200E+02 -0.29691306752E+02 -0.17162704818E+03  0.17581409741E+03  0.00000000000E+00 0.  1.
<scales pt_clust_5="13000.00000" pt_clust_6="13000.00000" pt_clust_7="13000.00000" pt_clust_8="13000.00000" pt_clust_9="38.14123"></scales>
<clustering>
<clus scale="   38.141">  2  9  1 -1</clus>
<clus scale="   81.999">  5  6 -1 -1</clus>
<clus scale="   91.462">  1  5  2 -1</clus>
<clus scale="  107.781">  7  8 -1 -1</clus>
<clus scale="   38.141">  2  5  1 -1</clus>
</clustering>
</event>
<event>
 9    1  0.4067873E-005  0.9894761E+02  0.7546771E-02  0.1285304E+00
         21   -1    0    0  501  502  0.00000000000E+00  0.00000000000E+00  0.25524558814E+03  0.25524558814E+03  0.00000000000E+00 0.  1.
         -2   -1    0    0    0  501 -0.00000000000E+00 -0.00000000000E+00 -0.97547563234E+02  0.97547563234E+02  0.00000000000E+00 0.  1.
        -24    2    1    2    0    0 -0.36661016472E+02 -0.49916510407E+02  0.39880731165E+02  0.11512117035E+03  0.88468768522E+02 0.  0.
         23    2    1    2    0    0 -0.14086639093E+02 -0.17312437634E+02  0.11932222210E+03  0.15342638286E+03  0.93828078812E+02 0.  0.
         11    1    3    3    0    0 -0.32695410226E+02  0.17579420585E+02  0.27942466093E+02  0.46462966859E+02  0.00000000000E+00 0. -1.
        -12    1    3    3    0    0 -0.39656062462E+01 -0.67495930992E+02  0.11938265073E+02  0.68658203489E+02  0.00000000000E+00 0.  1.
        -11    1    4    4    0    0 -0.18484419997E+02  0.33429132306E+02  0.23332546331E+02  0.44761460964E+02  0.00000000000E+00 0. -1.
         11    1    4    4    0    0  0.43977809036E+01 -0.50741569940E+02  0.95989675768E+02  0.10866492190E+03  0.00000000000E+00 0.  1.
         -1    1    1    2    0  502  0.50747655566E+02  0.67228948041E+02 -0.15049283622E+01  0.84245598161E+02  0.00000000000E+00 0.  1.
<scales pt_clust_5="13000.00000" pt_clust_6="13000.00000" pt_clust_7="13000.00000" pt_clust_8="13000.00000" pt_clust_9="84.23220"></scales>
<clustering>
<clus scale="   84.232">  1  9  2 -1</clus>
<clus scale="   88.469">  5  6 -1 -1</clus>
<clus scale="   93.828">  7  8 -1 -1</clus>
<clus scale="   93.881">  2  5  1 -1</clus>
<clus scale="   84.232">  1  5  2 -1</clus>
</clustering>
</event>
<event>
 9    1  0.4067873E-005  0.1068844E+03  0.7546771E-02  0.1270186E+00
          1   -1    0    0  502    0 -0.00000000000E+00  0.00000000000E+00  0.19691356396E+03  0.19691356396E+03  0.00000000000E+00 0. -1.
         21   -1    0    0  501  502  0.00000000000E+00 -0.00000000000E+00 -0.14435815763E+03  0.14435815763E+03  0.00000000000E+00 0. -1.
        -24    2    1    2    0    0 -0.12294713691E+02 -0.59406915702E+02  0.11957019758E+03  0.15689354402E+03  0.81475213339E+02 0.  0.
         23    2    1    2    0    0 -0.44317538259E+02  0.47555346582E+02 -0.28748168334E+02  0.11502587990E+03  0.90437495981E+02 0.  0.
         13    1    3    3    0    0 -0.18017029919E+02 -0.78965628128E+02  0.91374624905E+02  0.12210448751E+03  0.00000000000E+00 0. -1.
        -14    1    3    3    0    0  0.57223162285E+01  0.19558712426E+02  0.28195572675E+02  0.34789056516E+02  0.00000000000E+00 0.  1.
        -13    1    4    4    0    0 -0.19569727613E+01 -0.25438224009E+02  0.10232252692E+01  0.25533898509E+02  0.00000000000E+00 0.  1.
         13    1    4    4    0    0 -0.42360565498E+02  0.72993570591E+02 -0.29771393603E+02  0.89491981395E+02  0.00000000000E+00 0. -1.
          2    1    1    2  501    0  0.56612251950E+02  0.11851569121E+02 -0.38266622922E+02  0.69352297664E+02  0.00000000000E+00 0. -1.
<scales pt_clust_5="13000.00000" pt_clust_6="13000.00000" pt_clust_7="13000.00000" pt_clust_8="13000.00000" pt_clust_9="57.83949"></scales>
<clustering>
<clus scale="   57.839">  2  9  1 -1</clus>
<clus scale="   81.475">  5  6 -1 -1</clus>
<clus scale="   90.437">  7  8 -1 -1</clus>
<clus scale="   99.416">  1  5  2 -1</clus>
<clus scale="   57.839">  2  5  1 -1</clus>
</clustering>
</event>
<event>
 9    1  0.4067873E-005  0.1273998E+03  0.7546771E-02  0.1233577E+00
          1   -1    0    0  502    0 -0.00000000000E+00  0.00000000000E+00  0.70441870965E+03  0.70441870965E+03  0.00000000000E+00 0. -1.
         21   -1    0    0  501  502  0.00000000000E+00 -0.00000000000E+00 -0.11934615487E+03  0.11934615487E+03  0.00000000000E+00 0. -1.
         23    2    1    2    0    0  0.82485988862E+02 -0.47400551154E+02  0.61254584156E+03  0.62612975274E+03  0.88177710602E+02 0.  0.
        -24    2    1    2    0    0 -0.67413430198E+02  0.33429319303E+02  0.47783835487E+02  0.11962221671E+03  0.79775245767E+02 0.  0.
         13    1    4    4    0    0 -0.72651459548E+01  0.22992226382E+02  0.53125747409E+02  0.58341836254E+02  0.00000000000E+00 0. -1.
        -14    1    4    4    0    0 -0.60148284243E+02  0.10437092920E+02 -0.53419119222E+01  0.61280380457E+02  0.00000000000E+00 0.  1.
        -13    1    3    3    0    0  0.82168780899E+01  0.24290472508E+02  0.95659075050E+02  0.99036370994E+02  0.00000000000E+00 0.  1.
         13    1    3    3    0    0  0.74269110772E+02 -0.71691023662E+02  0.51688676651E+03  0.52709338175E+03  0.00000000000E+00 0. -1.
          2    1    1    2  501    0 -0.15072558664E+02  0.13971231852E+02 -0.75257122273E+02  0.78012895068E+02  0.00000000000E+00 0. -1.
<scales pt_clust_5="13000.00000" pt_clust_6="13000.00000" pt_clust_7="13000.00000" pt_clust_8="13000.00000" pt_clust_9="20.55182"></scales>
<clustering>
<clus scale="   20.552">  2  9  1 -1</clus>
<clus scale="   79.775">  5  6 -1 -1</clus>
<clus scale="   88.178">  7  8 -1 -1</clus>
<clus scale="  121.735">  2  5  1 -1</clus>
<clus scale="   20.552">  2  5  1 -1</clus>
</clustering>
</event>
<event>
 9    1  0.4067873E-005  0.1369853E+03  0.7546771E-02  0.1223743E+00
         21   -1    0    0  501  502  0.00000000000E+00  0.00000000000E+00  0.87765706300E+02  0.87765706300E+02  0.00000000000E+00 0. -1.
          1   -1    0    0  502    0 -0.00000000000E+00 -0.00000000000E+00 -0.13949460459E+04  0.13949460459E+04  0.00000000000E+00 0. -1.
        -24    2    1    2    0    0 -0.88214658810E+02 -0.15175022268E+01 -0.11214014458E+04  0.11278069766E+04  0.81383322176E+02 0.  0.
         23    2    1    2    0    0 -0.16611359188E+02  0.90648892167E+02 -0.11417586306E+02  0.13279047101E+03  0.94919908396E+02 0.  0.
         11    1    3    3    0    0 -0.70825418685E+01  0.24653881858E+02 -0.11622098694E+03  0.11901804105E+03  0.00000000000E+00 0. -1.
        -12    1    3    3    0    0 -0.81132116941E+02 -0.26171384085E+02 -0.10051804588E+04  0.10087889356E+04  0.00000000000E+00 0.  1.
        -13    1    4    4    0    0  0.34586508570E+02  0.41079046805E+02  0.16615660879E+02  0.56212052515E+02  0.00000000000E+00 0.  1.
         13    1    4    4    0    0 -0.51197867757E+02  0.49569845361E+02 -0.28033247185E+02  0.76578418499E+02  0.00000000000E+00 0. -1.
          2    1    1    2  501    0  0.10482601800E+03 -0.89131389940E+02 -0.17436130749E+03  0.22211430452E+03  0.00000000000E+00 0. -1.
<scales pt_clust_5="13000.00000" pt_clust_6="13000.00000" pt_clust_7="13000.00000" pt_clust_8="13000.00000" pt_clust_9="98.76838"></scales>
<clustering>
<clus scale="   81.383">  5  6 -1 -1</clus>
<clus scale="   94.920">  7  8 -1 -1</clus>
<clus scale="  120.031">  2  5  1 -1</clus>
<clus scale="   98.768">  1  9  2 -1</clus>
<clus scale="   98.768">  1  5  2 -1</clus>
</clustering>
</event>
<event>
 9    1  0.4067873E-005  0.1509714E+03  0.7546771E-02  0.1200935E+00
         21   -1    0    0  501  502  0.00000000000E+00  0.00000000000E+00  0.17721769653E+03  0.17721769653E+03  0.00000000000E+00 0.  1.
         -4   -1    0    0    0  501 -0.00000000000E+00 -0.00000000000E+00 -0.30096325963E+03  0.30096325963E+03  0.00000000000E+00 0.  1.
        -24    2    1    2    0    0  0.45352996125E+02  0.12208764178E+03 -0.10690923375E+03  0.18683302537E+03  0.80713744642E+02 0.  0.
         23    2    1    2    0    0  0.74024465059E+02 -0.11811320049E+03  0.18150987079E+02  0.16688553995E+03  0.89949850223E+02 0.  0.
         11    1    3    3    0    0  0.38813664153E+02  0.89059918313E+01 -0.29403902897E+02  0.49501583015E+02  0.00000000000E+00 0. -1.
        -12    1    3    3    0    0  0.65393319726E+01  0.11318164995E+03 -0.77505330854E+02  0.13733144236E+03  0.00000000000E+00 0.  1.
        -11    1    4    4    0    0  0.53002709299E+02 -0.12893132225E+03  0.26336093704E+02  0.14186670816E+03  0.00000000000E+00 0.  1.
         11    1    4    4    0    0  0.21021755760E+02  0.10818121767E+02 -0.81851066244E+01  0.25018831792E+02  0.00000000000E+00 0. -1.
         -3    1    1    2    0  502 -0.11937746118E+03 -0.39744412977E+01 -0.34987316432E+02  0.12446239084E+03  0.00000000000E+00 0.  1.
<scales pt_clust_5="13000.00000" pt_clust_6="13000.00000" pt_clust_7="13000.00000" pt_clust_8="13000.00000" pt_clust_9="119.44366"></scales>
<clustering>
<clus scale="   80.714">  5  6 -1 -1</clus>
<clus scale="   89.950">  7  8 -1 -1</clus>
<clus scale="  119.444">  1  9  2 -1</clus>
<clus scale="  145.657">  2  5  1 -1</clus>
<clus scale="  119.444">  1  5  2 -1</clus>
</clustering>
</event>
<event>
 9    1  0.4067873E-005  0.1353888E+03  0.7546771E-02  0.1222114E+00
          1   -1    0    0  502    0 -0.00000000000E+00  0.00000000000E+00  0.17850476512E+03  0.17850476512E+03  0.00000000000E+00 0. -1.
         21   -1    0    0  501  502  0.00000000000E+00 -0.00000000000E+00 -0.13744609535E+03  0.13744609535E+03  0.00000000000E+00 0. -1.
         23    2    1    2    0    0  0.10767986700E+02 -0.10499052992E+03  0.58705577887E+02  0.15115604456E+03  0.90900187139E+02 0.  0.
        -24    2    1    2    0    0  0.25435590167E+02  0.93188716398E+02 -0.12198905436E+02  0.12632843431E+03  0.80491949358E+02 0.  0.
         11    1    4    4    0    0  0.32970516920E+02  0.62238525405E+02 -0.42585258033E+02  0.82305487255E+02  0.00000000000E+00 0. -1.
        -12    1    4    4    0    0 -0.75349267529E+01  0.30950190993E+02  0.30386352597E+02  0.44022947060E+02  0.00000000000E+00 0.  1.
        -11    1    3    3    0    0  0.25559562745E+02 -0.34808366453E+02 -0.17418686268E+02  0.46565268754E+02  0.00000000000E+00 0.  1.
         11    1    3    3    0    0 -0.14791576045E+02 -0.70182163467E+02  0.76124264155E+02  0.10459077581E+03  0.00000000000E+00 0. -1.
          2    1    1    2  501    0 -0.36203576867E+02  0.11801813521E+02 -0.54480026806E+01  0.38466381602E+02  0.00000000000E+00 0. -1.
<scales pt_clust_5="13000.00000" pt_clust_6="13000.00000" pt_clust_7="13000.00000" pt_clust_8="13000.00000" pt_clust_9="38.07863"></scales>
<clustering>
<clus scale="   38.079">  2  9  1 -1</clus>
<clus scale="   80.492">  5  6 -1 -1</clus>
<clus scale="   90.900">  7  8 -1 -1</clus>
<clus scale="  128.632">  2  5  1 -1</clus>
<clus scale="   38.079">  2  5  1 -1</clus>
</clustering>
</event>
<event>
 9    1  0.4067873E-005  0.1246948E+03  0.7546771E-02  0.1235825E+00
         21   -1    0    0  501  502  0.00000000000E+00  0.00000000000E+00  0.11269577719E+03  0.11269577719E+03  0.00000000000E+00 0. -1.
          1   -1    0    0  502    0 -0.00000000000E+00 -0.00000000000E+00 -0.25624244390E+03  0.25624244390E+03  0.00000000000E+00 0. -1.
        -24    2    1    2    0    0  0.53484783500E+02  0.90928708265E+02 -0.82840586122E+02  0.15777587043E+03  0.83078339710E+02 0.  0.
         23    2    1    2    0    0 -0.16109885546E+02 -0.67244972045E+02  0.27642465212E+02  0.11235310056E+03  0.84129059459E+02 0.  0.
         13    1    3    3    0    0  0.38512594833E+02  0.88228085886E+02 -0.97237220352E+02  0.13683015794E+03  0.00000000000E+00 0. -1.
        -14    1    3    3    0    0  0.14972188667E+02  0.27006223790E+01  0.14396634230E+02  0.20945712494E+02  0.00000000000E+00 0.  1.
        -13    1    4    4    0    0  0.26352929504E+02 -0.40150225243E+02  0.37616585126E+02  0.61004302775E+02  0.00000000000E+00 0. -1.
         13    1    4    4    0    0 -0.42462815050E+02 -0.27094746802E+02 -0.99741199137E+01  0.51348797788E+02  0.00000000000E+00 0.  1.
          2    1    1    2  501    0 -0.37374897954E+02 -0.23683736220E+02 -0.88348545800E+02  0.98809250090E+02  0.00000000000E+00 0. -1.
<scales pt_clust_5="13000.00000" pt_clust_6="13000.00000" pt_clust_7="13000.00000" pt_clust_8="13000.00000" pt_clust_9="44.24708"></scales>
<clustering>
<clus scale="   44.247">  1  9  2 -1</clus>
<clus scale="   83.078">  5  6 -1 -1</clus>
<clus scale="   84.129">  7  8 -1 -1</clus>
<clus scale="  123.988">  2  5  1 -1</clus>
<clus scale="   44.247">  1  5  2 -1</clus>
</clustering>
</event>
<event>
 9    1  0.4067873E-005  0.1101450E+03  0.7546771E-02  0.1264485E+00
         21   -1    0    0  501  502  0.00000000000E+00  0.00000000000E+00  0.91316199963E+02  0.91316199963E+02  0.00000000000E+00 0.  1.
          3   -1    0    0  502    0 -0.00000000000E+00 -0.00000000000E+00 -0.38577197170E+03  0.38577197170E+03  0.00000000000E+00 0. -1.
         23    2    1    2    0    0  0.68178221246E+02 -0.37414486969E+02 -0.39732224161E+02  0.12594028635E+03  0.90742450937E+02 0.  0.
        -24    2    1    2    0    0 -0.56560376432E+02 -0.45795729267E+02 -0.31518243987E+02  0.11265360455E+03  0.80006936659E+02 0.  0.
         13    1    4    4    0    0 -0.42692016621E+01 -0.54884238389E+02 -0.17362865263E+02  0.57723260446E+02  0.00000000000E+00 0. -1.
        -14    1    4    4    0    0 -0.52291174770E+02  0.90885091225E+01 -0.14155378724E+02  0.54930344107E+02  0.00000000000E+00 0.  1.
        -11    1    3    3    0    0  0.88636415590E+02 -0.37790884628E+02 -0.42461504200E+02  0.10529740960E+03  0.00000000000E+00 0.  1.
         11    1    3    3    0    0 -0.20458194344E+02  0.37639765840E+00  0.27292800390E+01  0.20642876751E+02  0.00000000000E+00 0. -1.
          4    1    1    2  501    0 -0.11617844814E+02  0.83210216236E+02 -0.22320530359E+03  0.23849428076E+03  0.00000000000E+00 0. -1.
<scales pt_clust_5="13000.00000" pt_clust_6="13000.00000" pt_clust_7="13000.00000" pt_clust_8="13000.00000" pt_clust_9="84.01739"></scales>
<clustering>
<clus scale="   80.007">  5  6 -1 -1</clus>
<clus scale="   84.017">  1  9  2 -1</clus>
<clus scale="   90.742">  7  8 -1 -1</clus>
<clus scale="  101.483">  1  5  2 -1</clus>
<clus scale="   84.017">  1  5  2 -1</clus>
</clustering>
</event>
<event>
 9    1  0.4067873E-005  0.1470139E+03  0.7546771E-02  0.1206204E+00
         -2   -1    0    0    0  501 -0.00000000000E+00  0.00000000000E+00  0.71436256568E+03  0.71436256568E+03  0.00000000000E+00 0.  1.
         21   -1    0    0  501  502  0.00000000000E+00 -0.00000000000E+00 -0.39906584952E+02  0.39906584952E+02  0.00000000000E+00 0. -1.
        -24    2    1    2    0    0  0.13197494475E+03 -0.42877528498E+01  0.40983304405E+03  0.43808062990E+03  0.80720155034E+02 0.  0.
         23    2    1    2    0    0 -0.90083879710E+02  0.48163949204E+01  0.17217484434E+03  0.21469078397E+03  0.91157296212E+02 0.  0.
         13    1    3    3    0    0  0.12057234604E+03 -0.30880922901E+02  0.30746040722E+03  0.33169748874E+03  0.00000000000E+00 0. -1.
        -14    1    3    3    0    0  0.11402598711E+02  0.26593170052E+02  0.10237263683E+03  0.10638314115E+03  0.00000000000E+00 0.  1.
        -13    1    4    4    0    0 -0.92930088729E+02 -0.26207212136E+02  0.13827457817E+03  0.16864957257E+03  0.00000000000E+00 0.  1.
         13    1    4    4    0    0  0.28462090192E+01  0.31023607057E+02  0.33900266171E+02  0.46041211399E+02  0.00000000000E+00 0. -1.
         -1    1    1    2    0  502 -0.41891065040E+02 -0.52864207056E+00  0.92448092333E+02  0.10149773677E+03  0.00000000000E+00 0.  1.
<scales pt_clust_5="13000.00000" pt_clust_6="13000.00000" pt_clust_7="13000.00000" pt_clust_8="13000.00000" pt_clust_9="41.89442"></scales>
<clustering>
<clus scale="   41.894">  2  9  1 -1</clus>
<clus scale="   80.720">  5  6 -1 -1</clus>
<clus scale="   91.157">  7  8 -1 -1</clus>
<clus scale="  140.781">  1  5  2 -1</clus>
<clus scale="   41.894">  2  5  1 -1</clus>
</clustering>
</event>
<event>
 9    1  0.4067873E-005  0.2109220E+03  0.7546771E-02  0.1168973E+00
         21   -1    0    0  501  502  0.00000000000E+00  0.00000000000E+00  0.60187890951E+02  0.60187890951E+02  0.00000000000E+00 0. -1.
          3   -1    0    0  502    0 -0.00000000000E+00 -0.00000000000E+00 -0.16335901152E+04  0.16335901152E+04  0.00000000000E+00 0. -1.
         23    2    1    2    0    0  0.72247825728E+01 -0.53560127970E+02 -0.61297558437E+02  0.12497587493E+03  0.94555242339E+02 0.  0.
        -24    2    1    2    0    0 -0.19677437222E+03 -0.24849585250E+01 -0.62909267071E+03  0.66393734454E+03  0.79554261754E+02 0.  0.
         13    1    4    4    0    0 -0.17032927775E+03  0.17785512014E+02 -0.44426001742E+03  0.47612535153E+03  0.00000000000E+00 0. -1.
        -14    1    4    4    0    0 -0.26445094472E+02 -0.20270470539E+02 -0.18483265329E+03  0.18781199301E+03  0.00000000000E+00 0.  1.
        -13    1    3    3    0    0  0.30803163976E+02 -0.58817838415E+02 -0.72533256722E+02  0.98333343060E+02  0.00000000000E+00 0.  1.
         13    1    3    3    0    0 -0.23578381403E+02  0.52577104447E+01  0.11235698285E+02  0.26642531874E+02  0.00000000000E+00 0. -1.
          4    1    1    2  501    0  0.18954958965E+03  0.56045086495E+02 -0.88301199507E+03  0.90486478664E+03  0.00000000000E+00 0. -1.
<scales pt_clust_5="13000.00000" pt_clust_6="13000.00000" pt_clust_7="13000.00000" pt_clust_8="13000.00000" pt_clust_9="195.34396"></scales>
<clustering>
<clus scale="   79.554">  5  6 -1 -1</clus>
<clus scale="   94.555">  7  8 -1 -1</clus>
<clus scale="  108.911">  2  7  1 -1</clus>
<clus scale="  195.344">  1  9  2 -1</clus>
<clus scale="  195.344">  1  5  2 -1</clus>
</clustering>
</event>
<event>
 9    1  0.4067873E-005  0.1019781E+03  0.7546771E-02  0.1283016E+00
         21   -1    0    0  501  502  0.00000000000E+00  0.00000000000E+00  0.76003660894E+03  0.76003660894E+03  0.00000000000E+00 0. -1.
          1   -1    0    0  502    0 -0.00000000000E+00 -0.00000000000E+00 -0.49714119271E+02  0.49714119271E+02  0.00000000000E+00 0. -1.
        -24    2    1    2    0    0  0.60514309339E+02 -0.49336783091E+01  0.22697219396E+02  0.99701003188E+02  0.75754890614E+02 0.  0.
         23    2    1    2    0    0  0.27460168687E+01  0.14292925220E+02  0.22166593963E+03  0.23972264502E+03  0.90107321686E+02 0.  0.
         13    1    3    3    0    0  0.27098805773E+02  0.62879659222E+01 -0.27003323540E+02  0.38769359964E+02  0.00000000000E+00 0. -1.
        -14    1    3    3    0    0  0.33415503566E+02 -0.11221644231E+02  0.49700542937E+02  0.60931643224E+02  0.00000000000E+00 0.  1.
        -13    1    4    4    0    0 -0.28185761941E+02  0.39366233423E+02  0.90379895227E+02  0.10253127801E+03  0.00000000000E+00 0.  1.
         13    1    4    4    0    0  0.30931778810E+02 -0.25073308203E+02  0.13128604441E+03  0.13719136700E+03  0.00000000000E+00 0. -1.
          2    1    1    2  501    0 -0.63260326208E+02 -0.93592469111E+01  0.46595933064E+03  0.47032708001E+03  0.00000000000E+00 0. -1.
<scales pt_clust_5="13000.00000" pt_clust_6="13000.00000" pt_clust_7="13000.00000" pt_clust_8="13000.00000" pt_clust_9="63.94892"></scales>
<clustering>
<clus scale="   63.949">  1  9  2 -1</clus>
<clus scale="   75.755">  5  6 -1 -1</clus>
<clus scale="   89.549">  2  5  1 -1</clus>
<clus scale="   90.107">  7  8 -1 -1</clus>
<clus scale="   63.949">  1  5  2 -1</clus>
</clustering>
</event>
<event>
 9    1  0.4067873E-005  0.1720165E+03  0.7546771E-02  0.1176268E+00
         21   -1    0    0  501  502  0.00000000000E+00  0.00000000000E+00  0.74567681718E+02  0.74567681718E+02  0.00000000000E+00 0.  1.
         -2   -1    0    0    0  501 -0.00000000000E+00 -0.00000000000E+00 -0.10677379551E+04  0.10677379551E+04  0.00000000000E+00 0.  1.
        -24    2    1    2    0    0  0.78539095177E+02 -0.13014757577E+03 -0.32201052746E+03  0.36755847931E+03  0.91113527891E+02 0.  0.
         23    2    1    2    0    0 -0.18713673461E+03  0.59909528574E+01 -0.26251324132E+03  0.33406554906E+03  0.87352963568E+02 0.  0.
         13    1    3    3    0    0  0.51698585446E+02 -0.72402678780E+02 -0.88370792143E+02  0.12539652521E+03  0.00000000000E+00 0. -1.
        -14    1    3    3    0    0  0.26840509731E+02 -0.57744896994E+02 -0.23363973532E+03  0.24216195410E+03  0.00000000000E+00 0.  1.
        -13    1    4    4    0    0 -0.15716635058E+03  0.26152541938E+02 -0.24877136227E+03  0.29541903779E+03  0.00000000000E+00 0.  1.
         13    1    4    4    0    0 -0.29970384031E+02 -0.20161589080E+02 -0.13741879044E+02  0.38646511264E+02  0.00000000000E+00 0. -1.
         -1    1    1    2    0  502  0.10859763943E+03  0.12415662292E+03 -0.40864650461E+03  0.44068160846E+03  0.00000000000E+00 0.  1.
<scales pt_clust_5="13000.00000" pt_clust_6="13000.00000" pt_clust_7="13000.00000" pt_clust_8="13000.00000" pt_clust_9="164.94951"></scales>
<clustering>
<clus scale="   87.353">  7  8 -1 -1</clus>
<clus scale="   91.114">  5  6 -1 -1</clus>
<clus scale="  164.950">  1  9  2 -1</clus>
<clus scale="  170.055">  1  7  2 -1</clus>
<clus scale="  164.950">  1  5  2 -1</clus>
</clustering>
</event>
<event>
 9    1  0.4067873E-005  0.1287491E+03  0.7546771E-02  0.1230401E+00
         21   -1    0    0  501  502  0.00000000000E+00  0.00000000000E+00  0.19194953137E+03  0.19194953137E+03  0.00000000000E+00 0.  1.
         -2   -1    0    0    0  501 -0.00000000000E+00 -0.00000000000E+00 -0.12183346191E+03  0.12183346191E+03  0.00000000000E+00 0.  1.
         23    2    1    2    0    0  0.98981202953E+02  0.28543873109E+02 -0.24653035213E+02  0.13639066044E+03  0.85922109385E+02 0.  0.
        -24    2    1    2    0    0 -0.76380837331E+02 -0.37484113593E+02  0.53434743219E+02  0.12944200580E+03  0.81614153184E+02 0.  0.
         11    1    4    4    0    0 -0.72675265052E+02 -0.39545096264E+02  0.72407532392E+01  0.83053821684E+02  0.00000000000E+00 0. -1.
        -12    1    4    4    0    0 -0.37055722794E+01  0.20609826708E+01  0.46193989980E+02  0.46388184118E+02  0.00000000000E+00 0.  1.
        -13    1    3    3    0    0  0.58994111308E+02 -0.26746162816E+02 -0.31594023818E+01  0.64850938449E+02  0.00000000000E+00 0. -1.
         13    1    3    3    0    0  0.39987091646E+02  0.55290035925E+02 -0.21493632831E+02  0.71539721995E+02  0.00000000000E+00 0.  1.
         -1    1    1    2    0  502 -0.22600365622E+02  0.89402404844E+01  0.41334361448E+02  0.47950327032E+02  0.00000000000E+00 0.  1.
<scales pt_clust_5="13000.00000" pt_clust_6="13000.00000" pt_clust_7="13000.00000" pt_clust_8="13000.00000" pt_clust_9="24.30441"></scales>
<clustering>
<clus scale="   24.304">  1  9  2 -1</clus>
<clus scale="   81.614">  5  6 -1 -1</clus>
<clus scale="   85.922">  7  8 -1 -1</clus>
<clus scale="  125.915">  1  5  2 -1</clus>
<clus scale="   24.304">  1  5  2 -1</clus>
</clustering>
</event>
<event>
 9    1  0.4067873E-005  0.1028658E+03  0.7546771E-02  0.1278948E+00
         21   -1    0    0  501  502  0.00000000000E+00  0.00000000000E+00  0.62916035026E+02  0.62916035026E+02  0.00000000000E+00 0.  1.
          1   -1    0    0  502    0 -0.00000000000E+00 -0.00000000000E+00 -0.46227267581E+03  0.46227267581E+03  0.00000000000E+00 0. -1.
         23    2    1    2    0    0  0.75304065657E+01 -0.52396777389E+02 -0.31552857288E+03  0.33253376241E+03  0.90654804258E+02 0.  0.
        -24    2    1    2    0    0  0.92863557296E+01  0.23636752827E+02  0.17102200337E+02  0.86368253332E+02  0.80759256066E+02 0.  0.
         13    1    4    4    0    0  0.38534432067E+02  0.22323440184E+02  0.30697031658E+02  0.54088318416E+02  0.00000000000E+00 0. -1.
        -14    1    4    4    0    0 -0.29248076338E+02  0.13133126424E+01 -0.13594831321E+02  0.32279934916E+02  0.00000000000E+00 0.  1.
        -11    1    3    3    0    0  0.28203120234E+02  0.88877423312E+01 -0.41383714997E+02  0.50862754759E+02  0.00000000000E+00 0. -1.
         11    1    3    3    0    0 -0.20672713668E+02 -0.61284519720E+02 -0.27414485788E+03  0.28167100765E+03  0.00000000000E+00 0.  1.
          2    1    1    2  501    0 -0.16816762295E+02  0.28760024562E+02 -0.10093026824E+03  0.10628669510E+03  0.00000000000E+00 0. -1.
<scales pt_clust_5="13000.00000" pt_clust_6="13000.00000" pt_clust_7="13000.00000" pt_clust_8="13000.00000" pt_clust_9="33.31582"></scales>
<clustering>
<clus scale="   33.316">  1  9  2 -1</clus>
<clus scale="   80.759">  5  6 -1 -1</clus>
<clus scale="   90.655">  7  8 -1 -1</clus>
<clus scale="   94.261">  1  5  2 -1</clus>
<clus scale="   33.316">  1  5  2 -1</clus>
</clustering>
</event>
<event>
 9    1  0.4067873E-005  0.9488646E+02  0.7546771E-02  0.1297173E+00
         21   -1    0    0  501  502  0.00000000000E+00  0.00000000000E+00  0.36579163549E+03  0.36579163549E+03  0.00000000000E+00 0. -1.
         -2   -1    0    0    0  501 -0.00000000000E+00 -0.00000000000E+00 -0.63621680064E+02  0.63621680064E+02  0.00000000000E+00 0.  1.
        -24    2    1    2    0    0  0.21377257806E+02 -0.24813231755E+02 -0.65833914827E+01  0.88375774143E+02  0.81818413518E+02 0.  0.
         23    2    1    2    0    0  0.15976780859E+02 -0.45080393921E+01  0.16374202978E+03  0.18844873697E+03  0.91792669652E+02 0.  0.
         13    1    3    3    0    0 -0.30995025725E+02 -0.96084127264E+01  0.43964986954E+01  0.32746639760E+02  0.00000000000E+00 0. -1.
        -14    1    3    3    0    0  0.52372283531E+02 -0.15204819028E+02 -0.10979890178E+02  0.55629134384E+02  0.00000000000E+00 0.  1.
        -11    1    4    4    0    0  0.36198355307E+02  0.34079013654E+02  0.86853487527E+02  0.10007611301E+03  0.00000000000E+00 0.  1.
         11    1    4    4    0    0 -0.20221574448E+02 -0.38587053047E+02  0.76888542254E+02  0.88372623962E+02  0.00000000000E+00 0. -1.
         -1    1    1    2    0  502 -0.37354038665E+02  0.29321271147E+02  0.14501131713E+03  0.15258880444E+03  0.00000000000E+00 0.  1.
<scales pt_clust_5="13000.00000" pt_clust_6="13000.00000" pt_clust_7="13000.00000" pt_clust_8="13000.00000" pt_clust_9="47.48748"></scales>
<clustering>
<clus scale="   47.487">  1  9  2 -1</clus>
<clus scale="   81.818">  5  6 -1 -1</clus>
<clus scale="   85.275">  2  5  1 -1</clus>
<clus scale="   91.793">  7  8 -1 -1</clus>
<clus scale="   47.487">  1  5  2 -1</clus>
</clustering>
</event>
<event>
 9    1  0.4067873E-005  0.2518440E+03  0.7546771E-02  0.1112145E+00
          1   -1    0    0  502    0 -0.00000000000E+00  0.00000000000E+00  0.28505305327E+03  0.28505305327E+03  0.00000000000E+00 0. -1.
         21   -1    0    0  501  502  0.00000000000E+00 -0.00000000000E+00 -0.28766038788E+03  0.28766038788E+03  0.00000000000E+00 0. -1.
        -24    2    1    2    0    0  0.22183214453E+02  0.51118222649E+02  0.91766229408E+02  0.13497742925E+03  0.81808910626E+02 0.  0.
         23    2    1    2    0    0  0.60613838411E+02  0.10382863042E+03  0.95646409738E+02  0.17894754681E+03  0.91758198057E+02 0.  0.
         11    1    3    3    0    0 -0.52766056499E+01  0.27961466404E+02 -0.74876144690E+01  0.29423639154E+02  0.00000000000E+00 0. -1.
        -12    1    3    3    0    0  0.27459820103E+02  0.23156756245E+02  0.99253843877E+02  0.10555379010E+03  0.00000000000E+00 0.  1.
        -13    1    4    4    0    0  0.83227085725E+02  0.89168581926E+02  0.89548888733E+02  0.15131684399E+03  0.00000000000E+00 0. -1.
         13    1    4    4    0    0 -0.22613247314E+02  0.14660048493E+02  0.60975210052E+01  0.27630702819E+02  0.00000000000E+00 0.  1.
          2    1    1    2  501    0 -0.82797052864E+02 -0.15494685307E+03 -0.19001997375E+03  0.25878846509E+03  0.00000000000E+00 0. -1.
<scales pt_clust_5="13000.00000" pt_clust_6="13000.00000" pt_clust_7="13000.00000" pt_clust_8="13000.00000" pt_clust_9="175.68119"></scales>
<clustering>
<clus scale="   81.809">  5  6 -1 -1</clus>
<clus scale="   91.758">  7  8 -1 -1</clus>
<clus scale="   96.995">  5  7 -1 -1</clus>
<clus scale="  175.681">  2  9  1 -1</clus>
<clus scale="  175.681">  2  5  1 -1</clus>
</clustering>
</event>
<event>
 9    1  0.4067873E-005  0.1339553E+03  0.7546771E-02  0.1223860E+00
          1   -1    0    0  502    0 -0.00000000000E+00  0.00000000000E+00  0.52004295901E+03  0.52004295901E+03  0.00000000000E+00 0. -1.
         21   -1    0    0  501  502  0.00000000000E+00 -0.00000000000E+00 -0.79922102662E+02  0.79922102662E+02  0.00000000000E+00 0.  1.
        -24    2    1    2    0    0 -0.35186758367E+02  0.70993038353E+02  0.17526784344E+03  0.20962280360E+03  0.83335366967E+02 0.  0.
         23    2    1    2    0    0  0.28579224278E+02 -0.15346922796E+03  0.10282551697E+03  0.20841125247E+03  0.92155234378E+02 0.  0.
         11    1    3    3    0    0 -0.28908942596E+02  0.86861266329E+01  0.12705327508E+03  0.13058985591E+03  0.00000000000E+00 0. -1.
        -12    1    3    3    0    0 -0.62778157715E+01  0.62306911720E+02  0.48214568357E+02  0.79032947691E+02  0.00000000000E+00 0.  1.
        -11    1    4    4    0    0  0.56933443787E+02 -0.12483973168E+03  0.60446037081E+02  0.14993364875E+03  0.00000000000E+00 0.  1.
         11    1    4    4    0    0 -0.28354219509E+02 -0.28629496281E+02  0.42379479888E+02  0.58477603720E+02  0.00000000000E+00 0. -1.
          2    1    1    2  501    0  0.66075340891E+01  0.82476189608E+02  0.16202749594E+03  0.18193100560E+03  0.00000000000E+00 0. -1.
<scales pt_clust_5="13000.00000" pt_clust_6="13000.00000" pt_clust_7="13000.00000" pt_clust_8="13000.00000" pt_clust_9="82.74049"></scales>
<clustering>
<clus scale="   82.740">  2  9  1 -1</clus>
<clus scale="   83.335">  5  6 -1 -1</clus>
<clus scale="   92.155">  7  8 -1 -1</clus>
<clus scale="  128.048">  1  5  2 -1</clus>
<clus scale="   82.740">  2  5  1 -1</clus>
</clustering>
</event>
<event>
 9    1  0.4067873E-005  0.9215291E+02  0.7546771E-02  0.1303677E+00
          1   -1    0    0  502    0 -0.00000000000E+00  0.00000000000E+00  0.20234506456E+03  0.20234506456E+03  0.00000000000E+00 0. -1.
         21   -1    0    0  501  502  0.00000000000E+00 -0.00000000000E+00 -0.61305080503E+02  0.61305080503E+02  0.00000000000E+00 0. -1.
        -24    2    1    2    0    0  0.20200947153E+02 -0.23264855742E+02  0.49531833941E+02  0.99209147711E+02  0.80247869986E+02 0.  0.
         23    2    1    2    0    0  0.47446852778E+01  0.85587916049E+01  0.28303298231E+02  0.94918294574E+02  0.90070200410E+02 0.  0.
         11    1    3    3    0    0  0.39020951896E+02 -0.26164686295E+02  0.90829577799E+00  0.46989897819E+02  0.00000000000E+00 0. -1.
        -12    1    3    3    0    0 -0.18820004743E+02  0.28998305535E+01  0.48623538163E+02  0.52219249892E+02  0.00000000000E+00 0.  1.
        -11    1    4    4    0    0 -0.21306321702E+01  0.45576817794E+02 -0.33222325021E+01  0.45747383996E+02  0.00000000000E+00 0.  1.
         11    1    4    4    0    0  0.68753174479E+01 -0.37018026189E+02  0.31625530733E+02  0.49170910578E+02  0.00000000000E+00 0. -1.
          2    1    1    2  501    0 -0.24945632431E+02  0.14706064137E+02  0.63204851884E+02  0.69522702777E+02  0.00000000000E+00 0. -1.
<scales pt_clust_5="13000.00000" pt_clust_6="13000.00000" pt_clust_7="13000.00000" pt_clust_8="13000.00000" pt_clust_9="28.95779"></scales>
<clustering>
<clus scale="   28.958">  2  9  1 -1</clus>
<clus scale="   80.248">  5  6 -1 -1</clus>
<clus scale="   82.579">  1  5  2 -1</clus>
<clus scale="   90.070">  7  8 -1 -1</clus>
<clus scale="   28.958">  2  5  1 -1</clus>
</clustering>
</event>
<event>
 9    1  0.4067873E-005  0.1616498E+03  0.7546771E-02  0.1219460E+00
         -4   -1    0    0    0  501 -0.00000000000E+00  0.00000000000E+00  0.10739072776E+04  0.10739072776E+04  0.00000000000E+00 0.  1.
         21   -1    0    0  501  502  0.00000000000E+00 -0.00000000000E+00 -0.34325149186E+02  0.34325149186E+02  0.00000000000E+00 0.  1.
        -24    2    1    2    0    0 -0.30120272461E+02 -0.30921192854E+02  0.24782905939E+03  0.26039002714E+03  0.67233716053E+02 0.  0.
         23    2    1    2    0    0 -0.11075039772E+03 -0.33296178394E+02  0.35605054220E+03  0.38545175488E+03  0.91797498049E+02 0.  0.
         11    1    3    3    0    0 -0.30493149894E+02  0.14266920019E+02  0.12702305148E+03  0.13140864813E+03  0.00000000000E+00 0. -1.
        -12    1    3    3    0    0  0.37287743311E+00 -0.45188112873E+02  0.12080600791E+03  0.12898137901E+03  0.00000000000E+00 0.  1.
        -13    1    4    4    0    0 -0.84994335676E+02 -0.62635188665E+02  0.29128797921E+03  0.30983203642E+03  0.00000000000E+00 0.  1.
         13    1    4    4    0    0 -0.25756062045E+02  0.29339010271E+02  0.64762562982E+02  0.75619718459E+02  0.00000000000E+00 0. -1.
         -3    1    1    2    0  502  0.14087067018E+03  0.64217371248E+02  0.43570252682E+03  0.46239064476E+03  0.00000000000E+00 0.  1.
<scales pt_clust_5="13000.00000" pt_clust_6="13000.00000" pt_clust_7="13000.00000" pt_clust_8="13000.00000" pt_clust_9="133.05593"></scales>
<clustering>
<clus scale="   67.234">  5  6 -1 -1</clus>
<clus scale="   79.898">  1  5  2 -1</clus>
<clus scale="   91.797">  7  8 -1 -1</clus>
<clus scale="  133.056">  2  9  1 -1</clus>
<clus scale="  133.056">  2  5  1 -1</clus>
</clustering>
</event>
<event>
 9    1  0.4067873E-005  0.9645686E+02  0.7546771E-02  0.1294665E+00
          1   -1    0    0  502    0 -0.00000000000E+00  0.00000000000E+00  0.17114590883E+03  0.17114590883E+03  0.00000000000E+00 0. -1.
         21   -1    0    0  501  502  0.00000000000E+00 -0.00000000000E+00 -0.22534989005E+03  0.22534989005E+03  0.00000000000E+00 0.  1.
        -24    2    1    2    0    0  0.25992978909E+02 -0.13849767188E+02  0.13002211143E+03  0.15589493198E+03  0.80808597029E+02 0.  0.
         23    2    1    2    0    0  0.36331473669E+01 -0.22905410173E+02 -0.16271908946E+03  0.18872407433E+03  0.92743822343E+02 0.  0.
         11    1    3    3    0    0  0.37806264092E+02 -0.72217277491E+01  0.13581419776E+03  0.14116289622E+03  0.00000000000E+00 0. -1.
        -12    1    3    3    0    0 -0.11813285183E+02 -0.66280394387E+01 -0.57920863313E+01  0.14732035762E+02  0.00000000000E+00 0.  1.
        -13    1    4    4    0    0 -0.23985032848E+02 -0.99759949196E+01 -0.15514234483E+03  0.15730209609E+03  0.00000000000E+00 0.  1.
         13    1    4    4    0    0  0.27618180215E+02 -0.12929415254E+02 -0.75767446257E+01  0.31421978237E+02  0.00000000000E+00 0. -1.
          2    1    1    2  501    0 -0.29626126276E+02  0.36755177361E+02 -0.21507003196E+02  0.51876792571E+02  0.00000000000E+00 0. -1.
<scales pt_clust_5="13000.00000" pt_clust_6="13000.00000" pt_clust_7="13000.00000" pt_clust_8="13000.00000" pt_clust_9="47.20858"></scales>
<clustering>
<clus scale="   47.209">  2  9  1 -1</clus>
<clus scale="   80.809">  5  6 -1 -1</clus>
<clus scale="   85.044">  1  5  2 -1</clus>
<clus scale="   92.744">  7  8 -1 -1</clus>
<clus scale="   47.209">  2  5  1 -1</clus>
</clustering>
</event>
<event>
 9    1  0.4067873E-005  0.1035464E+03  0.7546771E-02  0.1276629E+00
          1   -1    0    0  502    0 -0.00000000000E+00  0.00000000000E+00  0.41921367373E+03  0.41921367373E+03  0.00000000000E+00 0. -1.
         21   -1    0    0  501  502  0.00000000000E+00 -0.00000000000E+00 -0.81220806035E+02  0.81220806035E+02  0.00000000000E+00 0. -1.
         23    2    1    2    0    0 -0.46924975943E+02  0.12832768791E+02  0.20081038459E+03  0.22551570476E+03  0.90365309804E+02 0.  0.
        -24    2    1    2    0    0  0.68325244323E+02  0.49293873900E+02 -0.54142484871E+01  0.11791075265E+03  0.82312857373E+02 0.  0.
         11    1    4    4    0    0  0.79687802298E+02  0.18235481884E+02 -0.15771712108E+02  0.83255183247E+02  0.00000000000E+00 0. -1.
        -12    1    4    4    0    0 -0.11362557975E+02  0.31058392016E+02  0.10357463621E+02  0.34655569408E+02  0.00000000000E+00 0.  1.
        -11    1    3    3    0    0 -0.96786687326E+01 -0.35953604304E+02  0.10806232380E+03  0.11429699960E+03  0.00000000000E+00 0.  1.
         11    1    3    3    0    0 -0.37246307210E+02  0.48786373095E+02  0.92748060782E+02  0.11121870517E+03  0.00000000000E+00 0. -1.
          2    1    1    2  501    0 -0.21400268380E+02 -0.62126642691E+02  0.14259673160E+03  0.15700802235E+03  0.00000000000E+00 0. -1.
<scales pt_clust_5="13000.00000" pt_clust_6="13000.00000" pt_clust_7="13000.00000" pt_clust_8="13000.00000" pt_clust_9="65.70917"></scales>
<clustering>
<clus scale="   65.709">  2  9  1 -1</clus>
<clus scale="   82.313">  5  6 -1 -1</clus>
<clus scale="   90.365">  7  8 -1 -1</clus>
<clus scale="   96.599">  2  5  1 -1</clus>
<clus scale="   65.709">  2  5  1 -1</clus>
</clustering>
</event>
<event>
 9    1  0.4067873E-005  0.9439127E+02  0.7546771E-02  0.1297812E+00
         21   -1    0    0  501  502  0.00000000000E+00  0.00000000000E+00  0.18843787466E+03  0.18843787466E+03  0.00000000000E+00 0.  1.
          1   -1    0    0  502    0 -0.00000000000E+00 -0.00000000000E+00 -0.42740631136E+03  0.42740631136E+03  0.00000000000E+00 0. -1.
        -24    2    1    2    0    0  0.12651293457E+02  0.22861090837E+02 -0.39022585804E+03  0.39956974329E+03  0.81835657046E+02 0.  0.
         23    2    1    2    0    0 -0.33357474314E+02  0.24593116745E+02  0.11834296800E+03  0.15492292293E+03  0.90986325848E+02 0.  0.
         13    1    3    3    0    0  0.31683328886E+02  0.43671162930E+02 -0.30675711628E+03  0.31146578013E+03  0.00000000000E+00 0. -1.
        -14    1    3    3    0    0 -0.19032035428E+02 -0.20810072093E+02 -0.83468741760E+02  0.88103963158E+02  0.00000000000E+00 0.  1.
        -11    1    4    4    0    0  0.13696867401E+02  0.43558931185E+02  0.35744880400E+02  0.57988629380E+02  0.00000000000E+00 0. -1.
         11    1    4    4    0    0 -0.47054341715E+02 -0.18965814440E+02  0.82598087596E+02  0.96934293550E+02  0.00000000000E+00 0.  1.
          2    1    1    2  501    0  0.20706180857E+02 -0.47454207582E+02  0.32914453341E+02  0.61351519799E+02  0.00000000000E+00 0. -1.
<scales pt_clust_5="13000.00000" pt_clust_6="13000.00000" pt_clust_7="13000.00000" pt_clust_8="13000.00000" pt_clust_9="51.77497"></scales>
<clustering>
<clus scale="   51.775">  1  9  2 -1</clus>
<clus scale="   81.836">  5  6 -1 -1</clus>
<clus scale="   85.605">  2  5  1 -1</clus>
<clus scale="   90.986">  7  8 -1 -1</clus>
<clus scale="   51.775">  1  5  2 -1</clus>
</clustering>
</event>
<event>
 9    1  0.4067873E-005  0.9196488E+02  0.7546771E-02  0.1303652E+00
         -2   -1    0    0    0  501 -0.00000000000E+00  0.00000000000E+00  0.68174183228E+03  0.68174183228E+03  0.00000000000E+00 0.  1.
         21   -1    0    0  501  502  0.00000000000E+00 -0.00000000000E+00 -0.52200975202E+02  0.52200975202E+02  0.00000000000E+00 0.  1.
        -24    2    1    2    0    0 -0.24157011560E+02 -0.35781203631E+00  0.40452601692E+03  0.41295565084E+03  0.79419027664E+02 0.  0.
         23    2    1    2    0    0  0.11019821773E+02 -0.47448764115E+02  0.24688686168E+03  0.26679822969E+03  0.88630419204E+02 0.  0.
         11    1    3    3    0    0  0.71576575363E+01  0.30602942111E+02  0.89312327922E+02  0.94680853640E+02  0.00000000000E+00 0. -1.
        -12    1    3    3    0    0 -0.31314669096E+02 -0.30960754147E+02  0.31521368900E+03  0.31827479720E+03  0.00000000000E+00 0.  1.
        -13    1    4    4    0    0  0.47929944422E+02 -0.17707533446E+02  0.15807732905E+03  0.16613030510E+03  0.00000000000E+00 0. -1.
         13    1    4    4    0    0 -0.36910122649E+02 -0.29741230668E+02  0.88809532630E+02  0.10066792459E+03  0.00000000000E+00 0.  1.
         -1    1    1    2    0  502  0.13137189787E+02  0.47806576151E+02 -0.21872021524E+02  0.54188926953E+02  0.00000000000E+00 0.  1.
<scales pt_clust_5="13000.00000" pt_clust_6="13000.00000" pt_clust_7="13000.00000" pt_clust_8="13000.00000" pt_clust_9="49.57877"></scales>
<clustering>
<clus scale="   49.579">  2  9  1 -1</clus>
<clus scale="   79.419">  5  6 -1 -1</clus>
<clus scale="   83.124">  1  5  2 -1</clus>
<clus scale="   88.630">  7  8 -1 -1</clus>
<clus scale="   49.579">  2  5  1 -1</clus>
</clustering>
</event>
<event>
 9    1  0.4067873E-005  0.1217357E+03  0.7546771E-02  0.1244087E+00
         21   -1    0    0  501  502  0.00000000000E+00  0.00000000000E+00  0.36795150126E+02  0.36795150126E+02  0.00000000000E+00 0.  1.
          1   -1    0    0  502    0 -0.00000000000E+00 -0.00000000000E+00 -0.12015589766E+04  0.12015589766E+04  0.00000000000E+00 0. -1.
        -24    2    1    2    0    0  0.69288910868E+02 -0.72641596669E+02 -0.74843383907E+03  0.75924947437E+03  0.78922735183E+02 0.  0.
         23    2    1    2    0    0  0.97351158337E+01  0.67112280387E+02 -0.37049529991E+03  0.38758313188E+03  0.91406160647E+02 0.  0.
         11    1    3    3    0    0  0.19839555665E+02 -0.18076678736E+02 -0.48321498741E+02  0.55275143814E+02  0.00000000000E+00 0. -1.
        -12    1    3    3    0    0  0.49449355203E+02 -0.54564917933E+02 -0.70011234033E+03  0.70397433055E+03  0.00000000000E+00 0.  1.
        -11    1    4    4    0    0  0.33670553997E+02  0.12826346727E+02 -0.49924045060E+02  0.61568105801E+02  0.00000000000E+00 0.  1.
         11    1    4    4    0    0 -0.23935438164E+02  0.54285933660E+02 -0.32057125485E+03  0.32601502608E+03  0.00000000000E+00 0. -1.
          2    1    1    2  501    0 -0.79024026702E+02  0.55293162822E+01 -0.45834687518E+02  0.91521520499E+02  0.00000000000E+00 0. -1.
<scales pt_clust_5="13000.00000" pt_clust_6="13000.00000" pt_clust_7="13000.00000" pt_clust_8="13000.00000" pt_clust_9="79.21723"></scales>
<clustering>
<clus scale="   78.923">  5  6 -1 -1</clus>
<clus scale="   79.217">  1  9  2 -1</clus>
<clus scale="   91.406">  7  8 -1 -1</clus>
<clus scale="  112.665">  2  5  1 -1</clus>
<clus scale="   79.217">  1  5  2 -1</clus>
</clustering>
</event>
<event>
 9    1  0.4067873E-005  0.1484346E+03  0.7546771E-02  0.1204539E+00
          1   -1    0    0  502    0 -0.00000000000E+00  0.00000000000E+00  0.29511608494E+03  0.29511608494E+03  0.00000000000E+00 0. -1.
         21   -1    0    0  501  502  0.00000000000E+00 -0.00000000000E+00 -0.19892148112E+03  0.19892148112E+03  0.00000000000E+00 0. -1.
         23    2    1    2    0    0  0.12160541230E+03  0.53070428080E+00  0.21253688160E+03  0.26138151705E+03  0.91434202934E+02 0.  0.
        -24    2    1    2    0    0 -0.91589653233E+02  0.58517764962E+02 -0.82782926306E+02  0.15840042576E+03  0.80154155218E+02 0.  0.
         11    1    4    4    0    0 -0.48564188352E+02  0.74679247928E+02 -0.53959898317E+02  0.10414960916E+03  0.00000000000E+00 0. -1.
        -12    1    4    4    0    0 -0.43025464882E+02 -0.16161482966E+02 -0.28823027989E+02  0.54250816605E+02  0.00000000000E+00 0.  1.
        -13    1    3    3    0    0  0.62533772474E+02  0.15735488091E+02  0.18216508970E+03  0.19324129525E+03  0.00000000000E+00 0. -1.
         13    1    3    3    0    0  0.59071639831E+02 -0.15204783810E+02  0.30371791894E+02  0.68140221792E+02  0.00000000000E+00 0.  1.
          2    1    1    2  501    0 -0.30015759071E+02 -0.59048469243E+02 -0.33559351473E+02  0.74255623247E+02  0.00000000000E+00 0. -1.
<scales pt_clust_5="13000.00000" pt_clust_6="13000.00000" pt_clust_7="13000.00000" pt_clust_8="13000.00000" pt_clust_9="66.23947"></scales>
<clustering>
<clus scale="   66.239">  2  9  1 -1</clus>
<clus scale="   80.154">  5  6 -1 -1</clus>
<clus scale="   91.434">  7  8 -1 -1</clus>
<clus scale="  141.765">  2  5  1 -1</clus>
<clus scale="   66.239">  2  5  1 -1</clus>
</clustering>
</event>
<event>
 9    1  0.4067873E-005  0.1242558E+03  0.7546771E-02  0.1253325E+00
          3   -1    0    0  502    0 -0.00000000000E+00  0.00000000000E+00  0.65512691775E+03  0.65512691775E+03  0.00000000000E+00 0. -1.
         21   -1    0    0  501  502  0.00000000000E+00 -0.00000000000E+00 -0.96025634189E+02  0.96025634189E+02  0.00000000000E+00 0.  1.
        -24    2    1    2    0    0 -0.84958245494E+01  0.31903898181E+02  0.41681781217E+03  0.42601819421E+03  0.81635626420E+02 0.  0.
         23    2    1    2    0    0 -0.62139317140E+02  0.26879364255E+02 -0.33853371605E+02  0.12646633654E+03  0.10131085110E+03 0.  0.
         13    1    3    3    0    0 -0.39861496704E+02  0.36127149657E+02  0.20941719963E+03  0.21621672776E+03  0.00000000000E+00 0. -1.
        -14    1    3    3    0    0  0.31365672154E+02 -0.42232514759E+01  0.20740061254E+03  0.20980146645E+03  0.00000000000E+00 0.  1.
        -11    1    4    4    0    0 -0.46413963481E+02 -0.67936893269E+01 -0.63485150961E+02  0.78935255832E+02  0.00000000000E+00 0.  1.
         11    1    4    4    0    0 -0.15725353659E+02  0.33673053582E+02  0.29631779355E+02  0.47531080705E+02  0.00000000000E+00 0. -1.
          4    1    1    2  501    0  0.70635141689E+02 -0.58783262436E+02  0.17613684300E+03  0.19866802120E+03  0.00000000000E+00 0. -1.
<scales pt_clust_5="13000.00000" pt_clust_6="13000.00000" pt_clust_7="13000.00000" pt_clust_8="13000.00000" pt_clust_9="71.94181"></scales>
<clustering>
<clus scale="   81.636">  5  6 -1 -1</clus>
<clus scale="   88.059">  1  5  2 -1</clus>
<clus scale="   71.942">  2  9  1 -1</clus>
<clus scale="  101.311">  7  8 -1 -1</clus>
<clus scale="   71.942">  2  5  1 -1</clus>
</clustering>
</event>
<event>
 9    1  0.4067873E-005  0.9786164E+02  0.7546771E-02  0.1292195E+00
         21   -1    0    0  501  502  0.00000000000E+00  0.00000000000E+00  0.47384265151E+02  0.47384265151E+02  0.00000000000E+00 0.  1.
          3   -1    0    0  502    0 -0.00000000000E+00 -0.00000000000E+00 -0.43916051988E+03  0.43916051988E+03  0.00000000000E+00 0. -1.
         23    2    1    2    0    0 -0.44785078880E+02 -0.25667658966E+02 -0.13744301664E+03  0.17419222855E+03  0.93743360607E+02 0.  0.
        -24    2    1    2    0    0 -0.13347255107E+02  0.11517647982E+02 -0.43495579871E+02  0.93190266865E+02  0.80509346887E+02 0.  0.
         11    1    4    4    0    0  0.20390978559E+02  0.58163712057E+01 -0.53493601169E+02  0.57542919170E+02  0.00000000000E+00 0. -1.
        -12    1    4    4    0    0 -0.33738233666E+02  0.57012767765E+01  0.99980212985E+01  0.35647347695E+02  0.00000000000E+00 0.  1.
        -11    1    3    3    0    0 -0.18402949450E+01 -0.34553990474E+02 -0.53555764958E+01  0.35014955987E+02  0.00000000000E+00 0. -1.
         11    1    3    3    0    0 -0.42944783935E+02  0.88863315085E+01 -0.13208744014E+03  0.13917727256E+03  0.00000000000E+00 0.  1.
          4    1    1    2  501    0  0.58132333987E+02  0.14150010984E+02 -0.21083765822E+03  0.21916228962E+03  0.00000000000E+00 0. -1.
<scales pt_clust_5="13000.00000" pt_clust_6="13000.00000" pt_clust_7="13000.00000" pt_clust_8="13000.00000" pt_clust_9="59.82971"></scales>
<clustering>
<clus scale="   59.830">  1  9  2 -1</clus>
<clus scale="   80.509">  5  6 -1 -1</clus>
<clus scale="   85.269">  1  5  2 -1</clus>
<clus scale="   93.743">  7  8 -1 -1</clus>
<clus scale="   59.830">  1  5  2 -1</clus>
</clustering>
</event>
<event>
 9    1  0.4067873E-005  0.1108978E+03  0.7546771E-02  0.1266070E+00
         -4   -1    0    0    0  501 -0.00000000000E+00  0.00000000000E+00  0.49778641370E+03  0.49778641370E+03  0.00000000000E+00 0.  1.
         21   -1    0    0  501  502  0.00000000000E+00 -0.00000000000E+00 -0.74293494436E+02  0.74293494436E+02  0.00000000000E+00 0.  1.
        -24    2    1    2    0    0  0.57058558123E+02  0.15642425754E+02  0.35750880335E+03  0.37712126816E+03  0.10443917792E+03 0.  0.
         23    2    1    2    0    0  0.54522770737E+01  0.21171929037E+02  0.79397968613E+02  0.12118308386E+03  0.88900643926E+02 0.  0.
         11    1    3    3    0    0  0.10161800812E+02  0.45540702694E+02  0.68969354535E+02  0.83270581015E+02  0.00000000000E+00 0. -1.
        -12    1    3    3    0    0  0.46896757311E+02 -0.29898276940E+02  0.28853944882E+03  0.29385068714E+03  0.00000000000E+00 0.  1.
        -13    1    4    4    0    0 -0.27579997623E+02 -0.12168737162E+02  0.65709550077E+02  0.72294394003E+02  0.00000000000E+00 0. -1.
         13    1    4    4    0    0  0.33032274697E+02  0.33340666199E+02  0.13688418537E+02  0.48888689861E+02  0.00000000000E+00 0.  1.
         -3    1    1    2    0  502 -0.62510835196E+02 -0.36814354791E+02 -0.13413852702E+02  0.73775556114E+02  0.00000000000E+00 0.  1.
<scales pt_clust_5="13000.00000" pt_clust_6="13000.00000" pt_clust_7="13000.00000" pt_clust_8="13000.00000" pt_clust_9="72.54586"></scales>
<clustering>
<clus scale="   72.546">  2  9  1 -1</clus>
<clus scale="   88.901">  7  8 -1 -1</clus>
<clus scale="   96.406">  2  7  1 -1</clus>
<clus scale="  104.439">  5  6 -1 -1</clus>
<clus scale="   72.546">  2  5  1 -1</clus>
</clustering>
</event>
<event>
 9    1  0.5534145E-005  0.9633975E+02  0.7546771E-02  0.1297265E+00
         21   -1    0    0  501  502  0.00000000000E+00  0.00000000000E+00  0.19094122734E+03  0.19094122734E+03  0.00000000000E+00 0.  1.
          1   -1    0    0  502    0 -0.00000000000E+00 -0.00000000000E+00 -0.24589691112E+03  0.24589691112E+03  0.00000000000E+00 0. -1.
         23    2    1    2    0    0 -0.58932159507E+01  0.50933628726E+01 -0.19308515227E+03  0.21565026593E+03  0.95720890244E+02 0.  0.
        -24    2    1    2    0    0  0.45768661595E+02 -0.30427329017E+02  0.14362816692E+03  0.17362636823E+03  0.80600698987E+02 0.  0.
         13    1    4    4    0    0  0.51929181900E+02 -0.29285168122E+01  0.38295472823E+02  0.64589158396E+02  0.00000000000E+00 0. -1.
        -14    1    4    4    0    0 -0.61605203051E+01 -0.27498812205E+02  0.10533269410E+03  0.10903720983E+03  0.00000000000E+00 0.  1.
        -11    1    3    3    0    0 -0.36313759897E+02 -0.31715963250E+02 -0.10113387413E+03  0.11203861825E+03  0.00000000000E+00 0.  1.
         11    1    3    3    0    0  0.30420543946E+02  0.36809326122E+02 -0.91951278145E+02  0.10361164769E+03  0.00000000000E+00 0. -1.
          2    1    1    2  501    0 -0.39875445644E+02  0.25333966144E+02 -0.54986984274E+01  0.47561504290E+02  0.00000000000E+00 0. -1.
<scales pt_clust_5="13000.00000" pt_clust_6="13000.00000" pt_clust_7="13000.00000" pt_clust_8="13000.00000" pt_clust_9="47.24258"></scales>
<clustering>
<clus scale="   47.243">  1  9  2 -1</clus>
<clus scale="   80.601">  5  6 -1 -1</clus>
<clus scale="   81.335">  1  5  2 -1</clus>
<clus scale="   95.721">  7  8 -1 -1</clus>
<clus scale="   47.243">  1  5  2 -1</clus>
</clustering>
</event>
<event>
 9    1  0.4067873E-005  0.1518825E+03  0.7546771E-02  0.1208250E+00
         21   -1    0    0  501  502  0.00000000000E+00  0.00000000000E+00  0.15955796669E+03  0.15955796669E+03  0.00000000000E+00 0.  1.
          1   -1    0    0  502    0 -0.00000000000E+00 -0.00000000000E+00 -0.20606595879E+03  0.20606595879E+03  0.00000000000E+00 0. -1.
        -24    2    1    2    0    0  0.79416080185E+01 -0.78578751134E+02 -0.20169645646E+02  0.11425237990E+03  0.80056870034E+02 0.  0.
         23    2    1    2    0    0 -0.80126511476E+02  0.98006597633E+02 -0.12066383357E+02  0.17526773203E+03  0.12061355339E+03 0.  0.
         11    1    3    3    0    0 -0.11363171837E+02 -0.28757541749E+02 -0.45586859429E+02  0.55084295713E+02  0.00000000000E+00 0. -1.
        -12    1    3    3    0    0  0.19304779856E+02 -0.49821209385E+02  0.25417213782E+02  0.59168084187E+02  0.00000000000E+00 0.  1.
        -13    1    4    4    0    0 -0.69682077289E+02 -0.43832674560E+01 -0.18235282021E+02  0.72161835061E+02  0.00000000000E+00 0. -1.
         13    1    4    4    0    0 -0.10444434186E+02  0.10238986509E+03  0.61688986644E+01  0.10310589697E+03  0.00000000000E+00 0.  1.
          2    1    1    2  501    0  0.72184903457E+02 -0.19427846499E+02 -0.14271963095E+02  0.76103813553E+02  0.00000000000E+00 0. -1.
<scales pt_clust_5="13000.00000" pt_clust_6="13000.00000" pt_clust_7="13000.00000" pt_clust_8="13000.00000" pt_clust_9="74.75364"></scales>
<clustering>
<clus scale="   74.754">  1  9  2 -1</clus>
<clus scale="   80.057">  5  6 -1 -1</clus>
<clus scale="  120.614">  7  8 -1 -1</clus>
<clus scale="  122.187">  2  5  1 -1</clus>
<clus scale="   74.754">  1  5  2 -1</clus>
</clustering>
</event>
<event>
 9    1  0.4067873E-005  0.1021454E+03  0.7546771E-02  0.1282943E+00
          3   -1    0    0  502    0 -0.00000000000E+00  0.00000000000E+00  0.56858062970E+03  0.56858062970E+03  0.00000000000E+00 0. -1.
         21   -1    0    0  501  502  0.00000000000E+00 -0.00000000000E+00 -0.41072424425E+02  0.41072424425E+02  0.00000000000E+00 0. -1.
        -24    2    1    2    0    0 -0.33114866684E+02 -0.41094218319E+02  0.13612340715E+03  0.16476029938E+03  0.76361280119E+02 0.  0.
         23    2    1    2    0    0 -0.38480742519E+02  0.53299563925E+02  0.12185071908E+03  0.16574490596E+03  0.91116217279E+02 0.  0.
         13    1    3    3    0    0 -0.47667939907E+02 -0.24015625241E+02  0.13140448182E+03  0.14183131034E+03  0.00000000000E+00 0. -1.
        -14    1    3    3    0    0  0.14553073223E+02 -0.17078593078E+02  0.47189253270E+01  0.22928989032E+02  0.00000000000E+00 0.  1.
        -11    1    4    4    0    0 -0.89735504770E+01  0.30306747315E+02 -0.63146650217E+01  0.32231948984E+02  0.00000000000E+00 0. -1.
         11    1    4    4    0    0 -0.29507192042E+02  0.22992816610E+02  0.12816538410E+03  0.13351295698E+03  0.00000000000E+00 0.  1.
          4    1    1    2  501    0  0.71595609203E+02 -0.12205345605E+02  0.26953407904E+03  0.27914784879E+03  0.00000000000E+00 0. -1.
<scales pt_clust_5="13000.00000" pt_clust_6="13000.00000" pt_clust_7="13000.00000" pt_clust_8="13000.00000" pt_clust_9="72.62855"></scales>
<clustering>
<clus scale="   72.629">  2  9  1 -1</clus>
<clus scale="   76.361">  5  6 -1 -1</clus>
<clus scale="   89.233">  1  5  2 -1</clus>
<clus scale="   91.116">  7  8 -1 -1</clus>
<clus scale="   72.629">  2  5  1 -1</clus>
</clustering>
</event>
<event>
 9    1  0.4067873E-005  0.1010932E+03  0.7546771E-02  0.1282663E+00
         -4   -1    0    0    0  501 -0.00000000000E+00  0.00000000000E+00  0.10836407938E+03  0.10836407938E+03  0.00000000000E+00 0.  1.
         21   -1    0    0  501  502  0.00000000000E+00 -0.00000000000E+00 -0.34820112775E+03  0.34820112775E+03  0.00000000000E+00 0. -1.
        -24    2    1    2    0    0  0.21987770801E+02 -0.39443129975E+02  0.70948344281E+02  0.11662315330E+03  0.80796471227E+02 0.  0.
         23    2    1    2    0    0 -0.47059176277E+02  0.23863901476E+02 -0.20622991658E+03  0.23129981845E+03  0.90469749950E+02 0.  0.
         13    1    3    3    0    0 -0.22196043419E+02 -0.21186129732E+01 -0.32632124432E+01  0.22534449623E+02  0.00000000000E+00 0. -1.
        -14    1    3    3    0    0  0.44183814220E+02 -0.37324517002E+02  0.74211556725E+02  0.94088703679E+02  0.00000000000E+00 0.  1.
        -13    1    4    4    0    0  0.26681385058E+02  0.44995696781E+00 -0.42036125314E+02  0.49790908822E+02  0.00000000000E+00 0.  1.
         13    1    4    4    0    0 -0.73740561335E+02  0.23413944508E+02 -0.16419379127E+03  0.18150890963E+03  0.00000000000E+00 0. -1.
         -3    1    1    2    0  502  0.25071405476E+02  0.15579228499E+02 -0.10455547607E+03  0.10864223538E+03  0.00000000000E+00 0.  1.
<scales pt_clust_5="13000.00000" pt_clust_6="13000.00000" pt_clust_7="13000.00000" pt_clust_8="13000.00000" pt_clust_9="29.51758"></scales>
<clustering>
<clus scale="   29.518">  2  9  1 -1</clus>
<clus scale="   80.796">  5  6 -1 -1</clus>
<clus scale="   90.470">  7  8 -1 -1</clus>
<clus scale="   92.537">  1  5  2 -1</clus>
<clus scale="   29.518">  2  5  1 -1</clus>
</clustering>
</event>
<event>
 9    1  0.4067873E-005  0.1618764E+03  0.7546771E-02  0.1189815E+00
         21   -1    0    0  501  502  0.00000000000E+00  0.00000000000E+00  0.75299076808E+02  0.75299076808E+02  0.00000000000E+00 0.  1.
          1   -1    0    0  502    0 -0.00000000000E+00 -0.00000000000E+00 -0.62749948305E+03  0.62749948305E+03  0.00000000000E+00 0. -1.
         23    2    1    2    0    0  0.46243795752E+02  0.13062166651E+03 -0.49001276500E+03  0.51710276409E+03  0.89901336797E+02 0.  0.
        -24    2    1    2    0    0 -0.16249791898E+02 -0.12239899092E+03 -0.63623193853E+02  0.15456199626E+03  0.67793297429E+02 0.  0.
         11    1    4    4    0    0  0.61440757617E+00 -0.63578691485E+02 -0.68150409906E+02  0.93204645152E+02  0.00000000000E+00 0. -1.
        -12    1    4    4    0    0 -0.16864199475E+02 -0.58820299434E+02  0.45272160532E+01  0.61357351105E+02  0.00000000000E+00 0.  1.
        -13    1    3    3    0    0 -0.10349842483E+02  0.98863591195E+02 -0.32192274271E+03  0.33692043745E+03  0.00000000000E+00 0. -1.
         13    1    3    3    0    0  0.56593638235E+02  0.31758075313E+02 -0.16809002230E+03  0.18018232664E+03  0.00000000000E+00 0.  1.
          2    1    1    2  501    0 -0.29994003853E+02 -0.82226755894E+01  0.14355526076E+01  0.31133799516E+02  0.00000000000E+00 0. -1.
<scales pt_clust_5="13000.00000" pt_clust_6="13000.00000" pt_clust_7="13000.00000" pt_clust_8="13000.00000" pt_clust_9="31.10069"></scales>
<clustering>
<clus scale="   31.101">  1  9  2 -1</clus>
<clus scale="   67.793">  5  6 -1 -1</clus>
<clus scale="   89.901">  7  8 -1 -1</clus>
<clus scale="  150.724">  1  5  2 -1</clus>
<clus scale="   31.101">  1  5  2 -1</clus>
</clustering>
</event>
<event>
 9    1  0.4067873E-005  0.1116116E+03  0.7546771E-02  0.1261283E+00
         -4   -1    0    0    0  501 -0.00000000000E+00  0.00000000000E+00  0.60051406973E+02  0.60051406973E+02  0.00000000000E+00 0.  1.
         21   -1    0    0  501  502  0.00000000000E+00 -0.00000000000E+00 -0.44078602675E+03  0.44078602675E+03  0.00000000000E+00 0. -1.
        -24    2    1    2    0    0  0.27395101942E+02 -0.54771748307E+02 -0.80009332560E+02  0.12855281796E+03  0.79836693848E+02 0.  0.
         23    2    1    2    0    0  0.13659467535E+02  0.91598690484E+02 -0.28820057275E+03  0.31572871583E+03  0.89711485981E+02 0.  0.
         11    1    3    3    0    0  0.36066371416E+02 -0.55380663990E+02 -0.21643310035E+02  0.69543036750E+02  0.00000000000E+00 0. -1.
        -12    1    3    3    0    0 -0.86712694747E+01  0.60891568266E+00 -0.58366022525E+02  0.59009781206E+02  0.00000000000E+00 0.  1.
        -11    1    4    4    0    0  0.17027202283E+02  0.32779289542E+02 -0.21799883948E+02  0.42891052454E+02  0.00000000000E+00 0.  1.
         11    1    4    4    0    0 -0.33677347471E+01  0.58819400942E+02 -0.26640068880E+03  0.27283766338E+03  0.00000000000E+00 0. -1.
         -3    1    1    2    0  502 -0.41054569477E+02 -0.36826942177E+02 -0.12524714469E+02  0.56555899936E+02  0.00000000000E+00 0.  1.
<scales pt_clust_5="13000.00000" pt_clust_6="13000.00000" pt_clust_7="13000.00000" pt_clust_8="13000.00000" pt_clust_9="55.15165"></scales>
<clustering>
<clus scale="   55.152">  2  9  1 -1</clus>
<clus scale="   79.837">  5  6 -1 -1</clus>
<clus scale="   89.711">  7  8 -1 -1</clus>
<clus scale="  103.841">  1  5  2 -1</clus>
<clus scale="   55.152">  2  5  1 -1</clus>
</clustering>
</event>
<event>
 9    1  0.4067873E-005  0.9543474E+02  0.7546771E-02  0.1295463E+00
          1   -1    0    0  502    0 -0.00000000000E+00  0.00000000000E+00  0.41179014158E+02  0.41179014158E+02  0.00000000000E+00 0. -1.
         21   -1    0    0  501  502  0.00000000000E+00 -0.00000000000E+00 -0.39366532519E+03  0.39366532519E+03  0.00000000000E+00 0. -1.
        -24    2    1    2    0    0 -0.48500856707E+02 -0.39512110863E+01 -0.11953825221E+03  0.15340764798E+03  0.82925071870E+02 0.  0.
         23    2    1    2    0    0 -0.79200608640E+01 -0.20166690556E+02 -0.16185431267E+03  0.18752548937E+03  0.92193100955E+02 0.  0.
         11    1    3    3    0    0 -0.15362712266E+02 -0.42481978602E+02 -0.60584219976E+02  0.75572343778E+02  0.00000000000E+00 0. -1.
        -12    1    3    3    0    0 -0.33138144442E+02  0.38530767515E+02 -0.58954032239E+02  0.77835304198E+02  0.00000000000E+00 0.  1.
        -13    1    4    4    0    0 -0.11887522954E+02 -0.42738500527E+02 -0.29668558962E+02  0.53367743255E+02  0.00000000000E+00 0.  1.
         13    1    4    4    0    0  0.39674620902E+01  0.22571809971E+02 -0.13218575371E+03  0.13415774612E+03  0.00000000000E+00 0. -1.
          2    1    1    2  501    0  0.56420917571E+02  0.24117901643E+02 -0.71093746153E+02  0.93911202001E+02  0.00000000000E+00 0. -1.
<scales pt_clust_5="13000.00000" pt_clust_6="13000.00000" pt_clust_7="13000.00000" pt_clust_8="13000.00000" pt_clust_9="61.35957"></scales>
<clustering>
<clus scale="   61.360">  2  9  1 -1</clus>
<clus scale="   82.925">  5  6 -1 -1</clus>
<clus scale="   86.515">  1  5  2 -1</clus>
<clus scale="   92.193">  7  8 -1 -1</clus>
<clus scale="   61.360">  2  5  1 -1</clus>
</clustering>
</event>
<event>
 9    1  0.4067873E-005  0.1015647E+03  0.7546771E-02  0.1282112E+00
         21   -1    0    0  501  502  0.00000000000E+00  0.00000000000E+00  0.67230466634E+02  0.67230466634E+02  0.00000000000E+00 0.  1.
         -2   -1    0    0    0  501 -0.00000000000E+00 -0.00000000000E+00 -0.24769636590E+03  0.24769636590E+03  0.00000000000E+00 0.  1.
        -24    2    1    2    0    0 -0.36497313422E+02 -0.77110388212E-01 -0.60578953005E+02  0.10734854490E+03  0.80757914232E+02 0.  0.
         23    2    1    2    0    0  0.58463079740E+02  0.11248718056E+02 -0.28116737098E+02  0.11255686375E+03  0.91290915879E+02 0.  0.
         11    1    3    3    0    0 -0.21807999587E+01  0.35864955516E+02 -0.12071332150E+02  0.37904722430E+02  0.00000000000E+00 0. -1.
        -12    1    3    3    0    0 -0.34316513463E+02 -0.35942065904E+02 -0.48507620855E+02  0.69443822466E+02  0.00000000000E+00 0.  1.
        -11    1    4    4    0    0  0.27837511604E+02  0.51392861906E+02 -0.13413349301E+02  0.59967251452E+02  0.00000000000E+00 0.  1.
         11    1    4    4    0    0  0.30625568136E+02 -0.40144143850E+02 -0.14703387797E+02  0.52589612300E+02  0.00000000000E+00 0. -1.
         -1    1    1    2    0  502 -0.21965766318E+02 -0.11171607668E+02 -0.91770209167E+02  0.95021423891E+02  0.00000000000E+00 0.  1.
<scales pt_clust_5="13000.00000" pt_clust_6="13000.00000" pt_clust_7="13000.00000" pt_clust_8="13000.00000" pt_clust_9="24.64346"></scales>
<clustering>
<clus scale="   24.643">  1  9  2 -1</clus>
<clus scale="   80.758">  5  6 -1 -1</clus>
<clus scale="   91.291">  7  8 -1 -1</clus>
<clus scale="   92.213">  2  5  1 -1</clus>
<clus scale="   24.643">  1  5  2 -1</clus>
</clustering>
</event>
<event>
 9    1  0.4067873E-005  0.1083127E+03  0.7546771E-02  0.1266737E+00
          3   -1    0    0  502    0 -0.00000000000E+00  0.00000000000E+00  0.67022179573E+02  0.67022179573E+02  0.00000000000E+00 0. -1.
         21   -1    0    0  501  502  0.00000000000E+00 -0.00000000000E+00 -0.29469419437E+03  0.29469419437E+03  0.00000000000E+00 0.  1.
         23    2    1    2    0    0 -0.56774847085E+02  0.62733024305E+02 -0.71564778735E+02  0.14058198615E+03  0.86504113624E+02 0.  0.
        -24    2    1    2    0    0  0.62448500584E+01 -0.42727246222E+02 -0.13653138541E+03  0.16336998972E+03  0.78640438814E+02 0.  0.
         13    1    4    4    0    0  0.31488746028E+02 -0.48646363428E+02 -0.63966006546E+02  0.86311411728E+02  0.00000000000E+00 0. -1.
        -14    1    4    4    0    0 -0.25243895970E+02  0.59191172058E+01 -0.72565378862E+02  0.77058577989E+02  0.00000000000E+00 0.  1.
        -11    1    3    3    0    0 -0.63364386856E+02  0.16941163821E+02 -0.14596307750E+02  0.67194499426E+02  0.00000000000E+00 0.  1.
         11    1    3    3    0    0  0.65895397703E+01  0.45791860484E+02 -0.56968470985E+02  0.73387486722E+02  0.00000000000E+00 0. -1.
          4    1    1    2  501    0  0.50529997027E+02 -0.20005778083E+02 -0.19575850650E+02  0.57764398074E+02  0.00000000000E+00 0. -1.
<scales pt_clust_5="13000.00000" pt_clust_6="13000.00000" pt_clust_7="13000.00000" pt_clust_8="13000.00000" pt_clust_9="54.34625"></scales>
<clustering>
<clus scale="   54.346">  2  9  1 -1</clus>
<clus scale="   78.640">  5  6 -1 -1</clus>
<clus scale="   86.504">  7  8 -1 -1</clus>
<clus scale="  102.142">  2  5  1 -1</clus>
<clus scale="   54.346">  2  5  1 -1</clus>
</clustering>
</event>
<event>
 9    1  0.4067873E-005  0.1154073E+03  0.7546771E-02  0.1254151E+00
          3   -1    0    0  502    0 -0.00000000000E+00  0.00000000000E+00  0.24145538177E+03  0.24145538177E+03  0.00000000000E+00 0. -1.
         21   -1    0    0  501  502  0.00000000000E+00 -0.00000000000E+00 -0.82863998309E+02  0.82863998309E+02  0.00000000000E+00 0.  1.
         23    2    1    2    0    0 -0.72236802209E+02 -0.16887176348E+00  0.11538069029E+03  0.16389766687E+03  0.91277365227E+02 0.  0.
        -24    2    1    2    0    0  0.64252476053E+02 -0.36451981828E+02  0.10668175956E+02  0.11078451135E+03  0.81867394717E+02 0.  0.
         13    1    4    4    0    0  0.17402872124E+01  0.22914173366E+02 -0.40298544597E+01  0.23330830838E+02  0.00000000000E+00 0. -1.
        -14    1    4    4    0    0  0.62512188840E+02 -0.59366155195E+02  0.14698030415E+02  0.87453680507E+02  0.00000000000E+00 0.  1.
        -11    1    3    3    0    0 -0.87113533761E+02 -0.18207953869E+02  0.10673097990E+03  0.13896690044E+03  0.00000000000E+00 0. -1.
         11    1    3    3    0    0  0.14876731552E+02  0.18039082105E+02  0.86497103931E+01  0.24930766430E+02  0.00000000000E+00 0.  1.
          4    1    1    2  501    0  0.79843261567E+01  0.36620853592E+02  0.32542517213E+02  0.49637201861E+02  0.00000000000E+00 0. -1.
<scales pt_clust_5="13000.00000" pt_clust_6="13000.00000" pt_clust_7="13000.00000" pt_clust_8="13000.00000" pt_clust_9="37.48117"></scales>
<clustering>
<clus scale="   37.481">  2  9  1 -1</clus>
<clus scale="   81.867">  5  6 -1 -1</clus>
<clus scale="   91.277">  7  8 -1 -1</clus>
<clus scale="  108.118">  2  5  1 -1</clus>
<clus scale="   37.481">  2  5  1 -1</clus>
</clustering>
</event>
<event>
 9    1  0.4067873E-005  0.8724835E+02  0.7546771E-02  0.1314029E+00
         21   -1    0    0  501  502  0.00000000000E+00  0.00000000000E+00  0.14750395070E+03  0.14750395070E+03  0.00000000000E+00 0.  1.
          1   -1    0    0  502    0 -0.00000000000E+00 -0.00000000000E+00 -0.18018331400E+03  0.18018331400E+03  0.00000000000E+00 0. -1.
        -24    2    1    2    0    0 -0.10700682033E+02  0.19304163660E+00  0.42036806872E+02  0.91178714007E+02  0.80199269916E+02 0.  0.
         23    2    1    2    0    0 -0.39778702351E+01  0.15762834236E+02  0.55592838818E+02  0.10440825661E+03  0.86869038940E+02 0.  0.
         11    1    3    3    0    0 -0.12934102417E+02 -0.33102195085E+02 -0.23849021349E+01  0.35619293690E+02  0.00000000000E+00 0. -1.
        -12    1    3    3    0    0  0.22334203835E+01  0.33295236721E+02  0.44421709007E+02  0.55559420318E+02  0.00000000000E+00 0.  1.
        -11    1    4    4    0    0  0.13752515751E+02 -0.24469866814E+02  0.53470914312E+02  0.60390767082E+02  0.00000000000E+00 0.  1.
         11    1    4    4    0    0 -0.17730385986E+02  0.40232701050E+02  0.21219245064E+01  0.44017489531E+02  0.00000000000E+00 0. -1.
          2    1    1    2  501    0  0.14678552269E+02 -0.15955875873E+02 -0.13030900899E+03  0.13210029408E+03  0.00000000000E+00 0. -1.
<scales pt_clust_5="13000.00000" pt_clust_6="13000.00000" pt_clust_7="13000.00000" pt_clust_8="13000.00000" pt_clust_9="21.68064"></scales>
<clustering>
<clus scale="   21.681">  1  9  2 -1</clus>
<clus scale="   80.199">  5  6 -1 -1</clus>
<clus scale="   80.610">  2  5  1 -1</clus>
<clus scale="   86.869">  7  8 -1 -1</clus>
<clus scale="   21.681">  1  5  2 -1</clus>
</clustering>
</event>
<event>
 9    1  0.4067873E-005  0.1177435E+03  0.7546771E-02  0.1250778E+00
         -2   -1    0    0    0  501 -0.00000000000E+00  0.00000000000E+00  0.46608642408E+02  0.46608642408E+02  0.00000000000E+00 0.  1.
         21   -1    0    0  501  502  0.00000000000E+00 -0.00000000000E+00 -0.40013467859E+03  0.40013467859E+03  0.00000000000E+00 0. -1.
         23    2    1    2    0    0  0.35912649799E+02 -0.63346656705E+02 -0.80691442816E+02  0.14260392001E+03  0.92316042636E+02 0.  0.
        -24    2    1    2    0    0 -0.53512268961E+02  0.53437009908E+02 -0.25158901938E+03  0.27482520462E+03  0.80701805843E+02 0.  0.
         13    1    4    4    0    0 -0.55350267408E+02  0.69641566326E+02 -0.23622274611E+03  0.25241787901E+03  0.00000000000E+00 0. -1.
        -14    1    4    4    0    0  0.18379984470E+01 -0.16204556418E+02 -0.15366273263E+02  0.22407325610E+02  0.00000000000E+00 0.  1.
        -11    1    3    3    0    0  0.14103281196E+02 -0.82271307722E+02 -0.76874000967E+02  0.11347723401E+03  0.00000000000E+00 0.  1.
         11    1    3    3    0    0  0.21809368602E+02  0.18924651017E+02 -0.38174418488E+01  0.29126685998E+02  0.00000000000E+00 0. -1.
         -1    1    1    2    0  502  0.17599619163E+02  0.99096467970E+01 -0.21245573985E+02  0.29314196361E+02  0.00000000000E+00 0.  1.
<scales pt_clust_5="13000.00000" pt_clust_6="13000.00000" pt_clust_7="13000.00000" pt_clust_8="13000.00000" pt_clust_9="20.19773"></scales>
<clustering>
<clus scale="   20.198">  2  9  1 -1</clus>
<clus scale="   80.702">  5  6 -1 -1</clus>
<clus scale="   92.316">  7  8 -1 -1</clus>
<clus scale="  108.876">  2  5  1 -1</clus>
<clus scale="   20.198">  2  5  1 -1</clus>
</clustering>
</event>
<event>
 9    1  0.4067873E-005  0.9291798E+02  0.7546771E-02  0.1302927E+00
         -2   -1    0    0    0  501 -0.00000000000E+00  0.00000000000E+00  0.38542094674E+03  0.38542094674E+03  0.00000000000E+00 0.  1.
         21   -1    0    0  501  502  0.00000000000E+00 -0.00000000000E+00 -0.18374320667E+03  0.18374320667E+03  0.00000000000E+00 0.  1.
        -24    2    1    2    0    0  0.85271752250E+01 -0.93449357870E+01  0.33449081767E+03  0.34438087468E+03  0.80957020686E+02 0.  0.
         23    2    1    2    0    0 -0.38972664634E+01 -0.15031237079E+02 -0.40759824549E+01  0.93676934385E+02  0.92290994299E+02 0.  0.
         13    1    3    3    0    0 -0.29190328496E+02  0.93586990927E+01  0.68064564293E+02  0.74648814049E+02  0.00000000000E+00 0. -1.
        -14    1    3    3    0    0  0.37717503721E+02 -0.18703634880E+02  0.26642625338E+03  0.26973206063E+03  0.00000000000E+00 0.  1.
        -11    1    4    4    0    0  0.22973242355E+02 -0.46697092580E+02 -0.31253334975E+01  0.52135937982E+02  0.00000000000E+00 0.  1.
         11    1    4    4    0    0 -0.26870508818E+02  0.31665855501E+02 -0.95064895738E+00  0.41540996403E+02  0.00000000000E+00 0. -1.
         -1    1    1    2    0  502 -0.46299087616E+01  0.24376172866E+02 -0.12873709515E+03  0.13110634434E+03  0.00000000000E+00 0.  1.
<scales pt_clust_5="13000.00000" pt_clust_6="13000.00000" pt_clust_7="13000.00000" pt_clust_8="13000.00000" pt_clust_9="24.81197"></scales>
<clustering>
<clus scale="   24.812">  2  9  1 -1</clus>
<clus scale="   80.957">  5  6 -1 -1</clus>
<clus scale="   81.671">  1  5  2 -1</clus>
<clus scale="   92.291">  7  8 -1 -1</clus>
<clus scale="   24.812">  2  5  1 -1</clus>
</clustering>
</event>
<event>
 9    1  0.6789057E-005  0.1537144E+03  0.7546771E-02  0.1197371E+00
          3   -1    0    0  502    0 -0.00000000000E+00  0.00000000000E+00  0.35924711359E+03  0.35924711359E+03  0.00000000000E+00 0. -1.
         21   -1    0    0  501  502  0.00000000000E+00 -0.00000000000E+00 -0.38445481305E+03  0.38445481305E+03  0.00000000000E+00 0.  1.
         23    2    1    2    0    0 -0.74741284841E+02  0.97477183058E+02  0.19219490496E+03  0.24544793960E+03  0.90651799128E+02 0.  0.
        -24    2    1    2    0    0  0.74485176518E+02 -0.12127082700E+03 -0.33768068644E+03  0.37564477001E+03  0.82620168522E+02 0.  0.
         11    1    4    4    0    0  0.39744769880E+02 -0.97426404977E+02 -0.30402187972E+03  0.32171548684E+03  0.00000000000E+00 0. -1.
        -12    1    4    4    0    0  0.34740406638E+02 -0.23844422021E+02 -0.33658806710E+02  0.53929283178E+02  0.00000000000E+00 0.  1.
        -11    1    3    3    0    0 -0.23548564535E+02  0.84051528771E+02  0.16326233393E+03  0.18513180186E+03  0.00000000000E+00 0. -1.
         11    1    3    3    0    0 -0.51192720306E+02  0.13425654287E+02  0.28932571030E+02  0.60316137739E+02  0.00000000000E+00 0.  1.
          4    1    1    2  501    0  0.25610832286E+00  0.23793643940E+02  0.12027808203E+03  0.12260921703E+03  0.00000000000E+00 0. -1.
<scales pt_clust_5="13000.00000" pt_clust_6="13000.00000" pt_clust_7="13000.00000" pt_clust_8="13000.00000" pt_clust_9="23.79503"></scales>
<clustering>
<clus scale="   23.795">  2  9  1 -1</clus>
<clus scale="   82.620">  5  6 -1 -1</clus>
<clus scale="   90.652">  7  8 -1 -1</clus>
<clus scale="  149.119">  2  5  1 -1</clus>
<clus scale="   23.795">  2  5  1 -1</clus>
</clustering>
</event>
<event>
 9    1  0.4067873E-005  0.1091014E+03  0.7546771E-02  0.1272086E+00
         21   -1    0    0  501  502  0.00000000000E+00  0.00000000000E+00  0.41557256481E+02  0.41557256481E+02  0.00000000000E+00 0.  1.
          1   -1    0    0  502    0 -0.00000000000E+00 -0.00000000000E+00 -0.50755577199E+03  0.50755577199E+03  0.00000000000E+00 0. -1.
         23    2    1    2    0    0 -0.51097220621E+02  0.15382193205E+02 -0.32397639084E+03  0.34399338507E+03  0.10258269509E+03 0.  0.
        -24    2    1    2    0    0  0.21847404730E+01 -0.29043543679E+02 -0.12335595029E+03  0.15101336578E+03  0.82097781046E+02 0.  0.
         11    1    4    4    0    0 -0.35614566506E+02 -0.26513263680E+02 -0.90752932951E+02  0.10103190257E+03  0.00000000000E+00 0. -1.
        -12    1    4    4    0    0  0.37799306979E+02 -0.25302799999E+01 -0.32603017341E+02  0.49981463211E+02  0.00000000000E+00 0.  1.
        -11    1    3    3    0    0 -0.10773526799E+02 -0.26226341790E+02 -0.20380642008E+02  0.34917910190E+02  0.00000000000E+00 0. -1.
         11    1    3    3    0    0 -0.40323693822E+02  0.41608534995E+02 -0.30359574883E+03  0.30907547488E+03  0.00000000000E+00 0.  1.
          2    1    1    2  501    0  0.48912480148E+02  0.13661350475E+02 -0.18666174380E+02  0.54106277612E+02  0.00000000000E+00 0. -1.
<scales pt_clust_5="13000.00000" pt_clust_6="13000.00000" pt_clust_7="13000.00000" pt_clust_8="13000.00000" pt_clust_9="50.78448"></scales>
<clustering>
<clus scale="   50.784">  1  9  2 -1</clus>
<clus scale="   82.098">  5  6 -1 -1</clus>
<clus scale="   90.111">  1  5  2 -1</clus>
<clus scale="  102.583">  7  8 -1 -1</clus>
<clus scale="   50.784">  1  5  2 -1</clus>
</clustering>
</event>
<event>
 9    1  0.4067873E-005  0.9964897E+02  0.7546771E-02  0.1290865E+00
         21   -1    0    0  501  502  0.00000000000E+00  0.00000000000E+00  0.15851615306E+03  0.15851615306E+03  0.00000000000E+00 0. -1.
          3   -1    0    0  502    0 -0.00000000000E+00 -0.00000000000E+00 -0.91794668420E+02  0.91794668420E+02  0.00000000000E+00 0. -1.
        -24    2    1    2    0    0  0.47306117264E+02 -0.27191863406E+02  0.18439650282E+01  0.93000161918E+02  0.75288536602E+02 0.  0.
         23    2    1    2    0    0 -0.71172422199E+01  0.12894644171E+01  0.31243856058E+02  0.98852954555E+02  0.93506204219E+02 0.  0.
         11    1    3    3    0    0  0.38118579691E+02 -0.41863939902E+02 -0.24325882037E+02  0.61622756500E+02  0.00000000000E+00 0. -1.
        -12    1    3    3    0    0  0.91875375723E+01  0.14672076496E+02  0.26169847065E+02  0.31377405418E+02  0.00000000000E+00 0.  1.
        -11    1    4    4    0    0  0.21152210622E+02  0.30441711860E+01 -0.26794031068E+02  0.34272483033E+02  0.00000000000E+00 0.  1.
         11    1    4    4    0    0 -0.28269452842E+02 -0.17547067689E+01  0.58037887127E+02  0.64580471521E+02  0.00000000000E+00 0. -1.
          4    1    1    2  501    0 -0.40188875044E+02  0.25902398988E+02  0.33633663553E+02  0.58457705007E+02  0.00000000000E+00 0. -1.
<scales pt_clust_5="13000.00000" pt_clust_6="13000.00000" pt_clust_7="13000.00000" pt_clust_8="13000.00000" pt_clust_9="47.81297"></scales>
<clustering>
<clus scale="   47.813">  1  9  2 -1</clus>
<clus scale="   75.289">  5  6 -1 -1</clus>
<clus scale="   82.794">  2  5  1 -1</clus>
<clus scale="   93.506">  7  8 -1 -1</clus>
<clus scale="   47.813">  1  5  2 -1</clus>
</clustering>
</event>
<event>
 9    1  0.4067873E-005  0.1358252E+03  0.7546771E-02  0.1219648E+00
         21   -1    0    0  501  502  0.00000000000E+00  0.00000000000E+00  0.61584632591E+03  0.61584632591E+03  0.00000000000E+00 0.  1.
         -2   -1    0    0    0  501 -0.00000000000E+00 -0.00000000000E+00 -0.38827135083E+03  0.38827135083E+03  0.00000000000E+00 0.  1.
         23    2    1    2    0    0 -0.96459907206E+02  0.11672077086E+02 -0.33643176479E+03  0.36135085077E+03  0.89147932719E+02 0.  0.
        -24    2    1    2    0    0  0.18717751022E+03 -0.25390627942E+02  0.32673018624E+03  0.38836941042E+03  0.91641038998E+02 0.  0.
         11    1    4    4    0    0  0.28118673421E+02 -0.38571377409E+02  0.51562237454E+02  0.70264324386E+02  0.00000000000E+00 0. -1.
        -12    1    4    4    0    0  0.15905883680E+03  0.13180749467E+02  0.27516794879E+03  0.31810508603E+03  0.00000000000E+00 0.  1.
        -11    1    3    3    0    0 -0.37163241022E+02 -0.32695708519E+02 -0.76849443771E+02  0.91410901137E+02  0.00000000000E+00 0. -1.
         11    1    3    3    0    0 -0.59296666185E+02  0.44367785605E+02 -0.25958232102E+03  0.26993994963E+03  0.00000000000E+00 0.  1.
         -1    1    1    2    0  502 -0.90717603016E+02  0.13718550856E+02  0.23727655364E+03  0.25439741555E+03  0.00000000000E+00 0.  1.
<scales pt_clust_5="13000.00000" pt_clust_6="13000.00000" pt_clust_7="13000.00000" pt_clust_8="13000.00000" pt_clust_9="91.74902"></scales>
<clustering>
<clus scale="   89.148">  7  8 -1 -1</clus>
<clus scale="   91.641">  5  6 -1 -1</clus>
<clus scale="   91.749">  1  9  2 -1</clus>
<clus scale="  134.156">  2  7  1 -1</clus>
<clus scale="   91.749">  1  5  2 -1</clus>
</clustering>
</event>
<event>
 9    1  0.4067873E-005  0.1061093E+03  0.7546771E-02  0.1283693E+00
         21   -1    0    0  501  502  0.00000000000E+00  0.00000000000E+00  0.14867228917E+03  0.14867228917E+03  0.00000000000E+00 0.  1.
         -2   -1    0    0    0  501 -0.00000000000E+00 -0.00000000000E+00 -0.97134023991E+02  0.97134023991E+02  0.00000000000E+00 0.  1.
        -24    2    1    2    0    0 -0.83078473646E+01 -0.58594480565E+01 -0.22993158619E+02  0.82369073152E+02  0.78438672919E+02 0.  0.
         23    2    1    2    0    0 -0.11481742142E+02 -0.13491754240E+02  0.31133848286E+02  0.11196446620E+03  0.10607953312E+03 0.  0.
         11    1    3    3    0    0 -0.10576133889E+02 -0.40045299351E+02 -0.24414531361E+02  0.48078580987E+02  0.00000000000E+00 0. -1.
        -12    1    3    3    0    0  0.22682865244E+01  0.34185851294E+02  0.14213727421E+01  0.34290492165E+02  0.00000000000E+00 0.  1.
        -11    1    4    4    0    0 -0.58262195937E+02  0.10878657055E+01  0.20903139642E+02  0.61908062270E+02  0.00000000000E+00 0.  1.
         11    1    4    4    0    0  0.46780453795E+02 -0.14579619945E+02  0.10230708644E+02  0.50056403929E+02  0.00000000000E+00 0. -1.
         -1    1    1    2    0  502  0.19789589507E+02  0.19351202296E+02  0.43397575510E+02  0.51472773806E+02  0.00000000000E+00 0.  1.
<scales pt_clust_5="13000.00000" pt_clust_6="13000.00000" pt_clust_7="13000.00000" pt_clust_8="13000.00000" pt_clust_9="27.67846"></scales>
<clustering>
<clus scale="   27.678">  1  9  2 -1</clus>
<clus scale="   78.439">  5  6 -1 -1</clus>
<clus scale="   78.479">  2  5  1 -1</clus>
<clus scale="  106.080">  7  8 -1 -1</clus>
<clus scale="   27.678">  1  5  2 -1</clus>
</clustering>
</event>
<event>
 9    1  0.4067873E-005  0.1000168E+03  0.7546771E-02  0.1285570E+00
         -4   -1    0    0    0  501 -0.00000000000E+00  0.00000000000E+00  0.76614985805E+02  0.76614985805E+02  0.00000000000E+00 0.  1.
         21   -1    0    0  501  502  0.00000000000E+00 -0.00000000000E+00 -0.39338975623E+03  0.39338975623E+03  0.00000000000E+00 0. -1.
         23    2    1    2    0    0  0.11749680052E+02 -0.42670575550E+02  0.31245420767E+02  0.10590727692E+03  0.91001329591E+02 0.  0.
        -24    2    1    2    0    0 -0.88940333239E+01  0.21142693072E+02 -0.24656018777E+03  0.26033939681E+03  0.80365154398E+02 0.  0.
         13    1    4    4    0    0  0.15897630682E+02  0.33385420035E+02 -0.21593876510E+03  0.21908188242E+03  0.00000000000E+00 0. -1.
        -14    1    4    4    0    0 -0.24791664006E+02 -0.12242726963E+02 -0.30621422674E+02  0.41257514397E+02  0.00000000000E+00 0.  1.
        -13    1    3    3    0    0 -0.30137256028E+02 -0.14560558189E+02 -0.15725161573E+02  0.36980329395E+02  0.00000000000E+00 0. -1.
         13    1    3    3    0    0  0.41886936080E+02 -0.28110017361E+02  0.46970582340E+02  0.68926947528E+02  0.00000000000E+00 0.  1.
         -3    1    1    2    0  502 -0.28556467286E+01  0.21527882478E+02 -0.10146000342E+03  0.10375806830E+03  0.00000000000E+00 0.  1.
<scales pt_clust_5="13000.00000" pt_clust_6="13000.00000" pt_clust_7="13000.00000" pt_clust_8="13000.00000" pt_clust_9="21.71646"></scales>
<clustering>
<clus scale="   21.716">  2  9  1 -1</clus>
<clus scale="   80.365">  5  6 -1 -1</clus>
<clus scale="   90.447">  2  5  1 -1</clus>
<clus scale="   91.001">  7  8 -1 -1</clus>
<clus scale="   21.716">  2  5  1 -1</clus>
</clustering>
</event>
<event>
 9    1  0.4067873E-005  0.1901339E+03  0.7546771E-02  0.1177428E+00
         -2   -1    0    0    0  501 -0.00000000000E+00  0.00000000000E+00  0.20508480728E+03  0.20508480728E+03  0.00000000000E+00 0.  1.
         21   -1    0    0  501  502  0.00000000000E+00 -0.00000000000E+00 -0.30619208886E+03  0.30619208886E+03  0.00000000000E+00 0. -1.
        -24    2    1    2    0    0  0.23452757808E+02 -0.90420466836E+02 -0.39001378327E+02  0.12871916720E+03  0.79508639921E+02 0.  0.
         23    2    1    2    0    0  0.94577025702E+01 -0.10620212775E+03  0.55007891603E+02  0.15134530701E+03  0.92256131182E+02 0.  0.
         13    1    3    3    0    0  0.46896087949E+02 -0.85605936906E+02 -0.38062399690E+02  0.10476815245E+03  0.00000000000E+00 0. -1.
        -14    1    3    3    0    0 -0.23443330141E+02 -0.48145299305E+01 -0.93897863675E+00  0.23951014748E+02  0.00000000000E+00 0.  1.
        -13    1    4    4    0    0 -0.80544467024E+01 -0.11802531954E+03  0.38100828399E+02  0.12428404277E+03  0.00000000000E+00 0.  1.
         13    1    4    4    0    0  0.17512149273E+02  0.11823191788E+02  0.16907063204E+02  0.27061264242E+02  0.00000000000E+00 0. -1.
         -1    1    1    2    0  502 -0.32910460378E+02  0.19662259458E+03 -0.11711379486E+03  0.23121242192E+03  0.00000000000E+00 0.  1.
<scales pt_clust_5="13000.00000" pt_clust_6="13000.00000" pt_clust_7="13000.00000" pt_clust_8="13000.00000" pt_clust_9="166.25199"></scales>
<clustering>
<clus scale="   79.509">  5  6 -1 -1</clus>
<clus scale="   92.256">  7  8 -1 -1</clus>
<clus scale="  122.668">  1  5  2 -1</clus>
<clus scale="  166.252">  2  9  1 -1</clus>
<clus scale="  166.252">  2  5  1 -1</clus>
</clustering>
</event>
<event>
 9    1  0.4067873E-005  0.1146928E+03  0.7546771E-02  0.1254604E+00
          3   -1    0    0  502    0 -0.00000000000E+00  0.00000000000E+00  0.29442868877E+03  0.29442868877E+03  0.00000000000E+00 0. -1.
         21   -1    0    0  501  502  0.00000000000E+00 -0.00000000000E+00 -0.99046541988E+02  0.99046541988E+02  0.00000000000E+00 0. -1.
        -24    2    1    2    0    0 -0.50100550217E+02 -0.62573950158E+02  0.21041223158E+03  0.23900343029E+03  0.80148413094E+02 0.  0.
         23    2    1    2    0    0  0.46063520253E+02  0.34756076006E+02  0.22852245635E+02  0.10729974632E+03  0.87528153828E+02 0.  0.
         13    1    3    3    0    0 -0.67563450342E+02 -0.66518549748E+02  0.16687815769E+03  0.19193190666E+03  0.00000000000E+00 0. -1.
        -14    1    3    3    0    0  0.17462900125E+02  0.39445995897E+01  0.43534073900E+02  0.47071523632E+02  0.00000000000E+00 0.  1.
        -11    1    4    4    0    0  0.28221830533E+02  0.23567541788E+02  0.56615380983E+02  0.67507052287E+02  0.00000000000E+00 0.  1.
         11    1    4    4    0    0  0.17841689720E+02  0.11188534218E+02 -0.33763135348E+02  0.39792694035E+02  0.00000000000E+00 0. -1.
          4    1    1    2  501    0  0.40370299637E+01  0.27817874153E+02 -0.37882330434E+02  0.47172054146E+02  0.00000000000E+00 0. -1.
<scales pt_clust_5="13000.00000" pt_clust_6="13000.00000" pt_clust_7="13000.00000" pt_clust_8="13000.00000" pt_clust_9="28.10928"></scales>
<clustering>
<clus scale="   28.109">  2  9  1 -1</clus>
<clus scale="   80.148">  5  6 -1 -1</clus>
<clus scale="   87.528">  7  8 -1 -1</clus>
<clus scale="  109.165">  1  5  2 -1</clus>
<clus scale="   28.109">  2  5  1 -1</clus>
</clustering>
</event>
<event>
 9    1  0.4067873E-005  0.1232973E+03  0.7546771E-02  0.1240731E+00
          3   -1    0    0  502    0 -0.00000000000E+00  0.00000000000E+00  0.24115494316E+03  0.24115494316E+03  0.00000000000E+00 0. -1.
         21   -1    0    0  501  502  0.00000000000E+00 -0.00000000000E+00 -0.53991192421E+03  0.53991192421E+03  0.00000000000E+00 0. -1.
        -24    2    1    2    0    0 -0.70064488019E+01  0.83067072829E+02  0.20188630612E+03  0.23335471882E+03  0.82140825934E+02 0.  0.
         23    2    1    2    0    0 -0.40720868267E+02 -0.69552278602E+02 -0.15004256120E+03  0.19361976582E+03  0.92087648314E+02 0.  0.
         11    1    3    3    0    0  0.29075862438E+02  0.73448074226E+02  0.14852179501E+03  0.16822232009E+03  0.00000000000E+00 0. -1.
        -12    1    3    3    0    0 -0.36082311239E+02  0.96189986026E+01  0.53364511104E+02  0.65132398727E+02  0.00000000000E+00 0.  1.
        -13    1    4    4    0    0  0.16150719712E+02 -0.39993207053E+02 -0.10972836012E+03  0.11790087096E+03  0.00000000000E+00 0.  1.
         13    1    4    4    0    0 -0.56871587979E+02 -0.29559071549E+02 -0.40314201081E+02  0.75718894860E+02  0.00000000000E+00 0. -1.
          4    1    1    2  501    0  0.47727317068E+02 -0.13514794227E+02 -0.35060072596E+03  0.35409238272E+03  0.00000000000E+00 0. -1.
<scales pt_clust_5="13000.00000" pt_clust_6="13000.00000" pt_clust_7="13000.00000" pt_clust_8="13000.00000" pt_clust_9="49.60390"></scales>
<clustering>
<clus scale="   49.604">  2  9  1 -1</clus>
<clus scale="   82.141">  5  6 -1 -1</clus>
<clus scale="   92.088">  7  8 -1 -1</clus>
<clus scale="  116.057">  1  5  2 -1</clus>
<clus scale="   49.604">  2  5  1 -1</clus>
</clustering>
</event>
<event>
 9    1  0.4067873E-005  0.1127769E+03  0.7546771E-02  0.1262415E+00
          1   -1    0    0  502    0 -0.00000000000E+00  0.00000000000E+00  0.83889197180E+03  0.83889197180E+03  0.00000000000E+00 0. -1.
         21   -1    0    0  501  502  0.00000000000E+00 -0.00000000000E+00 -0.56060612274E+02  0.56060612274E+02  0.00000000000E+00 0. -1.
         23    2    1    2    0    0 -0.21776091973E+02  0.28778566507E+02  0.57263980861E+03  0.58104041609E+03  0.91592634248E+02 0.  0.
        -24    2    1    2    0    0 -0.65112524152E+02  0.22262506862E+02  0.36334346155E+02  0.11296155109E+03  0.81883254100E+02 0.  0.
         13    1    4    4    0    0 -0.84631417771E+02  0.14620378787E+02  0.31235869902E+02  0.91388795366E+02  0.00000000000E+00 0. -1.
        -14    1    4    4    0    0  0.19518893620E+02  0.76421280742E+01  0.50984762529E+01  0.21572755729E+02  0.00000000000E+00 0.  1.
        -13    1    3    3    0    0  0.30601084688E+02 -0.11120193763E+02  0.18136759717E+03  0.18426689990E+03  0.00000000000E+00 0.  1.
         13    1    3    3    0    0 -0.52377176660E+02  0.39898760269E+02  0.39127221144E+03  0.39677351619E+03  0.00000000000E+00 0. -1.
          2    1    1    2  501    0  0.86888616124E+02 -0.51041073368E+02  0.17385720475E+03  0.20095061689E+03  0.00000000000E+00 0. -1.
<scales pt_clust_5="13000.00000" pt_clust_6="13000.00000" pt_clust_7="13000.00000" pt_clust_8="13000.00000" pt_clust_9="77.54844"></scales>
<clustering>
<clus scale="   81.883">  5  6 -1 -1</clus>
<clus scale="   91.593">  7  8 -1 -1</clus>
<clus scale="   98.446">  1  7  2 -1</clus>
<clus scale="   77.548">  2  9  1 -1</clus>
<clus scale="   77.548">  2  5  1 -1</clus>
</clustering>
</event>
<event>
 9    1  0.4067873E-005  0.1521279E+03  0.7546771E-02  0.1199420E+00
         -2   -1    0    0    0  501 -0.00000000000E+00  0.00000000000E+00  0.56921161314E+03  0.56921161314E+03  0.00000000000E+00 0.  1.
         21   -1    0    0  501  502  0.00000000000E+00 -0.00000000000E+00 -0.63765638630E+02  0.63765638630E+02  0.00000000000E+00 0. -1.
         23    2    1    2    0    0  0.44010864148E+02  0.13712842270E+03  0.32488901369E+03  0.36664325513E+03  0.90184504462E+02 0.  0.
        -24    2    1    2    0    0  0.44494434263E+01 -0.92808199091E+02  0.83436685526E+02  0.14909479029E+03  0.81451928369E+02 0.  0.
         13    1    4    4    0    0  0.98232750566E+01 -0.90324127134E+02  0.30516775028E+02  0.95844761117E+02  0.00000000000E+00 0. -1.
        -14    1    4    4    0    0 -0.53738316303E+01 -0.24840719566E+01  0.52919910499E+02  0.53250029174E+02  0.00000000000E+00 0.  1.
        -13    1    3    3    0    0  0.20613423621E+02 -0.52122803397E+00  0.98697937838E+02  0.10082890382E+03  0.00000000000E+00 0. -1.
         13    1    3    3    0    0  0.23397440526E+02  0.13764965074E+03  0.22619107585E+03  0.26581435131E+03  0.00000000000E+00 0.  1.
         -1    1    1    2    0  502 -0.48460307574E+02 -0.44320223610E+02  0.97120275300E+02  0.11723920635E+03  0.00000000000E+00 0.  1.
<scales pt_clust_5="13000.00000" pt_clust_6="13000.00000" pt_clust_7="13000.00000" pt_clust_8="13000.00000" pt_clust_9="65.67106"></scales>
<clustering>
<clus scale="   65.671">  2  9  1 -1</clus>
<clus scale="   81.452">  5  6 -1 -1</clus>
<clus scale="   90.185">  7  8 -1 -1</clus>
<clus scale="  147.119">  2  5  1 -1</clus>
<clus scale="   65.671">  2  5  1 -1</clus>
</clustering>
</event>
<event>
 9    1  0.4067873E-005  0.1144786E+03  0.7546771E-02  0.1255994E+00
         -4   -1    0    0    0  501 -0.00000000000E+00  0.00000000000E+00  0.17359096626E+03  0.17359096626E+03  0.00000000000E+00 0.  1.
         21   -1    0    0  501  502  0.00000000000E+00 -0.00000000000E+00 -0.12426965323E+03  0.12426965323E+03  0.00000000000E+00 0. -1.
        -24    2    1    2    0    0  0.55134568411E+02  0.22284315750E+02  0.18410278272E+02  0.10205967084E+03  0.80875377614E+02 0.  0.
         23    2    1    2    0    0 -0.70431166885E+02 -0.57153913643E+02 -0.22422702417E+02  0.13026956454E+03  0.90775892997E+02 0.  0.
         13    1    3    3    0    0  0.90157568063E+01 -0.29360447042E+02  0.10056094937E+02  0.32317870702E+02  0.00000000000E+00 0. -1.
        -14    1    3    3    0    0  0.46118811605E+02  0.51644762792E+02  0.83541833357E+01  0.69741800141E+02  0.00000000000E+00 0.  1.
        -11    1    4    4    0    0 -0.46471187188E+02  0.28739602689E+01  0.22347313608E+02  0.51645264176E+02  0.00000000000E+00 0.  1.
         11    1    4    4    0    0 -0.23959979697E+02 -0.60027873912E+02 -0.44770016025E+02  0.78624300368E+02  0.00000000000E+00 0. -1.
         -3    1    1    2    0  502  0.15296598474E+02  0.34869597893E+02  0.53333737173E+02  0.65531384107E+02  0.00000000000E+00 0.  1.
<scales pt_clust_5="13000.00000" pt_clust_6="13000.00000" pt_clust_7="13000.00000" pt_clust_8="13000.00000" pt_clust_9="38.07724"></scales>
<clustering>
<clus scale="   38.077">  2  9  1 -1</clus>
<clus scale="   80.875">  5  6 -1 -1</clus>
<clus scale="   90.776">  7  8 -1 -1</clus>
<clus scale="  106.798">  1  5  2 -1</clus>
<clus scale="   38.077">  2  5  1 -1</clus>
</clustering>
</event>
<event>
 9    1  0.4067873E-005  0.1058206E+03  0.7546771E-02  0.1272376E+00
         -2   -1    0    0    0  501 -0.00000000000E+00  0.00000000000E+00  0.31394428604E+03  0.31394428604E+03  0.00000000000E+00 0.  1.
         21   -1    0    0  501  502  0.00000000000E+00 -0.00000000000E+00 -0.52370501820E+02  0.52370501820E+02  0.00000000000E+00 0. -1.
        -24    2    1    2    0    0  0.50364074337E+02  0.76485363300E+01  0.13437023234E+03  0.16578730880E+03  0.82674254332E+02 0.  0.
         23    2    1    2    0    0 -0.55422390588E+02  0.27017224433E+02  0.12293145219E+03  0.16523509506E+03  0.91591063471E+02 0.  0.
         13    1    3    3    0    0  0.57396485225E+02  0.12483163735E+02  0.40075486665E+02  0.71107176322E+02  0.00000000000E+00 0. -1.
        -14    1    3    3    0    0 -0.70324108876E+01 -0.48346274053E+01  0.94294745671E+02  0.94680132479E+02  0.00000000000E+00 0.  1.
        -13    1    4    4    0    0 -0.44520988737E+02  0.51467015522E+02  0.41946840298E+02  0.79940662593E+02  0.00000000000E+00 0. -1.
         13    1    4    4    0    0 -0.10901401850E+02 -0.24449791089E+02  0.80984611892E+02  0.85294432467E+02  0.00000000000E+00 0.  1.
         -1    1    1    2    0  502  0.50583162509E+01 -0.34665760763E+02  0.42720996947E+01  0.35292384000E+02  0.00000000000E+00 0.  1.
<scales pt_clust_5="13000.00000" pt_clust_6="13000.00000" pt_clust_7="13000.00000" pt_clust_8="13000.00000" pt_clust_9="35.03286"></scales>
<clustering>
<clus scale="   35.033">  2  9  1 -1</clus>
<clus scale="   82.674">  5  6 -1 -1</clus>
<clus scale="   91.591">  7  8 -1 -1</clus>
<clus scale="   98.204">  1  5  2 -1</clus>
<clus scale="   35.033">  2  5  1 -1</clus>
</clustering>
</event>
<event>
 9    1  0.4067873E-005  0.1209893E+03  0.7546771E-02  0.1244528E+00
         21   -1    0    0  501  502  0.00000000000E+00  0.00000000000E+00  0.15625844170E+03  0.15625844170E+03  0.00000000000E+00 0.  1.
         -2   -1    0    0    0  501 -0.00000000000E+00 -0.00000000000E+00 -0.31969386790E+03  0.31969386790E+03  0.00000000000E+00 0.  1.
        -24    2    1    2    0    0 -0.51384288981E+01 -0.77509949204E+02 -0.20892588682E+03  0.23659555272E+03  0.79329904228E+02 0.  0.
         23    2    1    2    0    0 -0.10252497611E+02  0.94347086228E+02 -0.51153274467E+02  0.14005730405E+03  0.89403045478E+02 0.  0.
         13    1    3    3    0    0  0.14351226994E+02 -0.29344214828E+02 -0.15211534163E+02  0.36033754060E+02  0.00000000000E+00 0. -1.
        -14    1    3    3    0    0 -0.19489655892E+02 -0.48165734376E+02 -0.19371435266E+03  0.20056179866E+03  0.00000000000E+00 0.  1.
        -13    1    4    4    0    0 -0.16122346237E+02  0.22746473867E+02  0.23491073383E+02  0.36457683007E+02  0.00000000000E+00 0. -1.
         13    1    4    4    0    0  0.58698486264E+01  0.71600612362E+02 -0.74644347850E+02  0.10359962104E+03  0.00000000000E+00 0.  1.
         -1    1    1    2    0  502  0.15390926509E+02 -0.16837137024E+02  0.96643735086E+02  0.99299452835E+02  0.00000000000E+00 0.  1.
<scales pt_clust_5="13000.00000" pt_clust_6="13000.00000" pt_clust_7="13000.00000" pt_clust_8="13000.00000" pt_clust_9="22.81162"></scales>
<clustering>
<clus scale="   22.812">  1  9  2 -1</clus>
<clus scale="   79.330">  5  6 -1 -1</clus>
<clus scale="   89.403">  7  8 -1 -1</clus>
<clus scale="  113.749">  2  5  1 -1</clus>
<clus scale="   22.812">  1  5  2 -1</clus>
</clustering>
</event>
<event>
 9    1  0.4067873E-005  0.1546675E+03  0.7546771E-02  0.1223786E+00
          1   -1    0    0  502    0 -0.00000000000E+00  0.00000000000E+00  0.10534662392E+04  0.10534662392E+04  0.00000000000E+00 0. -1.
         21   -1    0    0  501  502  0.00000000000E+00 -0.00000000000E+00 -0.33302930886E+02  0.33302930886E+02  0.00000000000E+00 0. -1.
        -24    2    1    2    0    0 -0.22498275892E+02 -0.29150292054E+01  0.24400370474E+03  0.25783604002E+03  0.80168234318E+02 0.  0.
         23    2    1    2    0    0 -0.30889223523E+02  0.11945972230E+03  0.31650385093E+03  0.35173683762E+03  0.91210448447E+02 0.  0.
         13    1    3    3    0    0  0.29794183188E+02  0.52148002386E+01  0.81453966551E+02  0.86888642297E+02  0.00000000000E+00 0. -1.
        -14    1    3    3    0    0 -0.52292459079E+02 -0.81298294440E+01  0.16254973819E+03  0.17094739772E+03  0.00000000000E+00 0.  1.
        -11    1    4    4    0    0  0.44899426769E+01  0.87799485084E+02  0.11521954356E+03  0.14492912884E+03  0.00000000000E+00 0.  1.
         11    1    4    4    0    0 -0.35379166200E+02  0.31660237213E+02  0.20128430737E+03  0.20680770879E+03  0.00000000000E+00 0. -1.
          2    1    1    2  501    0  0.53387499415E+02 -0.11654469309E+03  0.45965575262E+03  0.47719629241E+03  0.00000000000E+00 0. -1.
<scales pt_clust_5="13000.00000" pt_clust_6="13000.00000" pt_clust_7="13000.00000" pt_clust_8="13000.00000" pt_clust_9="124.91074"></scales>
<clustering>
<clus scale="   80.168">  5  6 -1 -1</clus>
<clus scale="   83.316">  1  5  2 -1</clus>
<clus scale="   91.210">  7  8 -1 -1</clus>
<clus scale="  124.911">  2  9  1 -1</clus>
<clus scale="  124.911">  2  5  1 -1</clus>
</clustering>
</event>
<event>
 9    1  0.4067873E-005  0.3420913E+03  0.7546771E-02  0.1066201E+00
         -2   -1    0    0    0  501 -0.00000000000E+00  0.00000000000E+00  0.58416921551E+03  0.58416921551E+03  0.00000000000E+00 0.  1.
         21   -1    0    0  501  502  0.00000000000E+00 -0.00000000000E+00 -0.89341601691E+03  0.89341601691E+03  0.00000000000E+00 0.  1.
         23    2    1    2    0    0 -0.33081206444E+03  0.44651734042E+02  0.32154724574E+03  0.47234413465E+03  0.91027199022E+02 0.  0.
        -24    2    1    2    0    0  0.32721968803E+03  0.73792262549E+02  0.18375878238E+02  0.34534453199E+03  0.80044678958E+02 0.  0.
         13    1    4    4    0    0  0.55049730830E+02  0.44976027353E+02  0.67521390816E+01  0.71406633327E+02  0.00000000000E+00 0. -1.
        -14    1    4    4    0    0  0.27216995720E+03  0.28816235196E+02  0.11623739156E+02  0.27393789867E+03  0.00000000000E+00 0.  1.
        -11    1    3    3    0    0 -0.30466375195E+03  0.47385244304E+02  0.32231686955E+03  0.44604206923E+03  0.00000000000E+00 0. -1.
         11    1    3    3    0    0 -0.26148312492E+02 -0.27335102629E+01 -0.76962380455E+00  0.26302065420E+02  0.00000000000E+00 0.  1.
         -1    1    1    2    0  502  0.35923764126E+01 -0.11844399659E+03 -0.64916992538E+03  0.65989656577E+03  0.00000000000E+00 0.  1.
<scales pt_clust_5="13000.00000" pt_clust_6="13000.00000" pt_clust_7="13000.00000" pt_clust_8="13000.00000" pt_clust_9="118.49846"></scales>
<clustering>
<clus scale="   80.045">  5  6 -1 -1</clus>
<clus scale="   91.027">  7  8 -1 -1</clus>
<clus scale="  118.498">  2  9  1 -1</clus>
<clus scale="  339.334">  2  5  1 -1</clus>
<clus scale="  118.498">  2  5  1 -1</clus>
</clustering>
</event>
<event>
 9    1  0.4067873E-005  0.1028406E+03  0.7546771E-02  0.1280287E+00
         21   -1    0    0  501  502  0.00000000000E+00  0.00000000000E+00  0.68983629503E+02  0.68983629503E+02  0.00000000000E+00 0. -1.
         -2   -1    0    0    0  501 -0.00000000000E+00 -0.00000000000E+00 -0.46303627716E+03  0.46303627716E+03  0.00000000000E+00 0.  1.
        -24    2    1    2    0    0  0.33454214616E+01 -0.41942264921E+02 -0.38900245729E+03  0.39959231410E+03  0.81121885338E+02 0.  0.
         23    2    1    2    0    0 -0.20240718755E+02  0.54641629863E+02  0.24193469971E+01  0.11001065858E+03  0.93279672772E+02 0.  0.
         11    1    3    3    0    0 -0.17283858760E+02 -0.30305121609E+02 -0.57579328457E+02  0.67323927655E+02  0.00000000000E+00 0. -1.
        -12    1    3    3    0    0  0.20629280222E+02 -0.11637143313E+02 -0.33142312883E+03  0.33226838645E+03  0.00000000000E+00 0.  1.
        -13    1    4    4    0    0 -0.26249974615E+02  0.22662514211E+02 -0.42304714042E+02  0.54702281011E+02  0.00000000000E+00 0.  1.
         13    1    4    4    0    0  0.60092558601E+01  0.31979115652E+02  0.44724061039E+02  0.55308377573E+02  0.00000000000E+00 0. -1.
         -1    1    1    2    0  502  0.16895297293E+02 -0.12699364942E+02 -0.74695373679E+01  0.22416933980E+02  0.00000000000E+00 0.  1.
<scales pt_clust_5="13000.00000" pt_clust_6="13000.00000" pt_clust_7="13000.00000" pt_clust_8="13000.00000" pt_clust_9="21.13587"></scales>
<clustering>
<clus scale="   21.136">  1  9  2 -1</clus>
<clus scale="   81.122">  5  6 -1 -1</clus>
<clus scale="   91.956">  2  5  1 -1</clus>
<clus scale="   93.280">  7  8 -1 -1</clus>
<clus scale="   21.136">  1  5  2 -1</clus>
</clustering>
</event>
<event>
 9    1  0.4067873E-005  0.9819721E+02  0.7546771E-02  0.1289356E+00
         -2   -1    0    0    0  501 -0.00000000000E+00  0.00000000000E+00  0.23573950660E+03  0.23573950660E+03  0.00000000000E+00 0.  1.
         21   -1    0    0  501  502  0.00000000000E+00 -0.00000000000E+00 -0.18228097064E+03  0.18228097064E+03  0.00000000000E+00 0.  1.
        -24    2    1    2    0    0 -0.34082638096E+02  0.12737866825E+02  0.15112557062E+03  0.17469209350E+03  0.79715180260E+02 0.  0.
         23    2    1    2    0    0  0.90436141537E+02  0.38670434252E+02 -0.10067589949E+03  0.16698976942E+03  0.89865723010E+02 0.  0.
         11    1    3    3    0    0  0.53657965607E+01  0.29390168588E+02  0.18068296469E+02  0.34914712080E+02  0.00000000000E+00 0. -1.
        -12    1    3    3    0    0 -0.39448434657E+02 -0.16652301763E+02  0.13305727415E+03  0.13977738142E+03  0.00000000000E+00 0.  1.
        -13    1    4    4    0    0  0.20288232255E+02 -0.27557544367E+02 -0.41601010716E+02  0.53867195139E+02  0.00000000000E+00 0. -1.
         13    1    4    4    0    0  0.70147909282E+02  0.66227978620E+02 -0.59074888774E+02  0.11312257428E+03  0.00000000000E+00 0.  1.
         -1    1    1    2    0  502 -0.56353503441E+02 -0.51408301077E+02  0.30088648305E+01  0.76338614326E+02  0.00000000000E+00 0.  1.
<scales pt_clust_5="13000.00000" pt_clust_6="13000.00000" pt_clust_7="13000.00000" pt_clust_8="13000.00000" pt_clust_9="76.27929"></scales>
<clustering>
<clus scale="   76.279">  2  9  1 -1</clus>
<clus scale="   79.715">  5  6 -1 -1</clus>
<clus scale="   89.002">  1  5  2 -1</clus>
<clus scale="   89.866">  7  8 -1 -1</clus>
<clus scale="   76.279">  2  5  1 -1</clus>
</clustering>
</event>
<event>
 9    1  0.4067873E-005  0.9323040E+02  0.7546771E-02  0.1301913E+00
          3   -1    0    0  502    0 -0.00000000000E+00  0.00000000000E+00  0.25032681914E+03  0.25032681914E+03  0.00000000000E+00 0. -1.
         21   -1    0    0  501  502  0.00000000000E+00 -0.00000000000E+00 -0.22126973621E+03  0.22126973621E+03  0.00000000000E+00 0.  1.
        -24    2    1    2    0    0 -0.17274630889E+02 -0.15156398127E+02  0.21868883607E+03  0.23375877048E+03  0.79310948047E+02 0.  0.
         23    2    1    2    0    0  0.29900293443E+02 -0.26372939103E+02 -0.14542931923E+03  0.17588660756E+03  0.90536469803E+02 0.  0.
         11    1    3    3    0    0 -0.30697822566E+02 -0.33837298777E+02  0.19670067004E+03  0.20193680371E+03  0.00000000000E+00 0. -1.
        -12    1    3    3    0    0  0.13423191676E+02  0.18680900650E+02  0.21988166025E+02  0.31821966768E+02  0.00000000000E+00 0.  1.
        -13    1    4    4    0    0 -0.53809869332E+01 -0.26997642260E+02 -0.13682371814E+03  0.13956560305E+03  0.00000000000E+00 0.  1.
         13    1    4    4    0    0  0.35281280376E+02  0.62470315759E+00 -0.86056010860E+01  0.36321004516E+02  0.00000000000E+00 0. -1.
          4    1    1    2  501    0 -0.12625662554E+02  0.41529337230E+02 -0.44202433912E+02  0.61951177304E+02  0.00000000000E+00 0. -1.
<scales pt_clust_5="13000.00000" pt_clust_6="13000.00000" pt_clust_7="13000.00000" pt_clust_8="13000.00000" pt_clust_9="43.40614"></scales>
<clustering>
<clus scale="   43.406">  2  9  1 -1</clus>
<clus scale="   79.311">  5  6 -1 -1</clus>
<clus scale="   82.373">  1  5  2 -1</clus>
<clus scale="   90.536">  7  8 -1 -1</clus>
<clus scale="   43.406">  2  5  1 -1</clus>
</clustering>
</event>
<event>
 9    1  0.4067873E-005  0.9439980E+02  0.7546771E-02  0.1298491E+00
          3   -1    0    0  502    0 -0.00000000000E+00  0.00000000000E+00  0.43514281469E+02  0.43514281469E+02  0.00000000000E+00 0. -1.
         21   -1    0    0  501  502  0.00000000000E+00 -0.00000000000E+00 -0.28801657096E+03  0.28801657096E+03  0.00000000000E+00 0.  1.
         23    2    1    2    0    0  0.61785115064E+01  0.22809676543E+02 -0.49064519006E+02  0.10548808908E+03  0.90343536371E+02 0.  0.
        -24    2    1    2    0    0 -0.30387151053E+02 -0.24923266861E+02 -0.14815477777E+03  0.17288068200E+03  0.79958388270E+02 0.  0.
         11    1    4    4    0    0 -0.17545604721E+02 -0.11232281819E+02  0.25705996757E+01  0.20990959544E+02  0.00000000000E+00 0. -1.
        -12    1    4    4    0    0 -0.12841546332E+02 -0.13690985042E+02 -0.15072537744E+03  0.15188972246E+03  0.00000000000E+00 0.  1.
        -11    1    3    3    0    0 -0.40095203779E+02 -0.71007586658E+00 -0.12535043042E+02  0.42014960167E+02  0.00000000000E+00 0.  1.
         11    1    3    3    0    0  0.46273715285E+02  0.23519752410E+02 -0.36529475965E+02  0.63473128913E+02  0.00000000000E+00 0. -1.
          4    1    1    2  501    0  0.24208639546E+02  0.21135903173E+01 -0.47282992717E+02  0.53162081346E+02  0.00000000000E+00 0. -1.
<scales pt_clust_5="13000.00000" pt_clust_6="13000.00000" pt_clust_7="13000.00000" pt_clust_8="13000.00000" pt_clust_9="24.30073"></scales>
<clustering>
<clus scale="   24.301">  2  9  1 -1</clus>
<clus scale="   79.958">  5  6 -1 -1</clus>
<clus scale="   84.515">  2  5  1 -1</clus>
<clus scale="   90.344">  7  8 -1 -1</clus>
<clus scale="   24.301">  2  5  1 -1</clus>
</clustering>
</event>
<event>
 9    1  0.4067873E-005  0.1030290E+03  0.7546771E-02  0.1275556E+00
          1   -1    0    0  502    0 -0.00000000000E+00  0.00000000000E+00  0.45087660364E+03  0.45087660364E+03  0.00000000000E+00 0. -1.
         21   -1    0    0  501  502  0.00000000000E+00 -0.00000000000E+00 -0.11740608376E+03  0.11740608376E+03  0.00000000000E+00 0.  1.
         23    2    1    2    0    0  0.16618257955E+02  0.19037447855E+02  0.24129786649E+02  0.98041124335E+02  0.91603627324E+02 0.  0.
        -24    2    1    2    0    0  0.51634574069E+02 -0.81589454634E+02 -0.11987610193E+02  0.13584194148E+03  0.94796423561E+02 0.  0.
         13    1    4    4    0    0  0.46341597756E+02 -0.23631716185E+01  0.19620035393E+02  0.50379301816E+02  0.00000000000E+00 0. -1.
        -14    1    4    4    0    0  0.52929763126E+01 -0.79226283015E+02 -0.31607645586E+02  0.85462639663E+02  0.00000000000E+00 0.  1.
        -11    1    3    3    0    0  0.34575909871E+02 -0.27058054487E+02  0.20452078843E+02  0.48434691958E+02  0.00000000000E+00 0.  1.
         11    1    3    3    0    0 -0.17957651917E+02  0.46095502342E+02  0.36777078061E+01  0.49606432377E+02  0.00000000000E+00 0. -1.
          2    1    1    2  501    0 -0.68252832023E+02  0.62552006779E+02  0.32132834342E+03  0.33439962158E+03  0.00000000000E+00 0. -1.
<scales pt_clust_5="13000.00000" pt_clust_6="13000.00000" pt_clust_7="13000.00000" pt_clust_8="13000.00000" pt_clust_9="92.58084"></scales>
<clustering>
<clus scale="   91.604">  7  8 -1 -1</clus>
<clus scale="   92.581">  2  9  1 -1</clus>
<clus scale="   94.796">  5  6 -1 -1</clus>
<clus scale="  100.099">  1  7  2 -1</clus>
<clus scale="   92.581">  2  5  1 -1</clus>
</clustering>
</event>
<event>
 9    1  0.4067873E-005  0.9080722E+02  0.7546771E-02  0.1306869E+00
         -2   -1    0    0    0  501 -0.00000000000E+00  0.00000000000E+00  0.49594170569E+03  0.49594170569E+03  0.00000000000E+00 0.  1.
         21   -1    0    0  501  502  0.00000000000E+00 -0.00000000000E+00 -0.11259443960E+03  0.11259443960E+03  0.00000000000E+00 0.  1.
        -24    2    1    2    0    0 -0.14145268530E+01 -0.21505226083E+02  0.29707490234E+03  0.30860321682E+03  0.80733959374E+02 0.  0.
         23    2    1    2    0    0  0.12415508623E+02 -0.14968663361E+02  0.17806290689E+03  0.20055048524E+03  0.90199182821E+02 0.  0.
         13    1    3    3    0    0  0.32901333035E+02  0.91378776041E+01  0.17149187096E+03  0.17485840080E+03  0.00000000000E+00 0. -1.
        -14    1    3    3    0    0 -0.34315859888E+02 -0.30643103687E+02  0.12558303138E+03  0.13374481602E+03  0.00000000000E+00 0.  1.
        -13    1    4    4    0    0 -0.17670915261E+02 -0.42106531691E+02  0.12944061108E+03  0.13725921847E+03  0.00000000000E+00 0.  1.
         13    1    4    4    0    0  0.30086423884E+02  0.27137868329E+02  0.48622295808E+02  0.63291266769E+02  0.00000000000E+00 0. -1.
         -1    1    1    2    0  502 -0.11000981770E+02  0.36473889444E+02 -0.91790543147E+02  0.99382443230E+02  0.00000000000E+00 0.  1.
<scales pt_clust_5="13000.00000" pt_clust_6="13000.00000" pt_clust_7="13000.00000" pt_clust_8="13000.00000" pt_clust_9="38.09680"></scales>
<clustering>
<clus scale="   38.097">  2  9  1 -1</clus>
<clus scale="   80.734">  5  6 -1 -1</clus>
<clus scale="   81.413">  1  5  2 -1</clus>
<clus scale="   90.199">  7  8 -1 -1</clus>
<clus scale="   38.097">  2  5  1 -1</clus>
</clustering>
</event>
<event>
 9    1  0.4067873E-005  0.1024397E+03  0.7546771E-02  0.1279723E+00
          1   -1    0    0  502    0 -0.00000000000E+00  0.00000000000E+00  0.11212102677E+04  0.11212102677E+04  0.00000000000E+00 0. -1.
         21   -1    0    0  501  502  0.00000000000E+00 -0.00000000000E+00 -0.15261789347E+02  0.15261789347E+02  0.00000000000E+00 0. -1.
        -24    2    1    2    0    0 -0.54715309137E+02 -0.26975847588E+02  0.62359736012E+03  0.63194815989E+03  0.82239575852E+02 0.  0.
         23    2    1    2    0    0  0.54184841007E+01  0.31082282508E+02  0.35138506525E+03  0.36452694433E+03  0.91722193642E+02 0.  0.
         13    1    3    3    0    0 -0.47375244654E+02 -0.55444314633E+02  0.43384202553E+03  0.43992884532E+03  0.00000000000E+00 0. -1.
        -14    1    3    3    0    0 -0.73400644832E+01  0.28468467046E+02  0.18975533459E+03  0.19201931457E+03  0.00000000000E+00 0.  1.
        -13    1    4    4    0    0  0.38088569068E+02  0.36940190932E+02  0.28931111486E+03  0.29413642750E+03  0.00000000000E+00 0.  1.
         13    1    4    4    0    0 -0.32670084968E+02 -0.58579084236E+01  0.62073950386E+02  0.70390516829E+02  0.00000000000E+00 0. -1.
          2    1    1    2  501    0  0.49296825037E+02 -0.41064349205E+01  0.13096605302E+03  0.13999695286E+03  0.00000000000E+00 0. -1.
<scales pt_clust_5="13000.00000" pt_clust_6="13000.00000" pt_clust_7="13000.00000" pt_clust_8="13000.00000" pt_clust_9="49.46756"></scales>
<clustering>
<clus scale="   49.468">  2  9  1 -1</clus>
<clus scale="   82.240">  5  6 -1 -1</clus>
<clus scale="   91.722">  7  8 -1 -1</clus>
<clus scale="   94.044">  1  5  2 -1</clus>
<clus scale="   49.468">  2  5  1 -1</clus>
</clustering>
</event>
<event>
 9    1  0.4067873E-005  0.1408863E+03  0.7546771E-02  0.1231940E+00
         21   -1    0    0  501  502  0.00000000000E+00  0.00000000000E+00  0.37342430015E+03  0.37342430015E+03  0.00000000000E+00 0.  1.
         -2   -1    0    0    0  501 -0.00000000000E+00 -0.00000000000E+00 -0.86843312043E+02  0.86843312043E+02  0.00000000000E+00 0.  1.
         23    2    1    2    0    0 -0.16106220498E+02 -0.10267845471E+02  0.76708754701E+02  0.12062786524E+03  0.91115365530E+02 0.  0.
        -24    2    1    2    0    0 -0.46267193965E+02  0.10732956738E+03  0.16060621153E+03  0.21418632291E+03  0.80131994024E+02 0.  0.
         13    1    4    4    0    0 -0.26737699109E+02  0.12471995780E+02  0.88941734131E+02  0.93707455961E+02  0.00000000000E+00 0. -1.
        -14    1    4    4    0    0 -0.19529494856E+02  0.94857571605E+02  0.71664477403E+02  0.12047886695E+03  0.00000000000E+00 0.  1.
        -13    1    3    3    0    0  0.11053760216E+02 -0.45732917593E+02  0.49647628903E+02  0.68400090806E+02  0.00000000000E+00 0.  1.
         13    1    3    3    0    0 -0.27159980714E+02  0.35465072123E+02  0.27061125798E+02  0.52227774436E+02  0.00000000000E+00 0. -1.
         -1    1    1    2    0  502  0.62373414464E+02 -0.97061721914E+02  0.49266021872E+02  0.12545342404E+03  0.00000000000E+00 0.  1.
<scales pt_clust_5="13000.00000" pt_clust_6="13000.00000" pt_clust_7="13000.00000" pt_clust_8="13000.00000" pt_clust_9="115.87845"></scales>
<clustering>
<clus scale="   80.132">  5  6 -1 -1</clus>
<clus scale="   91.115">  7  8 -1 -1</clus>
<clus scale="   93.096">  2  7  1 -1</clus>
<clus scale="  115.878">  1  9  2 -1</clus>
<clus scale="  115.878">  1  5  2 -1</clus>
</clustering>
</event>
<event>
 9    1  0.4067873E-005  0.9230245E+02  0.7546771E-02  0.1304662E+00
          1   -1    0    0  502    0 -0.00000000000E+00  0.00000000000E+00  0.32890908972E+03  0.32890908972E+03  0.00000000000E+00 0. -1.
         21   -1    0    0  501  502  0.00000000000E+00 -0.00000000000E+00 -0.69234010951E+02  0.69234010951E+02  0.00000000000E+00 0. -1.
        -24    2    1    2    0    0  0.28817514091E+02 -0.33614229656E-01  0.42611794434E+02  0.95041206606E+02  0.79916304219E+02 0.  0.
         23    2    1    2    0    0  0.23558354776E+02 -0.20376987881E+02  0.20832143650E+02  0.98978194086E+02  0.91610517850E+02 0.  0.
         13    1    3    3    0    0  0.37034909888E+02 -0.21973464149E+01  0.62910735747E+02  0.73035426705E+02  0.00000000000E+00 0. -1.
        -14    1    3    3    0    0 -0.82173957970E+01  0.21637321852E+01 -0.20298941313E+02  0.22005779902E+02  0.00000000000E+00 0.  1.
        -11    1    4    4    0    0  0.57629906984E+02 -0.40234813214E+01  0.20135876208E+02  0.61178820613E+02  0.00000000000E+00 0.  1.
         11    1    4    4    0    0 -0.34071552208E+02 -0.16353506560E+02  0.69626744116E+00  0.37799373473E+02  0.00000000000E+00 0. -1.
          2    1    1    2  501    0 -0.52375868867E+02  0.20410602111E+02  0.19623114068E+03  0.20412369998E+03  0.00000000000E+00 0. -1.
<scales pt_clust_5="13000.00000" pt_clust_6="13000.00000" pt_clust_7="13000.00000" pt_clust_8="13000.00000" pt_clust_9="56.21234"></scales>
<clustering>
<clus scale="   56.212">  2  9  1 -1</clus>
<clus scale="   79.916">  5  6 -1 -1</clus>
<clus scale="   80.709">  1  5  2 -1</clus>
<clus scale="   91.611">  7  8 -1 -1</clus>
<clus scale="   56.212">  2  5  1 -1</clus>
</clustering>
</event>
<event>
 9    1  0.4067873E-005  0.1511984E+03  0.7546771E-02  0.1225462E+00
         21   -1    0    0  501  502  0.00000000000E+00  0.00000000000E+00  0.14059025078E+03  0.14059025078E+03  0.00000000000E+00 0. -1.
         -2   -1    0    0    0  501 -0.00000000000E+00 -0.00000000000E+00 -0.26824536395E+03  0.26824536395E+03  0.00000000000E+00 0.  1.
        -24    2    1    2    0    0 -0.19495131376E+02 -0.10045556234E+02 -0.12779254684E+01  0.86132612445E+02  0.83283974964E+02 0.  0.
         23    2    1    2    0    0  0.12382944943E+03  0.29219634393E+02  0.75342571112E+00  0.15712677192E+03  0.92199431787E+02 0.  0.
         11    1    3    3    0    0  0.21382545929E+02 -0.29855633895E+02  0.12289666586E+02  0.38724773084E+02  0.00000000000E+00 0. -1.
        -12    1    3    3    0    0 -0.40877677305E+02  0.19810077661E+02 -0.13567592054E+02  0.47407839361E+02  0.00000000000E+00 0.  1.
        -13    1    4    4    0    0  0.59093581115E+02 -0.22037056843E+02  0.29589874409E+02  0.69665227128E+02  0.00000000000E+00 0.  1.
         13    1    4    4    0    0  0.64735868319E+02  0.51256691236E+02 -0.28836448698E+02  0.87461544790E+02  0.00000000000E+00 0. -1.
         -1    1    1    2    0  502 -0.10433431806E+03 -0.19174078159E+02 -0.12713061341E+03  0.16557623037E+03  0.00000000000E+00 0.  1.
<scales pt_clust_5="13000.00000" pt_clust_6="13000.00000" pt_clust_7="13000.00000" pt_clust_8="13000.00000" pt_clust_9="119.83420"></scales>
<clustering>
<clus scale="   83.284">  5  6 -1 -1</clus>
<clus scale="   86.123">  2  5  1 -1</clus>
<clus scale="   92.199">  7  8 -1 -1</clus>
<clus scale="  119.834">  1  9  2 -1</clus>
<clus scale="  119.834">  1  5  2 -1</clus>
</clustering>
</event>
<event>
 9    1  0.4067873E-005  0.9655169E+02  0.7546771E-02  0.1296218E+00
         21   -1    0    0  501  502  0.00000000000E+00  0.00000000000E+00  0.38467428291E+02  0.38467428291E+02  0.00000000000E+00 0. -1.
         -2   -1    0    0    0  501 -0.00000000000E+00 -0.00000000000E+00 -0.32868805115E+03  0.32868805115E+03  0.00000000000E+00 0.  1.
        -24    2    1    2    0    0  0.24353355991E+02 -0.18841051985E+02 -0.11357161961E+03  0.14250491131E+03  0.80380755028E+02 0.  0.
         23    2    1    2    0    0 -0.10032221117E+02 -0.19321365205E+02 -0.11372167009E+03  0.14967514384E+03  0.94847613677E+02 0.  0.
         11    1    3    3    0    0  0.29489538971E+02  0.10602787037E+02 -0.73904966595E+01  0.32197382542E+02  0.00000000000E+00 0. -1.
        -12    1    3    3    0    0 -0.51361829796E+01 -0.29443839022E+02 -0.10618112295E+03  0.11030752877E+03  0.00000000000E+00 0.  1.
        -13    1    4    4    0    0  0.91210671966E+01 -0.43587648293E+02 -0.16226308160E+02  0.47395886182E+02  0.00000000000E+00 0. -1.
         13    1    4    4    0    0 -0.19153288314E+02  0.24266283088E+02 -0.97495361932E+02  0.10227925765E+03  0.00000000000E+00 0.  1.
         -1    1    1    2    0  502 -0.14321134874E+02  0.38162417190E+02 -0.62927333155E+02  0.74975424292E+02  0.00000000000E+00 0.  1.
<scales pt_clust_5="13000.00000" pt_clust_6="13000.00000" pt_clust_7="13000.00000" pt_clust_8="13000.00000" pt_clust_9="40.76109"></scales>
<clustering>
<clus scale="   40.761">  1  9  2 -1</clus>
<clus scale="   80.381">  5  6 -1 -1</clus>
<clus scale="   82.385">  2  5  1 -1</clus>
<clus scale="   94.848">  7  8 -1 -1</clus>
<clus scale="   40.761">  1  5  2 -1</clus>
</clustering>
</event>
<event>
 9    1  0.4067873E-005  0.9963873E+02  0.7546771E-02  0.1287208E+00
         21   -1    0    0  501  502  0.00000000000E+00  0.00000000000E+00  0.18520000007E+03  0.18520000007E+03  0.00000000000E+00 0. -1.
         -4   -1    0    0    0  501 -0.00000000000E+00 -0.00000000000E+00 -0.13920501436E+03  0.13920501436E+03  0.00000000000E+00 0.  1.
        -24    2    1    2    0    0  0.37503329541E+02  0.33723291136E+01 -0.92737710331E+02  0.12811732457E+03  0.79974330933E+02 0.  0.
         23    2    1    2    0    0 -0.45564260538E+02  0.23246792316E+02  0.12976006888E+03  0.16706331181E+03  0.91956291170E+02 0.  0.
         13    1    3    3    0    0  0.26103879872E+02  0.27975070108E+02 -0.79237086829E+01  0.39074317028E+02  0.00000000000E+00 0. -1.
        -14    1    3    3    0    0  0.11399449669E+02 -0.24602740994E+02 -0.84814001649E+02  0.89043007546E+02  0.00000000000E+00 0.  1.
        -13    1    4    4    0    0 -0.27235911949E+02 -0.34799214466E+02  0.49999233790E+02  0.66728581633E+02  0.00000000000E+00 0.  1.
         13    1    4    4    0    0 -0.18328348588E+02  0.58046006783E+02  0.79760835085E+02  0.10033473017E+03  0.00000000000E+00 0. -1.
         -3    1    1    2    0  502  0.80609309970E+01 -0.26619121430E+02  0.89726271680E+01  0.29224378052E+02  0.00000000000E+00 0.  1.
<scales pt_clust_5="13000.00000" pt_clust_6="13000.00000" pt_clust_7="13000.00000" pt_clust_8="13000.00000" pt_clust_9="27.81288"></scales>
<clustering>
<clus scale="   27.813">  1  9  2 -1</clus>
<clus scale="   79.974">  5  6 -1 -1</clus>
<clus scale="   88.701">  2  5  1 -1</clus>
<clus scale="   91.956">  7  8 -1 -1</clus>
<clus scale="   27.813">  1  5  2 -1</clus>
</clustering>
</event>
<event>
 9    1  0.4067873E-005  0.9049612E+02  0.7546771E-02  0.1324147E+00
         21   -1    0    0  501  502  0.00000000000E+00  0.00000000000E+00  0.34282962858E+03  0.34282962858E+03  0.00000000000E+00 0.  1.
          1   -1    0    0  502    0 -0.00000000000E+00 -0.00000000000E+00 -0.52703197304E+02  0.52703197304E+02  0.00000000000E+00 0. -1.
        -24    2    1    2    0    0 -0.14946519870E+02 -0.21400367926E+02  0.60580615752E+02  0.87651670298E+02  0.57718542060E+02 0.  0.
         23    2    1    2    0    0 -0.23323999124E+02 -0.15185785230E+01  0.24422349114E+03  0.26092005581E+03  0.88813551225E+02 0.  0.
         13    1    3    3    0    0 -0.22757974105E+02  0.14165021999E+02  0.22960327386E+02  0.35295181927E+02  0.00000000000E+00 0. -1.
        -14    1    3    3    0    0  0.78114542344E+01 -0.35565389925E+02  0.37620288366E+02  0.52356488370E+02  0.00000000000E+00 0.  1.
        -11    1    4    4    0    0 -0.47419546368E+02  0.25793929557E+02  0.12254803943E+03  0.13391027648E+03  0.00000000000E+00 0.  1.
         11    1    4    4    0    0  0.24095547244E+02 -0.27312508080E+02  0.12167545171E+03  0.12700977933E+03  0.00000000000E+00 0. -1.
          2    1    1    2  501    0  0.38270518994E+02  0.22918946449E+02 -0.14677675622E+02  0.46961099775E+02  0.00000000000E+00 0. -1.
<scales pt_clust_5="13000.00000" pt_clust_6="13000.00000" pt_clust_7="13000.00000" pt_clust_8="13000.00000" pt_clust_9="44.60844"></scales>
<clustering>
<clus scale="   44.608">  1  9  2 -1</clus>
<clus scale="   57.719">  5  6 -1 -1</clus>
<clus scale="   60.275">  2  5  1 -1</clus>
<clus scale="   88.814">  7  8 -1 -1</clus>
<clus scale="   44.608">  1  5  2 -1</clus>
</clustering>
</event>
<event>
 9    1  0.4067873E-005  0.5395366E+03  0.7546771E-02  0.1063938E+00
         21   -1    0    0  501  502  0.00000000000E+00  0.00000000000E+00  0.35483426685E+03  0.35483426685E+03  0.00000000000E+00 0. -1.
          1   -1    0    0  502    0 -0.00000000000E+00 -0.00000000000E+00 -0.11627437992E+04  0.11627437992E+04  0.00000000000E+00 0. -1.
        -24    2    1    2    0    0  0.14517811159E+02  0.42154494515E+02 -0.10790393332E+03  0.14186109170E+03  0.80582518352E+02 0.  0.
         23    2    1    2    0    0 -0.20070032992E+03  0.48283265766E+03 -0.69542868738E+02  0.53443301840E+03  0.85874576125E+02 0.  0.
         13    1    3    3    0    0  0.21787882017E+02  0.62604789361E+02 -0.97224417012E+02  0.11767182635E+03  0.00000000000E+00 0. -1.
        -14    1    3    3    0    0 -0.72700708582E+01 -0.20450294846E+02 -0.10679516310E+02  0.24189265350E+02  0.00000000000E+00 0.  1.
        -11    1    4    4    0    0 -0.60925246723E+02  0.64140106779E+02 -0.99749356197E+01  0.89024369285E+02  0.00000000000E+00 0.  1.
         11    1    4    4    0    0 -0.13977508320E+03  0.41869255088E+03 -0.59567933118E+02  0.44540864911E+03  0.00000000000E+00 0. -1.
          2    1    1    2  501    0  0.18618251876E+03 -0.52498715218E+03 -0.63046273025E+03  0.84128395591E+03  0.00000000000E+00 0. -1.
<scales pt_clust_5="13000.00000" pt_clust_6="13000.00000" pt_clust_7="13000.00000" pt_clust_8="13000.00000" pt_clust_9="532.65895"></scales>
<clustering>
<clus scale="   80.583">  5  6 -1 -1</clus>
<clus scale="   85.875">  7  8 -1 -1</clus>
<clus scale="   92.094">  2  5  1 -1</clus>
<clus scale="  532.659">  1  9  2 -1</clus>
<clus scale="  532.659">  1  5  2 -1</clus>
</clustering>
</event>
<event>
 9    1  0.4067873E-005  0.1763111E+03  0.7546771E-02  0.1194511E+00
         21   -1    0    0  501  502  0.00000000000E+00  0.00000000000E+00  0.14026937568E+03  0.14026937568E+03  0.00000000000E+00 0. -1.
          1   -1    0    0  502    0 -0.00000000000E+00 -0.00000000000E+00 -0.40784975505E+03  0.40784975505E+03  0.00000000000E+00 0. -1.
        -24    2    1    2    0    0 -0.53818188769E+02  0.37878068135E+02 -0.15822891621E+03  0.19000804084E+03  0.82070214868E+02 0.  0.
         23    2    1    2    0    0 -0.12623602907E+03 -0.20570999336E+02 -0.35340673599E+02  0.16267144969E+03  0.94097482890E+02 0.  0.
         11    1    3    3    0    0 -0.26341930065E+02 -0.10588384806E+01 -0.13395908257E+03  0.13652858390E+03  0.00000000000E+00 0. -1.
        -12    1    3    3    0    0 -0.27476258704E+02  0.38936906616E+02 -0.24269833641E+02  0.53479456936E+02  0.00000000000E+00 0.  1.
        -11    1    4    4    0    0 -0.71570672152E+02  0.26442225318E+02  0.10816085298E+02  0.77061923758E+02  0.00000000000E+00 0. -1.
         11    1    4    4    0    0 -0.54665356917E+02 -0.47013224654E+02 -0.46156758896E+02  0.85609525936E+02  0.00000000000E+00 0.  1.
          2    1    1    2  501    0  0.18005421784E+03 -0.17307068800E+02 -0.74010789558E+02  0.19543964020E+03  0.00000000000E+00 0. -1.
<scales pt_clust_5="13000.00000" pt_clust_6="13000.00000" pt_clust_7="13000.00000" pt_clust_8="13000.00000" pt_clust_9="149.10163"></scales>
<clustering>
<clus scale="   82.070">  5  6 -1 -1</clus>
<clus scale="   94.097">  7  8 -1 -1</clus>
<clus scale="  105.198">  2  5  1 -1</clus>
<clus scale="  149.102">  1  9  2 -1</clus>
<clus scale="  149.102">  1  5  2 -1</clus>
</clustering>
</event>
<event>
 9    1  0.4067873E-005  0.1503263E+03  0.7546771E-02  0.1201651E+00
         21   -1    0    0  501  502  0.00000000000E+00  0.00000000000E+00  0.42241453515E+03  0.42241453515E+03  0.00000000000E+00 0. -1.
          3   -1    0    0  502    0 -0.00000000000E+00 -0.00000000000E+00 -0.10398258924E+03  0.10398258924E+03  0.00000000000E+00 0. -1.
        -24    2    1    2    0    0 -0.71779476912E+02 -0.82366633266E+02  0.33090264782E+02  0.15200499075E+03  0.10036929813E+03 0.  0.
         23    2    1    2    0    0  0.12999854872E+02  0.13441664166E+03  0.18742052788E+03  0.24888197631E+03  0.92622643439E+02 0.  0.
         13    1    3    3    0    0 -0.78993542880E+02 -0.34366261174E+02 -0.10477974081E+02  0.86780226231E+02  0.00000000000E+00 0. -1.
        -14    1    3    3    0    0  0.72140659689E+01 -0.48000372092E+02  0.43568238863E+02  0.65224764518E+02  0.00000000000E+00 0.  1.
        -11    1    4    4    0    0 -0.22233275526E+02  0.88092595979E+02  0.16121531804E+03  0.18505405366E+03  0.00000000000E+00 0. -1.
         11    1    4    4    0    0  0.35233130398E+02  0.46324045686E+02  0.26205209839E+02  0.63827922644E+02  0.00000000000E+00 0.  1.
          4    1    1    2  501    0  0.58779622039E+02 -0.52050008398E+02  0.97921153246E+02  0.12551015734E+03  0.00000000000E+00 0. -1.
<scales pt_clust_5="13000.00000" pt_clust_6="13000.00000" pt_clust_7="13000.00000" pt_clust_8="13000.00000" pt_clust_9="78.51272"></scales>
<clustering>
<clus scale="   78.513">  1  9  2 -1</clus>
<clus scale="   92.623">  7  8 -1 -1</clus>
<clus scale="  100.369">  5  6 -1 -1</clus>
<clus scale="  145.269">  1  7  2 -1</clus>
<clus scale="   78.513">  1  5  2 -1</clus>
</clustering>
</event>
<event>
 9    1  0.4067873E-005  0.1016789E+03  0.7546771E-02  0.1283558E+00
         21   -1    0    0  501  502  0.00000000000E+00  0.00000000000E+00  0.28679351739E+02  0.28679351739E+02  0.00000000000E+00 0. -1.
          1   -1    0    0  502    0 -0.00000000000E+00 -0.00000000000E+00 -0.96416535803E+03  0.96416535803E+03  0.00000000000E+00 0. -1.
        -24    2    1    2    0    0 -0.29141133171E+02  0.24674817447E+02 -0.64549151974E+03  0.65154837277E+03  0.79987047432E+02 0.  0.
         23    2    1    2    0    0  0.61093861013E+02 -0.93203882744E+01 -0.10716794827E+03  0.15506455020E+03  0.93491796969E+02 0.  0.
         11    1    3    3    0    0 -0.50541478321E+02  0.16682986044E+02 -0.26060083986E+03  0.26598037670E+03  0.00000000000E+00 0. -1.
        -12    1    3    3    0    0  0.21400345150E+02  0.79918314032E+01 -0.38489067987E+03  0.38556799607E+03  0.00000000000E+00 0.  1.
        -11    1    4    4    0    0  0.77279324566E+02  0.16327957415E+02 -0.91674601800E+02  0.12100797004E+03  0.00000000000E+00 0.  1.
         11    1    4    4    0    0 -0.16185463553E+02 -0.25648345689E+02 -0.15493346473E+02  0.34056580156E+02  0.00000000000E+00 0. -1.
          2    1    1    2  501    0 -0.31952727842E+02 -0.15354429172E+02 -0.18282653828E+03  0.18623178679E+03  0.00000000000E+00 0. -1.
<scales pt_clust_5="13000.00000" pt_clust_6="13000.00000" pt_clust_7="13000.00000" pt_clust_8="13000.00000" pt_clust_9="35.45048"></scales>
<clustering>
<clus scale="   35.450">  1  9  2 -1</clus>
<clus scale="   79.987">  5  6 -1 -1</clus>
<clus scale="   89.419">  2  5  1 -1</clus>
<clus scale="   93.492">  7  8 -1 -1</clus>
<clus scale="   35.450">  1  5  2 -1</clus>
</clustering>
</event>
<event>
 9    1  0.4067873E-005  0.9897117E+02  0.7546771E-02  0.1286259E+00
          1   -1    0    0  502    0 -0.00000000000E+00  0.00000000000E+00  0.27157846698E+03  0.27157846698E+03  0.00000000000E+00 0. -1.
         21   -1    0    0  501  502  0.00000000000E+00 -0.00000000000E+00 -0.45665020513E+02  0.45665020513E+02  0.00000000000E+00 0. -1.
         23    2    1    2    0    0 -0.32665001486E+02  0.41177719109E+02  0.12366622063E+03  0.16168125445E+03  0.89915999920E+02 0.  0.
        -24    2    1    2    0    0  0.29043085103E+02 -0.12532369219E+02  0.73438524325E+02  0.11477478851E+03  0.82337562223E+02 0.  0.
         13    1    4    4    0    0  0.42339524914E+02  0.24012519471E+02  0.33899788185E+02  0.59316372953E+02  0.00000000000E+00 0. -1.
        -14    1    4    4    0    0 -0.13296439811E+02 -0.36544888690E+02  0.39538736140E+02  0.55458415561E+02  0.00000000000E+00 0.  1.
        -11    1    3    3    0    0 -0.32920185943E+02  0.73694646593E+01  0.26882798422E+00  0.33736032967E+02  0.00000000000E+00 0.  1.
         11    1    3    3    0    0  0.25518445641E+00  0.33808254450E+02  0.12339739264E+03  0.12794522148E+03  0.00000000000E+00 0. -1.
          2    1    1    2  501    0  0.36219163827E+01 -0.28645349890E+02  0.28808701517E+02  0.40787444535E+02  0.00000000000E+00 0. -1.
<scales pt_clust_5="13000.00000" pt_clust_6="13000.00000" pt_clust_7="13000.00000" pt_clust_8="13000.00000" pt_clust_9="28.87342"></scales>
<clustering>
<clus scale="   28.873">  2  9  1 -1</clus>
<clus scale="   82.338">  5  6 -1 -1</clus>
<clus scale="   89.916">  7  8 -1 -1</clus>
<clus scale="   92.141">  2  5  1 -1</clus>
<clus scale="   28.873">  2  5  1 -1</clus>
</clustering>
</event>
<event>
 9    1  0.4067873E-005  0.1018536E+03  0.7546771E-02  0.1284727E+00
         21   -1    0    0  501  502  0.00000000000E+00  0.00000000000E+00  0.12594027666E+03  0.12594027666E+03  0.00000000000E+00 0.  1.
          1   -1    0    0  502    0 -0.00000000000E+00 -0.00000000000E+00 -0.22830169187E+03  0.22830169187E+03  0.00000000000E+00 0. -1.
        -24    2    1    2    0    0 -0.23335093741E+02  0.70820247898E+01 -0.14568392757E+03  0.16871268290E+03  0.81519819336E+02 0.  0.
         23    2    1    2    0    0  0.75993078841E+02  0.12934795583E+02  0.28968979293E+02  0.12739529899E+03  0.97201355312E+02 0.  0.
         11    1    3    3    0    0 -0.52147022392E+02 -0.69965654951E+01 -0.98346098173E+02  0.11153572925E+03  0.00000000000E+00 0. -1.
        -12    1    3    3    0    0  0.28811928651E+02  0.14078590285E+02 -0.47337829393E+02  0.57176953650E+02  0.00000000000E+00 0.  1.
        -13    1    4    4    0    0  0.42797219046E+01 -0.36452723134E+02  0.12528937952E+02  0.38782616333E+02  0.00000000000E+00 0.  1.
         13    1    4    4    0    0  0.71713356936E+02  0.49387518716E+02  0.16440041342E+02  0.88612682655E+02  0.00000000000E+00 0. -1.
          2    1    1    2  501    0 -0.52657985100E+02 -0.20016820372E+02  0.14353533062E+02  0.58133986652E+02  0.00000000000E+00 0. -1.
<scales pt_clust_5="13000.00000" pt_clust_6="13000.00000" pt_clust_7="13000.00000" pt_clust_8="13000.00000" pt_clust_9="56.33415"></scales>
<clustering>
<clus scale="   56.334">  1  9  2 -1</clus>
<clus scale="   81.520">  5  6 -1 -1</clus>
<clus scale="   87.015">  2  5  1 -1</clus>
<clus scale="   97.201">  7  8 -1 -1</clus>
<clus scale="   56.334">  1  5  2 -1</clus>
</clustering>
</event>
<event>
 9    1  0.4067873E-005  0.9299123E+02  0.7546771E-02  0.1303263E+00
         21   -1    0    0  501  502  0.00000000000E+00  0.00000000000E+00  0.77810738848E+02  0.77810738848E+02  0.00000000000E+00 0. -1.
          3   -1    0    0  502    0 -0.00000000000E+00 -0.00000000000E+00 -0.25487766542E+03  0.25487766542E+03  0.00000000000E+00 0. -1.
        -24    2    1    2    0    0 -0.22568472634E+02  0.32175115820E+02 -0.75113494812E+02  0.11612359412E+03  0.79360430781E+02 0.  0.
         23    2    1    2    0    0  0.74366203231E+01  0.46146707537E+02 -0.88505160765E+02  0.13566896995E+03  0.91586483647E+02 0.  0.
         11    1    3    3    0    0 -0.11343252256E+02  0.57134631777E+02 -0.64126931981E+02  0.86633128337E+02  0.00000000000E+00 0. -1.
        -12    1    3    3    0    0 -0.11225220378E+02 -0.24959515957E+02 -0.10986562830E+02  0.29490465784E+02  0.00000000000E+00 0.  1.
        -13    1    4    4    0    0 -0.23123622639E+02 -0.24190157613E+01 -0.72443004622E+02  0.76082471568E+02  0.00000000000E+00 0.  1.
         13    1    4    4    0    0  0.30560242962E+02  0.48565723298E+02 -0.16062156143E+02  0.59586498381E+02  0.00000000000E+00 0. -1.
          4    1    1    2  501    0  0.15131852311E+02 -0.78321823357E+02 -0.13448270995E+02  0.80895840197E+02  0.00000000000E+00 0. -1.
<scales pt_clust_5="13000.00000" pt_clust_6="13000.00000" pt_clust_7="13000.00000" pt_clust_8="13000.00000" pt_clust_9="79.77018"></scales>
<clustering>
<clus scale="   79.360">  5  6 -1 -1</clus>
<clus scale="   79.770">  1  9  2 -1</clus>
<clus scale="   80.978">  2  5  1 -1</clus>
<clus scale="   91.586">  7  8 -1 -1</clus>
<clus scale="   79.770">  1  5  2 -1</clus>
</clustering>
</event>
<event>
 9    1  0.4067873E-005  0.1060087E+03  0.7546771E-02  0.1273355E+00
          3   -1    0    0  502    0 -0.00000000000E+00  0.00000000000E+00  0.32343769157E+02  0.32343769157E+02  0.00000000000E+00 0. -1.
         21   -1    0    0  501  502  0.00000000000E+00 -0.00000000000E+00 -0.44740905081E+03  0.44740905081E+03  0.00000000000E+00 0.  1.
         23    2    1    2    0    0  0.37156580074E+02 -0.18686275335E+02 -0.15998931856E+03  0.18877317286E+03  0.91153389453E+02 0.  0.
        -24    2    1    2    0    0 -0.62057490694E+02  0.21876182528E+02 -0.14331672225E+03  0.17643551251E+03  0.79120842286E+02 0.  0.
         11    1    4    4    0    0 -0.35056393568E+02  0.18321201264E+02 -0.10596663565E+02  0.40950047918E+02  0.00000000000E+00 0. -1.
        -12    1    4    4    0    0 -0.27001097126E+02  0.35549812643E+01 -0.13272005868E+03  0.13548546459E+03  0.00000000000E+00 0.  1.
        -11    1    3    3    0    0 -0.25459286169E+02  0.21919588318E+01 -0.85551654168E+02  0.89286423753E+02  0.00000000000E+00 0.  1.
         11    1    3    3    0    0  0.62615866243E+02 -0.20878234167E+02 -0.74437664393E+02  0.99486749105E+02  0.00000000000E+00 0. -1.
          4    1    1    2  501    0  0.24900910620E+02 -0.31899071930E+01 -0.11175924084E+03  0.11454413460E+03  0.00000000000E+00 0. -1.
<scales pt_clust_5="13000.00000" pt_clust_6="13000.00000" pt_clust_7="13000.00000" pt_clust_8="13000.00000" pt_clust_9="25.10440"></scales>
<clustering>
<clus scale="   25.104">  2  9  1 -1</clus>
<clus scale="   79.121">  5  6 -1 -1</clus>
<clus scale="   91.153">  7  8 -1 -1</clus>
<clus scale="   95.859">  2  5  1 -1</clus>
<clus scale="   25.104">  2  5  1 -1</clus>
</clustering>
</event>
<event>
 9    1  0.4067873E-005  0.2090387E+03  0.7546771E-02  0.1143143E+00
         21   -1    0    0  501  502  0.00000000000E+00  0.00000000000E+00  0.23666407893E+03  0.23666407893E+03  0.00000000000E+00 0. -1.
          3   -1    0    0  502    0 -0.00000000000E+00 -0.00000000000E+00 -0.34497081435E+03  0.34497081435E+03  0.00000000000E+00 0. -1.
         23    2    1    2    0    0 -0.16295719680E+03 -0.12377560126E+03 -0.64364130778E+02  0.23220699416E+03  0.88892628224E+02 0.  0.
        -24    2    1    2    0    0  0.89404453022E+02  0.14571081254E+03  0.79243389911E+02  0.20428676482E+03  0.78922559032E+02 0.  0.
         11    1    4    4    0    0  0.80751968869E+02  0.63799721880E+02  0.61959559281E+02  0.12012606701E+03  0.00000000000E+00 0. -1.
        -12    1    4    4    0    0  0.86524841532E+01  0.81911090656E+02  0.17283830630E+02  0.84160697809E+02  0.00000000000E+00 0.  1.
        -11    1    3    3    0    0 -0.20950268370E+02  0.72119649576E+01 -0.27857667273E+02  0.35594603653E+02  0.00000000000E+00 0.  1.
         11    1    3    3    0    0 -0.14200692843E+03 -0.13098756621E+03 -0.36506463505E+02  0.19661239051E+03  0.00000000000E+00 0. -1.
          4    1    1    2  501    0  0.73552743775E+02 -0.21935211279E+02 -0.12318599456E+03  0.14514113430E+03  0.00000000000E+00 0. -1.
<scales pt_clust_5="13000.00000" pt_clust_6="13000.00000" pt_clust_7="13000.00000" pt_clust_8="13000.00000" pt_clust_9="76.75393"></scales>
<clustering>
<clus scale="   76.754">  1  9  2 -1</clus>
<clus scale="   78.923">  5  6 -1 -1</clus>
<clus scale="   88.893">  7  8 -1 -1</clus>
<clus scale="  204.998">  1  5  2 -1</clus>
<clus scale="   76.754">  1  5  2 -1</clus>
</clustering>
</event>
<event>
 9    1  0.4067873E-005  0.1271089E+03  0.7546771E-02  0.1253597E+00
          1   -1    0    0  502    0 -0.00000000000E+00  0.00000000000E+00  0.63633150093E+03  0.63633150093E+03  0.00000000000E+00 0. -1.
         21   -1    0    0  501  502  0.00000000000E+00 -0.00000000000E+00 -0.71710779435E+02  0.71710779435E+02  0.00000000000E+00 0. -1.
        -24    2    1    2    0    0  0.97819824864E+01 -0.15945251828E+02  0.60112071520E+02  0.10152663702E+03  0.79650854645E+02 0.  0.
         23    2    1    2    0    0  0.43461962677E+02 -0.71641413351E+02  0.40823630404E+02  0.13163656506E+03  0.92952580142E+02 0.  0.
         13    1    3    3    0    0 -0.33650335193E+02  0.50271372635E-01  0.36221593121E+02  0.49440382219E+02  0.00000000000E+00 0. -1.
        -14    1    3    3    0    0  0.43432317679E+02 -0.15995523200E+02  0.23890478400E+02  0.52086254805E+02  0.00000000000E+00 0.  1.
        -11    1    4    4    0    0 -0.92571421726E+01  0.17858990429E+02  0.13513369614E+02  0.24233228812E+02  0.00000000000E+00 0.  1.
         11    1    4    4    0    0  0.52719104850E+02 -0.89500403780E+02  0.27310260790E+02  0.10740333625E+03  0.00000000000E+00 0. -1.
          2    1    1    2  501    0 -0.53243945164E+02  0.87586665179E+02  0.46368501957E+03  0.47487907828E+03  0.00000000000E+00 0. -1.
<scales pt_clust_5="13000.00000" pt_clust_6="13000.00000" pt_clust_7="13000.00000" pt_clust_8="13000.00000" pt_clust_9="86.69777"></scales>
<clustering>
<clus scale="   79.651">  5  6 -1 -1</clus>
<clus scale="   81.818">  1  5  2 -1</clus>
<clus scale="   86.698">  2  9  1 -1</clus>
<clus scale="   92.953">  7  8 -1 -1</clus>
<clus scale="   86.698">  2  5  1 -1</clus>
</clustering>
</event>
<event>
 9    1  0.4067873E-005  0.1016847E+03  0.7546771E-02  0.1281358E+00
         -2   -1    0    0    0  501 -0.00000000000E+00  0.00000000000E+00  0.28519262778E+03  0.28519262778E+03  0.00000000000E+00 0.  1.
         21   -1    0    0  501  502  0.00000000000E+00 -0.00000000000E+00 -0.75412366675E+02  0.75412366675E+02  0.00000000000E+00 0.  1.
         23    2    1    2    0    0 -0.47032589716E+01 -0.28840355340E+01  0.11923682958E+03  0.15091787041E+03  0.92349032344E+02 0.  0.
        -24    2    1    2    0    0 -0.32583431686E+02  0.41413525884E+02  0.11819109619E+02  0.11443830365E+03  0.10089436973E+03 0.  0.
         11    1    4    4    0    0  0.32754806627E+02  0.15374054127E+02  0.23491644219E+02  0.43140424727E+02  0.00000000000E+00 0. -1.
        -12    1    4    4    0    0 -0.65338238313E+02  0.26039471757E+02 -0.11672534600E+02  0.71297878925E+02  0.00000000000E+00 0.  1.
        -13    1    3    3    0    0  0.12458485584E+02 -0.44477990476E+02  0.47636465356E+02  0.66353133546E+02  0.00000000000E+00 0. -1.
         13    1    3    3    0    0 -0.17161744556E+02  0.41593954942E+02  0.71600364221E+02  0.84564736862E+02  0.00000000000E+00 0.  1.
         -1    1    1    2    0  502  0.37286690657E+02 -0.38529490350E+02  0.78724321912E+02  0.95248820399E+02  0.00000000000E+00 0.  1.
<scales pt_clust_5="13000.00000" pt_clust_6="13000.00000" pt_clust_7="13000.00000" pt_clust_8="13000.00000" pt_clust_9="53.61736"></scales>
<clustering>
<clus scale="   53.617">  2  9  1 -1</clus>
<clus scale="   92.349">  7  8 -1 -1</clus>
<clus scale="   93.212">  1  7  2 -1</clus>
<clus scale="  100.894">  5  6 -1 -1</clus>
<clus scale="   53.617">  2  5  1 -1</clus>
</clustering>
</event>
<event>
 9    1  0.4067873E-005  0.5192703E+03  0.7546771E-02  0.1065448E+00
         21   -1    0    0  501  502  0.00000000000E+00  0.00000000000E+00  0.46229549389E+03  0.46229549389E+03  0.00000000000E+00 0.  1.
         -2   -1    0    0    0  501 -0.00000000000E+00 -0.00000000000E+00 -0.83132482801E+03  0.83132482801E+03  0.00000000000E+00 0.  1.
        -24    2    1    2    0    0  0.25614820245E+01 -0.58236768805E+02  0.68757080448E+02  0.12058775501E+03  0.80098614941E+02 0.  0.
         23    2    1    2    0    0  0.17278857484E+03  0.50104455358E+03 -0.17636094756E+02  0.53793204891E+03  0.90323425170E+02 0.  0.
         11    1    3    3    0    0  0.24460129526E+02 -0.34723774807E+02 -0.23698139585E+01  0.42540033985E+02  0.00000000000E+00 0. -1.
        -12    1    3    3    0    0 -0.21898647502E+02 -0.23512993998E+02  0.71126894407E+02  0.78047721024E+02  0.00000000000E+00 0.  1.
        -13    1    4    4    0    0  0.14390871349E+03  0.46110763544E+03 -0.38153717040E+02  0.48454687638E+03  0.00000000000E+00 0.  1.
         13    1    4    4    0    0  0.28879861348E+02  0.39936918138E+02  0.20517622284E+02  0.53385172530E+02  0.00000000000E+00 0. -1.
         -1    1    1    2    0  502 -0.17535005686E+03 -0.44280778478E+03 -0.42015031982E+03  0.63510051798E+03  0.00000000000E+00 0.  1.
<scales pt_clust_5="13000.00000" pt_clust_6="13000.00000" pt_clust_7="13000.00000" pt_clust_8="13000.00000" pt_clust_9="511.35468"></scales>
<clustering>
<clus scale="   80.099">  5  6 -1 -1</clus>
<clus scale="   90.323">  7  8 -1 -1</clus>
<clus scale="   99.065">  2  5  1 -1</clus>
<clus scale="  511.355">  1  9  2 -1</clus>
<clus scale="  511.355">  1  5  2 -1</clus>
</clustering>
</event>
<event>
 9    1  0.4067873E-005  0.8964647E+02  0.7546771E-02  0.1309173E+00
          1   -1    0    0  502    0 -0.00000000000E+00  0.00000000000E+00  0.34753786715E+02  0.34753786715E+02  0.00000000000E+00 0. -1.
         21   -1    0    0  501  502  0.00000000000E+00 -0.00000000000E+00 -0.82762982763E+03  0.82762982763E+03  0.00000000000E+00 0.  1.
         23    2    1    2    0    0 -0.29100781835E+01 -0.13410954521E+02 -0.40168753164E+02  0.98378073131E+02  0.88749052311E+02 0.  0.
        -24    2    1    2    0    0 -0.26292329876E+02  0.51641466781E+01 -0.67984352681E+03  0.68507571076E+03  0.80147074268E+02 0.  0.
         11    1    4    4    0    0  0.16386828026E+02  0.26434648831E+02 -0.15626075371E+03  0.15932589853E+03  0.00000000000E+00 0. -1.
        -12    1    4    4    0    0 -0.42679157901E+02 -0.21270502153E+02 -0.52358277310E+03  0.52574981223E+03  0.00000000000E+00 0.  1.
        -13    1    3    3    0    0  0.28766288807E+02  0.12827527205E+02 -0.47105193836E+02  0.56665193128E+02  0.00000000000E+00 0.  1.
         13    1    3    3    0    0 -0.31676366990E+02 -0.26238481726E+02  0.69364406723E+01  0.41712880003E+02  0.00000000000E+00 0. -1.
          2    1    1    2  501    0  0.29202408059E+02  0.82468078425E+01 -0.72863760940E+02  0.78929830447E+02  0.00000000000E+00 0. -1.
<scales pt_clust_5="13000.00000" pt_clust_6="13000.00000" pt_clust_7="13000.00000" pt_clust_8="13000.00000" pt_clust_9="30.34453"></scales>
<clustering>
<clus scale="   30.345">  2  9  1 -1</clus>
<clus scale="   80.147">  5  6 -1 -1</clus>
<clus scale="   81.140">  2  5  1 -1</clus>
<clus scale="   88.749">  7  8 -1 -1</clus>
<clus scale="   30.345">  2  5  1 -1</clus>
</clustering>
</event>
<event>
 9    1  0.4067873E-005  0.1164847E+03  0.7546771E-02  0.1269022E+00
          1   -1    0    0  502    0 -0.00000000000E+00  0.00000000000E+00  0.25397502987E+03  0.25397502987E+03  0.00000000000E+00 0. -1.
         21   -1    0    0  501  502  0.00000000000E+00 -0.00000000000E+00 -0.12860775923E+03  0.12860775923E+03  0.00000000000E+00 0. -1.
        -24    2    1    2    0    0 -0.20037608919E+02 -0.72148855738E+01  0.13809271457E+03  0.15971598554E+03  0.77369489302E+02 0.  0.
         23    2    1    2    0    0 -0.74315059143E+01 -0.24915483209E+02  0.64387133872E+02  0.13492783311E+03  0.11568841150E+03 0.  0.
         13    1    3    3    0    0 -0.15591885102E+02 -0.35862033516E+02  0.11834651424E+03  0.12463984019E+03  0.00000000000E+00 0. -1.
        -14    1    3    3    0    0 -0.44457238176E+01  0.28647147942E+02  0.19746200331E+02  0.35076145355E+02  0.00000000000E+00 0.  1.
        -11    1    4    4    0    0 -0.50760270442E+02 -0.33702179469E+02  0.67097674425E+02  0.90634098823E+02  0.00000000000E+00 0. -1.
         11    1    4    4    0    0  0.43328764528E+02  0.87866962600E+01 -0.27105405524E+01  0.44293734283E+02  0.00000000000E+00 0.  1.
          2    1    1    2  501    0  0.27469114833E+02  0.32130368783E+02 -0.77112577805E+02  0.87938970449E+02  0.00000000000E+00 0. -1.
<scales pt_clust_5="13000.00000" pt_clust_6="13000.00000" pt_clust_7="13000.00000" pt_clust_8="13000.00000" pt_clust_9="42.27189"></scales>
<clustering>
<clus scale="   42.272">  2  9  1 -1</clus>
<clus scale="   77.369">  5  6 -1 -1</clus>
<clus scale="   78.555">  1  5  2 -1</clus>
<clus scale="  115.688">  7  8 -1 -1</clus>
<clus scale="   42.272">  2  5  1 -1</clus>
</clustering>
</event>
<event>
 9    1  0.4067873E-005  0.9225917E+02  0.7546771E-02  0.1303449E+00
         21   -1    0    0  501  502  0.00000000000E+00  0.00000000000E+00  0.22323534000E+03  0.22323534000E+03  0.00000000000E+00 0. -1.
          3   -1    0    0  502    0 -0.00000000000E+00 -0.00000000000E+00 -0.26070661555E+03  0.26070661555E+03  0.00000000000E+00 0. -1.
         23    2    1    2    0    0 -0.80664841972E+01 -0.12903273001E+02 -0.23493858921E+03  0.25232138409E+03  0.90765508575E+02 0.  0.
        -24    2    1    2    0    0  0.33062480788E+02  0.27989676935E+02  0.15213848413E+03  0.17770302130E+03  0.80967251250E+02 0.  0.
         13    1    4    4    0    0  0.88225092994E+01  0.52926296816E+02  0.67709184457E+02  0.86391916432E+02  0.00000000000E+00 0. -1.
        -14    1    4    4    0    0  0.24239971488E+02 -0.24936619881E+02  0.84429299669E+02  0.91311104864E+02  0.00000000000E+00 0.  1.
        -11    1    3    3    0    0 -0.38400091281E+02  0.10814258493E+02 -0.52908361641E+02  0.66263186828E+02  0.00000000000E+00 0. -1.
         11    1    3    3    0    0  0.30333607084E+02 -0.23717531494E+02 -0.18203022757E+03  0.18605819726E+03  0.00000000000E+00 0.  1.
          4    1    1    2  501    0 -0.24995996590E+02 -0.15086403934E+02  0.45328829528E+02  0.53917550163E+02  0.00000000000E+00 0. -1.
<scales pt_clust_5="13000.00000" pt_clust_6="13000.00000" pt_clust_7="13000.00000" pt_clust_8="13000.00000" pt_clust_9="29.19588"></scales>
<clustering>
<clus scale="   29.196">  1  9  2 -1</clus>
<clus scale="   80.967">  5  6 -1 -1</clus>
<clus scale="   82.638">  1  5  2 -1</clus>
<clus scale="   90.766">  7  8 -1 -1</clus>
<clus scale="   29.196">  1  5  2 -1</clus>
</clustering>
</event>
<event>
 9    1  0.6888547E-005  0.9276090E+02  0.7546771E-02  0.1301114E+00
          1   -1    0    0  502    0 -0.00000000000E+00  0.00000000000E+00  0.43650988454E+03  0.43650988454E+03  0.00000000000E+00 0. -1.
         21   -1    0    0  501  502  0.00000000000E+00 -0.00000000000E+00 -0.88607241717E+02  0.88607241717E+02  0.00000000000E+00 0. -1.
         23    2    1    2    0    0  0.20063337168E+02  0.66251924698E+01  0.31546041627E+03  0.32930945912E+03  0.92103284183E+02 0.  0.
        -24    2    1    2    0    0  0.12267796891E+02  0.19852087304E+02  0.89525785014E+02  0.12506248200E+03  0.84149593051E+02 0.  0.
         11    1    4    4    0    0  0.48433043641E+02  0.15206495863E+02  0.55022930945E+02  0.74863343249E+02  0.00000000000E+00 0. -1.
        -12    1    4    4    0    0 -0.36165246750E+02  0.46455914410E+01  0.34502854069E+02  0.50199138750E+02  0.00000000000E+00 0.  1.
        -11    1    3    3    0    0 -0.32643916639E+02 -0.58172951753E+01  0.63956717402E+02  0.72041154332E+02  0.00000000000E+00 0.  1.
         11    1    3    3    0    0  0.52707253807E+02  0.12442487645E+02  0.25150369887E+03  0.25726830479E+03  0.00000000000E+00 0. -1.
          2    1    1    2  501    0 -0.32331134059E+02 -0.26477279774E+02 -0.57083558462E+02  0.70745185140E+02  0.00000000000E+00 0. -1.
<scales pt_clust_5="13000.00000" pt_clust_6="13000.00000" pt_clust_7="13000.00000" pt_clust_8="13000.00000" pt_clust_9="41.78934"></scales>
<clustering>
<clus scale="   41.789">  2  9  1 -1</clus>
<clus scale="   84.150">  5  6 -1 -1</clus>
<clus scale="   84.869">  2  5  1 -1</clus>
<clus scale="   92.103">  7  8 -1 -1</clus>
<clus scale="   41.789">  2  5  1 -1</clus>
</clustering>
</event>
<event>
 9    1  0.4067873E-005  0.8696210E+02  0.7546771E-02  0.1312328E+00
         21   -1    0    0  501  502  0.00000000000E+00  0.00000000000E+00  0.47496796310E+03  0.47496796310E+03  0.00000000000E+00 0.  1.
         -2   -1    0    0    0  501 -0.00000000000E+00 -0.00000000000E+00 -0.54051805111E+02  0.54051805111E+02  0.00000000000E+00 0.  1.
         23    2    1    2    0    0  0.64589339010E+01  0.81965848570E+01  0.89239457583E+02  0.12405517817E+03  0.85540076047E+02 0.  0.
        -24    2    1    2    0    0 -0.44435556713E+02  0.34874774094E+02  0.33284321854E+03  0.34753004811E+03  0.82472769102E+02 0.  0.
         13    1    4    4    0    0  0.16122614002E+02 -0.12576821726E+02  0.10716881988E+03  0.10910211309E+03  0.00000000000E+00 0. -1.
        -14    1    4    4    0    0 -0.60558170715E+02  0.47451595819E+02  0.22567439866E+03  0.23842793502E+03  0.00000000000E+00 0.  1.
        -13    1    3    3    0    0  0.15443978284E+02  0.42569062708E+02  0.70758581370E+02  0.84008442449E+02  0.00000000000E+00 0. -1.
         13    1    3    3    0    0 -0.89850443832E+01 -0.34372477851E+02  0.18480876212E+02  0.40046735719E+02  0.00000000000E+00 0.  1.
         -1    1    1    2    0  502  0.37976622812E+02 -0.43071358950E+02 -0.11665181369E+01  0.57434541929E+02  0.00000000000E+00 0.  1.
<scales pt_clust_5="13000.00000" pt_clust_6="13000.00000" pt_clust_7="13000.00000" pt_clust_8="13000.00000" pt_clust_9="57.42272"></scales>
<clustering>
<clus scale="   57.423">  1  9  2 -1</clus>
<clus scale="   82.473">  5  6 -1 -1</clus>
<clus scale="   83.947">  1  5  2 -1</clus>
<clus scale="   85.540">  7  8 -1 -1</clus>
<clus scale="   57.423">  1  5  2 -1</clus>
</clustering>
</event>
<event>
 9    1  0.4067873E-005  0.1184877E+03  0.7546771E-02  0.1249327E+00
         -4   -1    0    0    0  501 -0.00000000000E+00  0.00000000000E+00  0.37388314434E+03  0.37388314434E+03  0.00000000000E+00 0.  1.
         21   -1    0    0  501  502  0.00000000000E+00 -0.00000000000E+00 -0.31551537964E+03  0.31551537964E+03  0.00000000000E+00 0.  1.
        -24    2    1    2    0    0 -0.77145534071E+02  0.81129189523E+01  0.34408246095E+03  0.36154143394E+03  0.79386495307E+02 0.  0.
         23    2    1    2    0    0  0.51299673483E+02 -0.16648599653E+02 -0.11973188239E+03  0.15965732533E+03  0.90806968350E+02 0.  0.
         11    1    3    3    0    0 -0.90836556129E+01 -0.29397653175E+02  0.66282043926E+02  0.73075605769E+02  0.00000000000E+00 0. -1.
        -12    1    3    3    0    0 -0.68061878458E+02  0.37510572127E+02  0.27780041703E+03  0.28846582817E+03  0.00000000000E+00 0.  1.
        -13    1    4    4    0    0 -0.14248116408E+02 -0.16244578936E+02  0.16881790994E+01  0.21673604100E+02  0.00000000000E+00 0.  1.
         13    1    4    4    0    0  0.65547789891E+02 -0.40402071645E+00 -0.12142006149E+03  0.13798372123E+03  0.00000000000E+00 0. -1.
         -3    1    1    2    0  502  0.25845860588E+02  0.85356807004E+01 -0.16598281386E+03  0.16819976472E+03  0.00000000000E+00 0.  1.
<scales pt_clust_5="13000.00000" pt_clust_6="13000.00000" pt_clust_7="13000.00000" pt_clust_8="13000.00000" pt_clust_9="27.21886"></scales>
<clustering>
<clus scale="   27.219">  2  9  1 -1</clus>
<clus scale="   79.386">  5  6 -1 -1</clus>
<clus scale="   90.807">  7  8 -1 -1</clus>
<clus scale="  109.980">  1  5  2 -1</clus>
<clus scale="   27.219">  2  5  1 -1</clus>
</clustering>
</event>
<event>
 9    1  0.4067873E-005  0.9855324E+02  0.7546771E-02  0.1289568E+00
         21   -1    0    0  501  502  0.00000000000E+00  0.00000000000E+00  0.23256685937E+03  0.23256685937E+03  0.00000000000E+00 0. -1.
         -4   -1    0    0    0  501 -0.00000000000E+00 -0.00000000000E+00 -0.12187323062E+03  0.12187323062E+03  0.00000000000E+00 0.  1.
        -24    2    1    2    0    0  0.16531114022E+02 -0.35190942208E+02 -0.86482851485E+02  0.12395497670E+03  0.79836536141E+02 0.  0.
         23    2    1    2    0    0 -0.12424335885E+01  0.16060165373E+02  0.13792431533E+03  0.16637154672E+03  0.91634612712E+02 0.  0.
         11    1    3    3    0    0 -0.39247706533E+01 -0.32154925948E+02  0.26052440320E+01  0.32498159700E+02  0.00000000000E+00 0. -1.
        -12    1    3    3    0    0  0.20455884675E+02 -0.30360162600E+01 -0.89088095517E+02  0.91456816998E+02  0.00000000000E+00 0.  1.
        -13    1    4    4    0    0  0.31016073470E+02  0.64322052611E+00  0.85952489977E+01  0.32191440655E+02  0.00000000000E+00 0.  1.
         13    1    4    4    0    0 -0.32258507059E+02  0.15416944847E+02  0.12932906633E+03  0.13418010607E+03  0.00000000000E+00 0. -1.
         -3    1    1    2    0  502 -0.15288680433E+02  0.19130776835E+02  0.59252164902E+02  0.64113566562E+02  0.00000000000E+00 0.  1.
<scales pt_clust_5="13000.00000" pt_clust_6="13000.00000" pt_clust_7="13000.00000" pt_clust_8="13000.00000" pt_clust_9="24.48939"></scales>
<clustering>
<clus scale="   24.489">  1  9  2 -1</clus>
<clus scale="   79.837">  5  6 -1 -1</clus>
<clus scale="   87.691">  2  5  1 -1</clus>
<clus scale="   91.635">  7  8 -1 -1</clus>
<clus scale="   24.489">  1  5  2 -1</clus>
</clustering>
</event>
<event>
 9    1  0.4067873E-005  0.9159607E+02  0.7546771E-02  0.1305929E+00
         21   -1    0    0  501  502  0.00000000000E+00  0.00000000000E+00  0.20592204932E+03  0.20592204932E+03  0.00000000000E+00 0. -1.
          3   -1    0    0  502    0 -0.00000000000E+00 -0.00000000000E+00 -0.54094835504E+02  0.54094835504E+02  0.00000000000E+00 0. -1.
        -24    2    1    2    0    0  0.17400328239E+01  0.23109159579E+02  0.30364055710E+02  0.85920768695E+02  0.76963248654E+02 0.  0.
         23    2    1    2    0    0 -0.28218940461E+02 -0.18348066650E+02  0.76061690922E+02  0.12132212843E+03  0.88321672706E+02 0.  0.
         11    1    3    3    0    0 -0.26502487799E+02 -0.16814322215E+02  0.13827861816E+02  0.34297420507E+02  0.00000000000E+00 0. -1.
        -12    1    3    3    0    0  0.28242520622E+02  0.39923481794E+02  0.16536193894E+02  0.51623348188E+02  0.00000000000E+00 0.  1.
        -11    1    4    4    0    0 -0.50190262725E+02  0.87927358326E+01  0.18916819294E+02  0.54352743519E+02  0.00000000000E+00 0. -1.
         11    1    4    4    0    0  0.21971322265E+02 -0.27140802483E+02  0.57144871628E+02  0.66969384907E+02  0.00000000000E+00 0.  1.
          4    1    1    2  501    0  0.26478907637E+02 -0.47610929286E+01  0.45401467189E+02  0.52773987706E+02  0.00000000000E+00 0. -1.
<scales pt_clust_5="13000.00000" pt_clust_6="13000.00000" pt_clust_7="13000.00000" pt_clust_8="13000.00000" pt_clust_9="26.90354"></scales>
<clustering>
<clus scale="   26.904">  1  9  2 -1</clus>
<clus scale="   76.963">  5  6 -1 -1</clus>
<clus scale="   80.700">  2  5  1 -1</clus>
<clus scale="   88.322">  7  8 -1 -1</clus>
<clus scale="   26.904">  1  5  2 -1</clus>
</clustering>
</event>
<event>
 9    1  0.4067873E-005  0.1293780E+03  0.7546771E-02  0.1231125E+00
          1   -1    0    0  502    0 -0.00000000000E+00  0.00000000000E+00  0.29228261312E+03  0.29228261312E+03  0.00000000000E+00 0. -1.
         21   -1    0    0  501  502  0.00000000000E+00 -0.00000000000E+00 -0.21701196251E+03  0.21701196251E+03  0.00000000000E+00 0. -1.
         23    2    1    2    0    0 -0.62998443054E+02 -0.81437638238E+02  0.20283610127E+03  0.24542963741E+03  0.92153839801E+02 0.  0.
        -24    2    1    2    0    0  0.45372142873E+02  0.49088861203E+02  0.23599133991E+02  0.10827618064E+03  0.81844147786E+02 0.  0.
         13    1    4    4    0    0 -0.24020117236E+02  0.10192946861E+02  0.69441545057E+01  0.27001545873E+02  0.00000000000E+00 0. -1.
        -14    1    4    4    0    0  0.69392260109E+02  0.38895914343E+02  0.16654979485E+02  0.81274634771E+02  0.00000000000E+00 0.  1.
        -11    1    3    3    0    0  0.21043103279E+02 -0.76763144123E+01  0.59900045259E+02  0.63951179979E+02  0.00000000000E+00 0.  1.
         11    1    3    3    0    0 -0.84041546333E+02 -0.73761323826E+02  0.14293605601E+03  0.18147845743E+03  0.00000000000E+00 0. -1.
          2    1    1    2  501    0  0.17626300181E+02  0.32348777035E+02 -0.15116458465E+03  0.15558875758E+03  0.00000000000E+00 0. -1.
<scales pt_clust_5="13000.00000" pt_clust_6="13000.00000" pt_clust_7="13000.00000" pt_clust_8="13000.00000" pt_clust_9="36.83924"></scales>
<clustering>
<clus scale="   36.839">  2  9  1 -1</clus>
<clus scale="   81.844">  5  6 -1 -1</clus>
<clus scale="   92.154">  7  8 -1 -1</clus>
<clus scale="  122.249">  2  5  1 -1</clus>
<clus scale="   36.839">  2  5  1 -1</clus>
</clustering>
</event>
<event>
 9    1  0.4067873E-005  0.1874708E+03  0.7546771E-02  0.1162808E+00
         21   -1    0    0  501  502  0.00000000000E+00  0.00000000000E+00  0.21273661871E+03  0.21273661871E+03  0.00000000000E+00 0.  1.
          3   -1    0    0  502    0 -0.00000000000E+00 -0.00000000000E+00 -0.65497191613E+03  0.65497191613E+03  0.00000000000E+00 0. -1.
        -24    2    1    2    0    0 -0.31193352204E+02 -0.16759311269E+03 -0.55803820422E+03  0.58872074771E+03  0.78262409687E+02 0.  0.
         23    2    1    2    0    0 -0.69197285758E+01  0.68613514058E+02  0.12527275495E+03  0.17250189185E+03  0.96477679310E+02 0.  0.
         11    1    3    3    0    0 -0.39400302412E+02 -0.17315266749E+03 -0.52429976323E+03  0.55355620475E+03  0.00000000000E+00 0. -1.
        -12    1    3    3    0    0  0.82069502088E+01  0.55595548013E+01 -0.33738440986E+02  0.35164542959E+02  0.00000000000E+00 0.  1.
        -13    1    4    4    0    0 -0.34732813591E+02  0.24262971520E+02  0.11014069281E+03  0.11800861129E+03  0.00000000000E+00 0.  1.
         13    1    4    4    0    0  0.27813085015E+02  0.44350542539E+02  0.15132062140E+02  0.54493280559E+02  0.00000000000E+00 0. -1.
          4    1    1    2  501    0  0.38113080779E+02  0.98979598629E+02 -0.94698481487E+01  0.10648589529E+03  0.00000000000E+00 0. -1.
<scales pt_clust_5="13000.00000" pt_clust_6="13000.00000" pt_clust_7="13000.00000" pt_clust_8="13000.00000" pt_clust_9="106.06398"></scales>
<clustering>
<clus scale="   78.262">  5  6 -1 -1</clus>
<clus scale="   96.478">  7  8 -1 -1</clus>
<clus scale="  106.064">  1  9  2 -1</clus>
<clus scale="  178.780">  2  5  1 -1</clus>
<clus scale="  106.064">  1  5  2 -1</clus>
</clustering>
</event>
<event>
 9    1  0.4067873E-005  0.1025292E+03  0.7546771E-02  0.1286712E+00
          3   -1    0    0  502    0 -0.00000000000E+00  0.00000000000E+00  0.99968131672E+02  0.99968131672E+02  0.00000000000E+00 0. -1.
         21   -1    0    0  501  502  0.00000000000E+00 -0.00000000000E+00 -0.46793950616E+03  0.46793950616E+03  0.00000000000E+00 0. -1.
        -24    2    1    2    0    0 -0.10836165967E+02 -0.17633497008E+02  0.44591214086E+02  0.95180378115E+02  0.81501934302E+02 0.  0.
         23    2    1    2    0    0 -0.29252285729E+01 -0.46405218599E+02 -0.90481375636E+02  0.14405319502E+03  0.10199236434E+03 0.  0.
         13    1    3    3    0    0 -0.41827188676E+02 -0.24189417695E+02  0.40871198010E+02  0.63285831493E+02  0.00000000000E+00 0. -1.
        -14    1    3    3    0    0  0.30991022709E+02  0.65559206871E+01  0.37200160754E+01  0.31894546622E+02  0.00000000000E+00 0.  1.
        -13    1    4    4    0    0  0.19856308438E+02 -0.71245220841E+02 -0.79549169173E+02  0.10861963356E+03  0.00000000000E+00 0. -1.
         13    1    4    4    0    0 -0.22781537011E+02  0.24840002242E+02 -0.10932206463E+02  0.35433561465E+02  0.00000000000E+00 0.  1.
          4    1    1    2  501    0  0.13761394540E+02  0.64038715607E+02 -0.32208121293E+03  0.32867406469E+03  0.00000000000E+00 0. -1.
<scales pt_clust_5="13000.00000" pt_clust_6="13000.00000" pt_clust_7="13000.00000" pt_clust_8="13000.00000" pt_clust_9="65.50063"></scales>
<clustering>
<clus scale="   65.501">  2  9  1 -1</clus>
<clus scale="   81.502">  5  6 -1 -1</clus>
<clus scale="   82.173">  1  5  2 -1</clus>
<clus scale="  101.992">  7  8 -1 -1</clus>
<clus scale="   65.501">  2  5  1 -1</clus>
</clustering>
</event>
<event>
 9    1  0.4067873E-005  0.1083070E+03  0.7546771E-02  0.1268583E+00
          1   -1    0    0  502    0 -0.00000000000E+00  0.00000000000E+00  0.75757248622E+03  0.75757248622E+03  0.00000000000E+00 0. -1.
         21   -1    0    0  501  502  0.00000000000E+00 -0.00000000000E+00 -0.25014253227E+02  0.25014253227E+02  0.00000000000E+00 0.  1.
         23    2    1    2    0    0  0.25816510708E+02  0.40202269424E+02  0.38106021337E+03  0.39488929086E+03  0.91912736505E+02 0.  0.
        -24    2    1    2    0    0 -0.47618711330E+02 -0.49438427124E+02  0.34812787637E+03  0.36378091818E+03  0.80198743016E+02 0.  0.
         13    1    4    4    0    0 -0.36037046819E+02 -0.70796080927E+02  0.23468801097E+03  0.24776847320E+03  0.00000000000E+00 0. -1.
        -14    1    4    4    0    0 -0.11581664511E+02  0.21357653803E+02  0.11343986540E+03  0.11601244498E+03  0.00000000000E+00 0.  1.
        -11    1    3    3    0    0  0.56097056232E+02  0.24413554937E+02  0.31086578843E+03  0.31682872313E+03  0.00000000000E+00 0. -1.
         11    1    3    3    0    0 -0.30280545524E+02  0.15788714487E+02  0.70194424942E+02  0.78060567736E+02  0.00000000000E+00 0.  1.
          2    1    1    2  501    0  0.21802200622E+02  0.92361576995E+01  0.33701432510E+01  0.23916530403E+02  0.00000000000E+00 0. -1.
<scales pt_clust_5="13000.00000" pt_clust_6="13000.00000" pt_clust_7="13000.00000" pt_clust_8="13000.00000" pt_clust_9="23.67789"></scales>
<clustering>
<clus scale="   23.678">  2  9  1 -1</clus>
<clus scale="   80.199">  5  6 -1 -1</clus>
<clus scale="   91.913">  7  8 -1 -1</clus>
<clus scale="   98.561">  2  5  1 -1</clus>
<clus scale="   23.678">  2  5  1 -1</clus>
</clustering>
</event>
<event>
 9    1  0.4067873E-005  0.2912243E+03  0.7546771E-02  0.1108918E+00
         -4   -1    0    0    0  501 -0.00000000000E+00  0.00000000000E+00  0.77162831507E+03  0.77162831507E+03  0.00000000000E+00 0.  1.
         21   -1    0    0  501  502  0.00000000000E+00 -0.00000000000E+00 -0.25905901358E+03  0.25905901358E+03  0.00000000000E+00 0. -1.
        -24    2    1    2    0    0 -0.21689676807E+02  0.15612075828E+03 -0.73860945476E+02  0.19161570000E+03  0.80106204358E+02 0.  0.
         23    2    1    2    0    0  0.28318728835E+03 -0.87838132429E+02  0.20944086773E+03  0.37521334221E+03  0.94915737912E+02 0.  0.
         13    1    3    3    0    0  0.16856384175E+02  0.12043553849E+03 -0.35871955353E+02  0.12678980164E+03  0.00000000000E+00 0. -1.
        -14    1    3    3    0    0 -0.38546060982E+02  0.35685219789E+02 -0.37988990124E+02  0.64825898368E+02  0.00000000000E+00 0.  1.
        -11    1    4    4    0    0  0.87244013397E+02  0.73954807388E+01  0.94738758525E+02  0.12900249368E+03  0.00000000000E+00 0.  1.
         11    1    4    4    0    0  0.19594327495E+03 -0.95233613168E+02  0.11470210921E+03  0.24621084853E+03  0.00000000000E+00 0. -1.
         -3    1    1    2    0  502 -0.26149761154E+03 -0.68282625847E+02  0.37698937924E+03  0.46385828643E+03  0.00000000000E+00 0.  1.
<scales pt_clust_5="13000.00000" pt_clust_6="13000.00000" pt_clust_7="13000.00000" pt_clust_8="13000.00000" pt_clust_9="275.32285"></scales>
<clustering>
<clus scale="   80.106">  5  6 -1 -1</clus>
<clus scale="   94.916">  7  8 -1 -1</clus>
<clus scale="  176.808">  1  5  2 -1</clus>
<clus scale="  275.323">  2  9  1 -1</clus>
<clus scale="  275.323">  2  5  1 -1</clus>
</clustering>
</event>
<event>
 9    1  0.4067873E-005  0.1044159E+03  0.7546771E-02  0.1281055E+00
         21   -1    0    0  501  502  0.00000000000E+00  0.00000000000E+00  0.14779913709E+03  0.14779913709E+03  0.00000000000E+00 0. -1.
          3   -1    0    0  502    0 -0.00000000000E+00 -0.00000000000E+00 -0.21296322159E+03  0.21296322159E+03  0.00000000000E+00 0. -1.
        -24    2    1    2    0    0  0.50673570150E+02  0.10245927399E+02 -0.16740115505E+03  0.18848080769E+03  0.69491570801E+02 0.  0.
         23    2    1    2    0    0 -0.44506133863E+02 -0.34982414291E+02  0.10044100663E+03  0.14672461652E+03  0.90747738371E+02 0.  0.
         13    1    3    3    0    0  0.49578673863E+02  0.35164269602E+02 -0.13023421647E+03  0.14372029049E+03  0.00000000000E+00 0. -1.
        -14    1    3    3    0    0  0.10948962867E+01 -0.24918342202E+02 -0.37166938581E+02  0.44760517194E+02  0.00000000000E+00 0.  1.
        -13    1    4    4    0    0 -0.24428319570E+02  0.16689523663E+02 -0.26193642441E+01  0.29700910191E+02  0.00000000000E+00 0.  1.
         13    1    4    4    0    0 -0.20077814293E+02 -0.51671937954E+02  0.10306037087E+03  0.11702370633E+03  0.00000000000E+00 0. -1.
          4    1    1    2  501    0 -0.61674362867E+01  0.24736486892E+02  0.17960639270E+01  0.25556934474E+02  0.00000000000E+00 0. -1.
<scales pt_clust_5="13000.00000" pt_clust_6="13000.00000" pt_clust_7="13000.00000" pt_clust_8="13000.00000" pt_clust_9="25.49375"></scales>
<clustering>
<clus scale="   25.494">  1  9  2 -1</clus>
<clus scale="   69.492">  5  6 -1 -1</clus>
<clus scale="   86.583">  2  5  1 -1</clus>
<clus scale="   90.748">  7  8 -1 -1</clus>
<clus scale="   25.494">  1  5  2 -1</clus>
</clustering>
</event>
<event>
 9    1  0.4067873E-005  0.1541825E+03  0.7546771E-02  0.1197212E+00
          1   -1    0    0  502    0 -0.00000000000E+00  0.00000000000E+00  0.85789978210E+03  0.85789978210E+03  0.00000000000E+00 0. -1.
         21   -1    0    0  501  502  0.00000000000E+00 -0.00000000000E+00 -0.12634051326E+03  0.12634051326E+03  0.00000000000E+00 0. -1.
         23    2    1    2    0    0 -0.45676403858E+02  0.13760042632E+03  0.74975761362E+03  0.76906595731E+03  0.91135922268E+02 0.  0.
        -24    2    1    2    0    0  0.34205689717E+02 -0.43886955144E+02  0.38152758928E+02  0.10522326324E+03  0.80747805372E+02 0.  0.
         13    1    4    4    0    0  0.36054618927E+02  0.15061003907E+02  0.14402475043E+02  0.41643735088E+02  0.00000000000E+00 0. -1.
        -14    1    4    4    0    0 -0.18489292104E+01 -0.58947959051E+02  0.23750283885E+02  0.63579528153E+02  0.00000000000E+00 0.  1.
        -13    1    3    3    0    0  0.20341192723E+02  0.80056721142E+02  0.40698530313E+03  0.41528289116E+03  0.00000000000E+00 0.  1.
         13    1    3    3    0    0 -0.66017596581E+02  0.57543705180E+02  0.34277231048E+03  0.35378306615E+03  0.00000000000E+00 0. -1.
          2    1    1    2  501    0  0.11470714142E+02 -0.93713471178E+02 -0.56351103703E+02  0.10995107481E+03  0.00000000000E+00 0. -1.
<scales pt_clust_5="13000.00000" pt_clust_6="13000.00000" pt_clust_7="13000.00000" pt_clust_8="13000.00000" pt_clust_9="94.41288"></scales>
<clustering>
<clus scale="   80.748">  5  6 -1 -1</clus>
<clus scale="   91.136">  7  8 -1 -1</clus>
<clus scale="   94.413">  2  9  1 -1</clus>
<clus scale="  148.279">  2  5  1 -1</clus>
<clus scale="   94.413">  2  5  1 -1</clus>
</clustering>
</event>
<event>
 9    1  0.4067873E-005  0.3010544E+03  0.7546771E-02  0.1130235E+00
         21   -1    0    0  501  502  0.00000000000E+00  0.00000000000E+00  0.16826137623E+04  0.16826137623E+04  0.00000000000E+00 0. -1.
          1   -1    0    0  502    0 -0.00000000000E+00 -0.00000000000E+00 -0.12421075183E+03  0.12421075183E+03  0.00000000000E+00 0. -1.
        -24    2    1    2    0    0  0.42229297865E+02  0.22756133844E+02  0.10836812512E+03  0.14337019634E+03  0.80685856458E+02 0.  0.
         23    2    1    2    0    0  0.34558116984E+02 -0.29719359020E+03  0.17848106916E+03  0.36035749406E+03  0.92107209116E+02 0.  0.
         11    1    3    3    0    0  0.27122555781E+02  0.39312044163E+02  0.19278473386E+02  0.51504654007E+02  0.00000000000E+00 0. -1.
        -12    1    3    3    0    0  0.15106742084E+02 -0.16555910319E+02  0.89089651734E+02  0.91865542337E+02  0.00000000000E+00 0.  1.
        -13    1    4    4    0    0  0.37169654514E+02 -0.37921530811E+02  0.39437916743E+02  0.66143593739E+02  0.00000000000E+00 0.  1.
         13    1    4    4    0    0 -0.26115375293E+01 -0.25927205939E+03  0.13904315242E+03  0.29421390032E+03  0.00000000000E+00 0. -1.
          2    1    1    2  501    0 -0.76787414849E+02  0.27443745635E+03  0.12715538162E+04  0.13030968237E+04  0.00000000000E+00 0. -1.
<scales pt_clust_5="13000.00000" pt_clust_6="13000.00000" pt_clust_7="13000.00000" pt_clust_8="13000.00000" pt_clust_9="286.61823"></scales>
<clustering>
<clus scale="   80.686">  5  6 -1 -1</clus>
<clus scale="   92.107">  7  8 -1 -1</clus>
<clus scale="   93.869">  2  5  1 -1</clus>
<clus scale="  286.618">  1  9  2 -1</clus>
<clus scale="  286.618">  1  5  2 -1</clus>
</clustering>
</event>
<event>
 9    1  0.4067873E-005  0.1688127E+03  0.7546771E-02  0.1180545E+00
          3   -1    0    0  502    0 -0.00000000000E+00  0.00000000000E+00  0.11790465661E+03  0.11790465661E+03  0.00000000000E+00 0. -1.
         21   -1    0    0  501  502  0.00000000000E+00 -0.00000000000E+00 -0.89655746039E+03  0.89655746039E+03  0.00000000000E+00 0. -1.
        -24    2    1    2    0    0 -0.12349940014E+03 -0.52681210599E+02  0.19015940165E+02  0.15725064527E+03  0.79616252561E+02 0.  0.
         23    2    1    2    0    0  0.18149856773E+03  0.10811895006E+03 -0.52679545785E+03  0.57470557176E+03  0.90230828199E+02 0.  0.
         11    1    3    3    0    0 -0.10834105773E+03 -0.81564469005E+01  0.79889544281E+01  0.10894097396E+03  0.00000000000E+00 0. -1.
        -12    1    3    3    0    0 -0.15158342414E+02 -0.44524763698E+02  0.11026985737E+02  0.48309671305E+02  0.00000000000E+00 0.  1.
        -13    1    4    4    0    0  0.12716402856E+03  0.11702974061E+03 -0.36613844779E+03  0.40487530587E+03  0.00000000000E+00 0. -1.
         13    1    4    4    0    0  0.54334539173E+02 -0.89107905563E+01 -0.16065701006E+03  0.16983026590E+03  0.00000000000E+00 0.  1.
          4    1    1    2  501    0 -0.57999167595E+02 -0.55437739458E+02 -0.27087328609E+03  0.28250589997E+03  0.00000000000E+00 0. -1.
<scales pt_clust_5="13000.00000" pt_clust_6="13000.00000" pt_clust_7="13000.00000" pt_clust_8="13000.00000" pt_clust_9="80.23245"></scales>
<clustering>
<clus scale="   79.616">  5  6 -1 -1</clus>
<clus scale="   80.232">  2  9  1 -1</clus>
<clus scale="   90.231">  7  8 -1 -1</clus>
<clus scale="  163.386">  1  5  2 -1</clus>
<clus scale="   80.232">  2  5  1 -1</clus>
</clustering>
</event>
<event>
 9    1  0.4067873E-005  0.2431099E+03  0.7546771E-02  0.1118364E+00
         21   -1    0    0  501  502  0.00000000000E+00  0.00000000000E+00  0.95224186868E+03  0.95224186868E+03  0.00000000000E+00 0.  1.
         -4   -1    0    0    0  501 -0.00000000000E+00 -0.00000000000E+00 -0.82834231486E+02  0.82834231486E+02  0.00000000000E+00 0.  1.
         23    2    1    2    0    0 -0.21485046702E+03 -0.81793738226E+02  0.28066741364E+03  0.37411320108E+03  0.91299240689E+02 0.  0.
        -24    2    1    2    0    0  0.21225696530E+03  0.50095629911E+02  0.58427571189E+03  0.62884704341E+03  0.80671587552E+02 0.  0.
         13    1    4    4    0    0  0.68519071957E+02  0.65874220323E+01  0.96917919318E+02  0.11887531466E+03  0.00000000000E+00 0. -1.
        -14    1    4    4    0    0  0.14373789334E+03  0.43508207879E+02  0.48735779257E+03  0.50997172874E+03  0.00000000000E+00 0.  1.
        -11    1    3    3    0    0 -0.16415860818E+03 -0.32489938083E+02  0.14631573876E+03  0.22228796667E+03  0.00000000000E+00 0. -1.
         11    1    3    3    0    0 -0.50691858837E+02 -0.49303800142E+02  0.13435167487E+03  0.15182523440E+03  0.00000000000E+00 0.  1.
         -3    1    1    2    0  502  0.25935017203E+01  0.31698108314E+02  0.44645116630E+01  0.32115855683E+02  0.00000000000E+00 0.  1.
<scales pt_clust_5="13000.00000" pt_clust_6="13000.00000" pt_clust_7="13000.00000" pt_clust_8="13000.00000" pt_clust_9="31.80405"></scales>
<clustering>
<clus scale="   31.804">  1  9  2 -1</clus>
<clus scale="   80.672">  5  6 -1 -1</clus>
<clus scale="   91.299">  7  8 -1 -1</clus>
<clus scale="  239.321">  1  5  2 -1</clus>
<clus scale="   31.804">  1  5  2 -1</clus>
</clustering>
</event>
<event>
 9    1  0.4067873E-005  0.1261512E+03  0.7546771E-02  0.1246254E+00
         21   -1    0    0  501  502  0.00000000000E+00  0.00000000000E+00  0.66809482983E+02  0.66809482983E+02  0.00000000000E+00 0.  1.
          3   -1    0    0  502    0 -0.00000000000E+00 -0.00000000000E+00 -0.69567388591E+03  0.69567388591E+03  0.00000000000E+00 0. -1.
        -24    2    1    2    0    0 -0.50328840141E+02 -0.18478786694E+02 -0.28568242871E+03  0.30167567014E+03  0.80742195757E+02 0.  0.
         23    2    1    2    0    0 -0.74937606777E+02 -0.24645019004E+02 -0.32954753105E+02  0.12347659425E+03  0.89092265125E+02 0.  0.
         13    1    3    3    0    0 -0.68251614540E+02 -0.31077032092E+02 -0.21849411240E+03  0.23100593492E+03  0.00000000000E+00 0. -1.
        -14    1    3    3    0    0  0.17922774399E+02  0.12598245398E+02 -0.67188316302E+02  0.70669735225E+02  0.00000000000E+00 0.  1.
        -11    1    4    4    0    0 -0.56898183455E+02 -0.48346607679E+02 -0.49327647982E+02  0.89487510916E+02  0.00000000000E+00 0.  1.
         11    1    4    4    0    0 -0.18039423322E+02  0.23701588675E+02  0.16372894877E+02  0.33989083338E+02  0.00000000000E+00 0. -1.
          4    1    1    2  501    0  0.12526644692E+03  0.43123805698E+02 -0.31022722111E+03  0.33733110449E+03  0.00000000000E+00 0. -1.
<scales pt_clust_5="13000.00000" pt_clust_6="13000.00000" pt_clust_7="13000.00000" pt_clust_8="13000.00000" pt_clust_9="89.31241"></scales>
<clustering>
<clus scale="   80.742">  5  6 -1 -1</clus>
<clus scale="   89.092">  7  8 -1 -1</clus>
<clus scale="   96.921">  2  5  1 -1</clus>
<clus scale="   89.312">  1  9  2 -1</clus>
<clus scale="   89.312">  1  5  2 -1</clus>
</clustering>
</event>
<event>
 9    1  0.4067873E-005  0.9610769E+02  0.7546771E-02  0.1294044E+00
         -2   -1    0    0    0  501 -0.00000000000E+00  0.00000000000E+00  0.35181089110E+03  0.35181089110E+03  0.00000000000E+00 0.  1.
         21   -1    0    0  501  502  0.00000000000E+00 -0.00000000000E+00 -0.35229141922E+02  0.35229141922E+02  0.00000000000E+00 0. -1.
        -24    2    1    2    0    0 -0.11130378037E+02 -0.41583953486E+02  0.17792338332E+03  0.20020379094E+03  0.81066127776E+02 0.  0.
         23    2    1    2    0    0 -0.36534036868E+01  0.16655804589E+02  0.12319580364E+03  0.15398713799E+03  0.90796858129E+02 0.  0.
         13    1    3    3    0    0  0.28724189738E+02 -0.13374887753E+02  0.27167375117E+02  0.41737668470E+02  0.00000000000E+00 0. -1.
        -14    1    3    3    0    0 -0.39854567775E+02 -0.28209065733E+02  0.15075600820E+03  0.15846612247E+03  0.00000000000E+00 0.  1.
        -13    1    4    4    0    0  0.57485501305E+01  0.35407057397E+02  0.12760629747E+03  0.13255215086E+03  0.00000000000E+00 0.  1.
         13    1    4    4    0    0 -0.94019538173E+01 -0.18751252808E+02 -0.44104938332E+01  0.21434987131E+02  0.00000000000E+00 0. -1.
         -1    1    1    2    0  502  0.14783781724E+02  0.24928148897E+02  0.15462562224E+02  0.32849104098E+02  0.00000000000E+00 0.  1.
<scales pt_clust_5="13000.00000" pt_clust_6="13000.00000" pt_clust_7="13000.00000" pt_clust_8="13000.00000" pt_clust_9="28.98228"></scales>
<clustering>
<clus scale="   28.982">  2  9  1 -1</clus>
<clus scale="   81.066">  5  6 -1 -1</clus>
<clus scale="   86.973">  1  5  2 -1</clus>
<clus scale="   90.797">  7  8 -1 -1</clus>
<clus scale="   28.982">  2  5  1 -1</clus>
</clustering>
</event>
<event>
 9    1  0.4067873E-005  0.1023895E+03  0.7546771E-02  0.1280104E+00
         21   -1    0    0  501  502  0.00000000000E+00  0.00000000000E+00  0.23842350794E+02  0.23842350794E+02  0.00000000000E+00 0. -1.
          3   -1    0    0  502    0 -0.00000000000E+00 -0.00000000000E+00 -0.61586681280E+03  0.61586681280E+03  0.00000000000E+00 0. -1.
         23    2    1    2    0    0 -0.23046942499E+02 -0.50245912947E+02 -0.23016517237E+03  0.25316591778E+03  0.89783974232E+02 0.  0.
        -24    2    1    2    0    0 -0.11624170917E+02  0.47799924212E+02 -0.19696435148E+03  0.21802496907E+03  0.79498284758E+02 0.  0.
         13    1    4    4    0    0 -0.40038590620E+02  0.28277695544E+02 -0.63717087438E+02  0.80390198629E+02  0.00000000000E+00 0. -1.
        -14    1    4    4    0    0  0.28414419703E+02  0.19522228669E+02 -0.13324726404E+03  0.13763477044E+03  0.00000000000E+00 0.  1.
        -13    1    3    3    0    0 -0.40759986449E+02 -0.96499378968E+00 -0.16287064197E+03  0.16789625882E+03  0.00000000000E+00 0. -1.
         13    1    3    3    0    0  0.17713043949E+02 -0.49280919157E+02 -0.67294530400E+02  0.85269658969E+02  0.00000000000E+00 0.  1.
          4    1    1    2  501    0  0.34671113417E+02  0.24459887347E+01 -0.16489493816E+03  0.16851827674E+03  0.00000000000E+00 0. -1.
<scales pt_clust_5="13000.00000" pt_clust_6="13000.00000" pt_clust_7="13000.00000" pt_clust_8="13000.00000" pt_clust_9="34.75730"></scales>
<clustering>
<clus scale="   34.757">  1  9  2 -1</clus>
<clus scale="   79.498">  5  6 -1 -1</clus>
<clus scale="   89.784">  7  8 -1 -1</clus>
<clus scale="   93.501">  1  5  2 -1</clus>
<clus scale="   34.757">  1  5  2 -1</clus>
</clustering>
</event>
<event>
 9    1  0.4067873E-005  0.1442612E+03  0.7546771E-02  0.1227495E+00
         21   -1    0    0  501  502  0.00000000000E+00  0.00000000000E+00  0.45108381369E+02  0.45108381369E+02  0.00000000000E+00 0. -1.
          1   -1    0    0  502    0 -0.00000000000E+00 -0.00000000000E+00 -0.72409842414E+03  0.72409842414E+03  0.00000000000E+00 0. -1.
         23    2    1    2    0    0 -0.15427218378E+02 -0.22793373161E+02 -0.19802076685E+03  0.21965319803E+03  0.90982231087E+02 0.  0.
        -24    2    1    2    0    0  0.78898524899E+02  0.10422737893E+03 -0.22299522512E+03  0.27168544642E+03  0.83652780087E+02 0.  0.
         11    1    4    4    0    0  0.84941714393E+02  0.94617401493E+02 -0.22654712363E+03  0.25979058246E+03  0.00000000000E+00 0. -1.
        -12    1    4    4    0    0 -0.60431894942E+01  0.96099774394E+01  0.35518985035E+01  0.11894863960E+02  0.00000000000E+00 0.  1.
        -13    1    3    3    0    0 -0.32538816877E+02  0.35729471114E+01 -0.18906933937E+02  0.37802284398E+02  0.00000000000E+00 0. -1.
         13    1    3    3    0    0  0.17111598499E+02 -0.26366320272E+02 -0.17911383291E+03  0.18185091363E+03  0.00000000000E+00 0.  1.
          2    1    1    2  501    0 -0.63471306521E+02 -0.81434005771E+02 -0.25797405080E+03  0.27786816106E+03  0.00000000000E+00 0. -1.
<scales pt_clust_5="13000.00000" pt_clust_6="13000.00000" pt_clust_7="13000.00000" pt_clust_8="13000.00000" pt_clust_9="117.53095"></scales>
<clustering>
<clus scale="   83.653">  5  6 -1 -1</clus>
<clus scale="   90.982">  7  8 -1 -1</clus>
<clus scale="   95.054">  2  7  1 -1</clus>
<clus scale="  117.531">  1  9  2 -1</clus>
<clus scale="  117.531">  1  5  2 -1</clus>
</clustering>
</event>
<event>
 9    1  0.4067873E-005  0.1313406E+03  0.7546771E-02  0.1240382E+00
          1   -1    0    0  502    0 -0.00000000000E+00  0.00000000000E+00  0.96110555159E+03  0.96110555159E+03  0.00000000000E+00 0. -1.
         21   -1    0    0  501  502  0.00000000000E+00 -0.00000000000E+00 -0.31366682683E+02  0.31366682683E+02  0.00000000000E+00 0. -1.
        -24    2    1    2    0    0  0.32949152351E+02  0.43506685246E+02  0.29792423649E+03  0.31322364785E+03  0.79823083033E+02 0.  0.
         23    2    1    2    0    0  0.60722929545E+02  0.30615003436E+01  0.49382656496E+03  0.50609038825E+03  0.92553540467E+02 0.  0.
         11    1    3    3    0    0  0.44294829719E+02 -0.55631838784E+00  0.89156581616E+02  0.99555198134E+02  0.00000000000E+00 0. -1.
        -12    1    3    3    0    0 -0.11345677368E+02  0.44063003634E+02  0.20876765487E+03  0.21366844972E+03  0.00000000000E+00 0.  1.
        -11    1    4    4    0    0  0.29343008154E+01 -0.34896210706E+02  0.93617229968E+02  0.99952695760E+02  0.00000000000E+00 0.  1.
         11    1    4    4    0    0  0.57788628730E+02  0.37957711050E+02  0.40020933500E+03  0.40613769248E+03  0.00000000000E+00 0. -1.
          2    1    1    2  501    0 -0.93672081896E+02 -0.46568185589E+02  0.13798806746E+03  0.17315819818E+03  0.00000000000E+00 0. -1.
<scales pt_clust_5="13000.00000" pt_clust_6="13000.00000" pt_clust_7="13000.00000" pt_clust_8="13000.00000" pt_clust_9="93.18907"></scales>
<clustering>
<clus scale="   79.823">  5  6 -1 -1</clus>
<clus scale="   92.554">  7  8 -1 -1</clus>
<clus scale="   96.696">  1  5  2 -1</clus>
<clus scale="   93.189">  2  9  1 -1</clus>
<clus scale="   93.189">  2  5  1 -1</clus>
</clustering>
</event>
<event>
 9    1  0.4067873E-005  0.9355778E+02  0.7546771E-02  0.1298801E+00
         -4   -1    0    0    0  501 -0.00000000000E+00  0.00000000000E+00  0.13423268722E+03  0.13423268722E+03  0.00000000000E+00 0.  1.
         21   -1    0    0  501  502  0.00000000000E+00 -0.00000000000E+00 -0.11723488286E+03  0.11723488286E+03  0.00000000000E+00 0. -1.
        -24    2    1    2    0    0 -0.24219895157E+02  0.76278474423E+01  0.57636600939E+02  0.10599014723E+03  0.85247558112E+02 0.  0.
         23    2    1    2    0    0 -0.12209169109E+02  0.16887233744E+02 -0.20045105319E+02  0.96978288341E+02  0.92567487210E+02 0.  0.
         11    1    3    3    0    0 -0.21891027937E+02 -0.83998985223E+01  0.77148076509E+02  0.80632506525E+02  0.00000000000E+00 0. -1.
        -12    1    3    3    0    0 -0.23288672194E+01  0.16027745965E+02 -0.19511475570E+02  0.25357640705E+02  0.00000000000E+00 0.  1.
        -11    1    4    4    0    0 -0.31559940323E+02 -0.29955796358E+02 -0.34566113920E+01  0.43650059919E+02  0.00000000000E+00 0.  1.
         11    1    4    4    0    0  0.19350771214E+02  0.46843030103E+02 -0.16588493927E+02  0.53328228421E+02  0.00000000000E+00 0. -1.
         -3    1    1    2    0  502  0.36429064266E+02 -0.24515081187E+02 -0.20593691259E+02  0.48499134513E+02  0.00000000000E+00 0.  1.
<scales pt_clust_5="13000.00000" pt_clust_6="13000.00000" pt_clust_7="13000.00000" pt_clust_8="13000.00000" pt_clust_9="43.90975"></scales>
<clustering>
<clus scale="   43.910">  2  9  1 -1</clus>
<clus scale="   85.248">  5  6 -1 -1</clus>
<clus scale="   86.322">  1  5  2 -1</clus>
<clus scale="   92.567">  7  8 -1 -1</clus>
<clus scale="   43.910">  2  5  1 -1</clus>
</clustering>
</event>
<event>
 9    1  0.4067873E-005  0.1285482E+03  0.7546771E-02  0.1248235E+00
          3   -1    0    0  502    0 -0.00000000000E+00  0.00000000000E+00  0.23739164346E+03  0.23739164346E+03  0.00000000000E+00 0. -1.
         21   -1    0    0  501  502  0.00000000000E+00 -0.00000000000E+00 -0.19172209349E+03  0.19172209349E+03  0.00000000000E+00 0. -1.
        -24    2    1    2    0    0  0.13849858237E+02 -0.43444012399E+02  0.15436488073E+03  0.17770137754E+03  0.75299816662E+02 0.  0.
         23    2    1    2    0    0  0.22394337601E+01 -0.66313271127E+02 -0.27644474768E+02  0.11402688760E+03  0.88518072282E+02 0.  0.
         11    1    3    3    0    0  0.38249097906E+02 -0.83611252285E-01  0.69273714492E+02  0.79131839363E+02  0.00000000000E+00 0. -1.
        -12    1    3    3    0    0 -0.24399239670E+02 -0.43360401147E+02  0.85091166243E+02  0.98569538178E+02  0.00000000000E+00 0.  1.
        -13    1    4    4    0    0 -0.27457737305E+02 -0.52393295395E+02 -0.47345841487E+02  0.75766836059E+02  0.00000000000E+00 0. -1.
         13    1    4    4    0    0  0.29697171065E+02 -0.13919975732E+02  0.19701366720E+02  0.38260051546E+02  0.00000000000E+00 0.  1.
          4    1    1    2  501    0 -0.16089291997E+02  0.10975728353E+03 -0.81050856002E+02  0.13738547180E+03  0.00000000000E+00 0. -1.
<scales pt_clust_5="13000.00000" pt_clust_6="13000.00000" pt_clust_7="13000.00000" pt_clust_8="13000.00000" pt_clust_9="93.21586"></scales>
<clustering>
<clus scale="   75.300">  5  6 -1 -1</clus>
<clus scale="   88.030">  1  5  2 -1</clus>
<clus scale="   88.518">  7  8 -1 -1</clus>
<clus scale="   93.216">  2  9  1 -1</clus>
<clus scale="   93.216">  2  5  1 -1</clus>
</clustering>
</event>
<event>
 9    1  0.4067873E-005  0.1034887E+03  0.7546771E-02  0.1278835E+00
          1   -1    0    0  502    0 -0.00000000000E+00  0.00000000000E+00  0.11912760637E+03  0.11912760637E+03  0.00000000000E+00 0. -1.
         21   -1    0    0  501  502  0.00000000000E+00 -0.00000000000E+00 -0.11725446042E+03  0.11725446042E+03  0.00000000000E+00 0.  1.
        -24    2    1    2    0    0 -0.30524643793E+02 -0.27988701038E+02  0.33830308151E+02  0.96227922798E+02  0.80001263190E+02 0.  0.
         23    2    1    2    0    0  0.53570608200E+02  0.30310812541E+02 -0.36147726043E+02  0.11661546300E+03  0.92216878567E+02 0.  0.
         11    1    3    3    0    0 -0.50102170494E+02 -0.31284157960E+02  0.44252838279E+02  0.73805417980E+02  0.00000000000E+00 0. -1.
        -12    1    3    3    0    0  0.19577526701E+02  0.32954569224E+01 -0.10422530128E+02  0.22422504818E+02  0.00000000000E+00 0.  1.
        -13    1    4    4    0    0  0.54718578070E+02 -0.47060369730E+01 -0.54235241362E+02  0.77186339307E+02  0.00000000000E+00 0.  1.
         13    1    4    4    0    0 -0.11479698697E+01  0.35016849514E+02  0.18087515319E+02  0.39429123693E+02  0.00000000000E+00 0. -1.
          2    1    1    2  501    0 -0.23045964407E+02 -0.23221115037E+01  0.41905638421E+01  0.23538680986E+02  0.00000000000E+00 0. -1.
<scales pt_clust_5="13000.00000" pt_clust_6="13000.00000" pt_clust_7="13000.00000" pt_clust_8="13000.00000" pt_clust_9="23.16267"></scales>
<clustering>
<clus scale="   23.163">  2  9  1 -1</clus>
<clus scale="   80.001">  5  6 -1 -1</clus>
<clus scale="   92.217">  7  8 -1 -1</clus>
<clus scale="   92.769">  1  5  2 -1</clus>
<clus scale="   23.163">  2  5  1 -1</clus>
</clustering>
</event>
<event>
 9    1  0.4067873E-005  0.1336241E+03  0.7546771E-02  0.1237154E+00
         21   -1    0    0  501  502  0.00000000000E+00  0.00000000000E+00  0.31773381665E+02  0.31773381665E+02  0.00000000000E+00 0. -1.
          1   -1    0    0  502    0 -0.00000000000E+00 -0.00000000000E+00 -0.11632405977E+04  0.11632405977E+04  0.00000000000E+00 0. -1.
        -24    2    1    2    0    0  0.41501103691E+02 -0.38022691300E+02 -0.47443182605E+03  0.48445906638E+03  0.80292980797E+02 0.  0.
         23    2    1    2    0    0 -0.94588857425E+01 -0.70404536710E+02 -0.52522789817E+03  0.53689898188E+03  0.85731571938E+02 0.  0.
         13    1    3    3    0    0  0.65181648774E+02 -0.19881567592E+02 -0.32087100383E+03  0.32802762866E+03  0.00000000000E+00 0. -1.
        -14    1    3    3    0    0 -0.23680545084E+02 -0.18141123708E+02 -0.15356082223E+03  0.15643143772E+03  0.00000000000E+00 0.  1.
        -11    1    4    4    0    0  0.23493158380E+02  0.77723878086E+01 -0.83143199487E+02  0.86747507883E+02  0.00000000000E+00 0.  1.
         11    1    4    4    0    0 -0.32952044123E+02 -0.78176924519E+02 -0.44208469868E+03  0.45015147400E+03  0.00000000000E+00 0. -1.
          2    1    1    2  501    0 -0.32042217948E+02  0.10842722801E+03 -0.13180749178E+03  0.17365593107E+03  0.00000000000E+00 0. -1.
<scales pt_clust_5="13000.00000" pt_clust_6="13000.00000" pt_clust_7="13000.00000" pt_clust_8="13000.00000" pt_clust_9="102.49634"></scales>
<clustering>
<clus scale="   80.293">  5  6 -1 -1</clus>
<clus scale="   85.732">  7  8 -1 -1</clus>
<clus scale="   98.056">  2  5  1 -1</clus>
<clus scale="  102.496">  1  9  2 -1</clus>
<clus scale="  102.496">  1  5  2 -1</clus>
</clustering>
</event>
<event>
 9    1  0.4067873E-005  0.1483041E+03  0.7546771E-02  0.1204734E+00
         -4   -1    0    0    0  501 -0.00000000000E+00  0.00000000000E+00  0.11341658761E+03  0.11341658761E+03  0.00000000000E+00 0.  1.
         21   -1    0    0  501  502  0.00000000000E+00 -0.00000000000E+00 -0.35013740538E+03  0.35013740538E+03  0.00000000000E+00 0.  1.
        -24    2    1    2    0    0 -0.71226021895E+02 -0.29956702555E+02 -0.80794510923E+02  0.13769104021E+03  0.80377355856E+02 0.  0.
         23    2    1    2    0    0  0.14241413809E+03  0.81784146389E+02 -0.64363315043E+02  0.19882904672E+03  0.91760122962E+02 0.  0.
         11    1    3    3    0    0 -0.68989776101E+02 -0.48788646190E+01 -0.20165148110E+02  0.72041833157E+02  0.00000000000E+00 0. -1.
        -12    1    3    3    0    0 -0.22362457943E+01 -0.25077837936E+02 -0.60629362814E+02  0.65649207048E+02  0.00000000000E+00 0.  1.
        -11    1    4    4    0    0  0.66003428896E+02 -0.79586934495E+01 -0.45036087051E+01  0.66633894669E+02  0.00000000000E+00 0. -1.
         11    1    4    4    0    0  0.76410709197E+02  0.89742839839E+02 -0.59859706338E+02  0.13219515205E+03  0.00000000000E+00 0.  1.
         -3    1    1    2    0  502 -0.71188116198E+02 -0.51827443834E+02 -0.91562991807E+02  0.12703390607E+03  0.00000000000E+00 0.  1.
<scales pt_clust_5="13000.00000" pt_clust_6="13000.00000" pt_clust_7="13000.00000" pt_clust_8="13000.00000" pt_clust_9="88.05584"></scales>
<clustering>
<clus scale="   80.377">  5  6 -1 -1</clus>
<clus scale="   88.056">  2  9  1 -1</clus>
<clus scale="   91.760">  7  8 -1 -1</clus>
<clus scale="  141.544">  1  5  2 -1</clus>
<clus scale="   88.056">  2  5  1 -1</clus>
</clustering>
</event>
<event>
 9    1  0.4067873E-005  0.9416194E+02  0.7546771E-02  0.1300017E+00
         21   -1    0    0  501  502  0.00000000000E+00  0.00000000000E+00  0.80756455039E+02  0.80756455039E+02  0.00000000000E+00 0. -1.
          1   -1    0    0  502    0 -0.00000000000E+00 -0.00000000000E+00 -0.19908923891E+03  0.19908923891E+03  0.00000000000E+00 0. -1.
         23    2    1    2    0    0 -0.76818748950E+00 -0.12838105991E+02 -0.10755209468E+03  0.14172968988E+03  0.91402652295E+02 0.  0.
        -24    2    1    2    0    0  0.82919271692E+01  0.38040032543E+02 -0.41326427810E+02  0.97807370888E+02  0.79640492417E+02 0.  0.
         11    1    4    4    0    0  0.20833963456E+02  0.24434026825E+01  0.17901225293E+02  0.27576767703E+02  0.00000000000E+00 0. -1.
        -12    1    4    4    0    0 -0.12542036287E+02  0.35596629861E+02 -0.59227653103E+02  0.70230603185E+02  0.00000000000E+00 0.  1.
        -11    1    3    3    0    0 -0.56218570826E+01 -0.50494900213E+02 -0.41754074747E+02  0.65762778093E+02  0.00000000000E+00 0.  1.
         11    1    3    3    0    0  0.48536695931E+01  0.37656794222E+02 -0.65798019934E+02  0.75966911790E+02  0.00000000000E+00 0. -1.
          2    1    1    2  501    0 -0.75237396797E+01 -0.25201926552E+02  0.30545738621E+02  0.40308633177E+02  0.00000000000E+00 0. -1.
<scales pt_clust_5="13000.00000" pt_clust_6="13000.00000" pt_clust_7="13000.00000" pt_clust_8="13000.00000" pt_clust_9="26.30102"></scales>
<clustering>
<clus scale="   26.301">  1  9  2 -1</clus>
<clus scale="   79.640">  5  6 -1 -1</clus>
<clus scale="   82.793">  1  5  2 -1</clus>
<clus scale="   91.403">  7  8 -1 -1</clus>
<clus scale="   26.301">  1  5  2 -1</clus>
</clustering>
</event>
<event>
 9    1  0.4067873E-005  0.1036591E+03  0.7546771E-02  0.1277215E+00
         21   -1    0    0  501  502  0.00000000000E+00  0.00000000000E+00  0.35071627593E+03  0.35071627593E+03  0.00000000000E+00 0.  1.
         -2   -1    0    0    0  501 -0.00000000000E+00 -0.00000000000E+00 -0.16103272397E+03  0.16103272397E+03  0.00000000000E+00 0.  1.
        -24    2    1    2    0    0  0.61104414028E+01  0.54406891148E+02 -0.12499669749E+03  0.15875944617E+03  0.81135319477E+02 0.  0.
         23    2    1    2    0    0  0.26188076573E+02 -0.70864045015E+01  0.13965719913E+03  0.16882796474E+03  0.90899482533E+02 0.  0.
         13    1    3    3    0    0  0.36277479372E+02  0.33528858333E+02 -0.32181616632E+02  0.58956732438E+02  0.00000000000E+00 0. -1.
        -14    1    3    3    0    0 -0.30167037969E+02  0.20878032816E+02 -0.92815080853E+02  0.99802713730E+02  0.00000000000E+00 0.  1.
        -13    1    4    4    0    0  0.21108329432E+02  0.26960604206E+02  0.12797391020E+03  0.13247549751E+03  0.00000000000E+00 0.  1.
         13    1    4    4    0    0  0.50797471417E+01 -0.34047008708E+02  0.11683288938E+02  0.36352467225E+02  0.00000000000E+00 0. -1.
         -1    1    1    2    0  502 -0.32298517976E+02 -0.47320486647E+02  0.17502305031E+03  0.18416158899E+03  0.00000000000E+00 0.  1.
<scales pt_clust_5="13000.00000" pt_clust_6="13000.00000" pt_clust_7="13000.00000" pt_clust_8="13000.00000" pt_clust_9="57.29243"></scales>
<clustering>
<clus scale="   57.292">  1  9  2 -1</clus>
<clus scale="   81.135">  5  6 -1 -1</clus>
<clus scale="   90.899">  7  8 -1 -1</clus>
<clus scale="   95.213">  2  5  1 -1</clus>
<clus scale="   57.292">  1  5  2 -1</clus>
</clustering>
</event>
<event>
 9    1  0.4067873E-005  0.9785124E+02  0.7546771E-02  0.1289494E+00
          1   -1    0    0  502    0 -0.00000000000E+00  0.00000000000E+00  0.16655698689E+03  0.16655698689E+03  0.00000000000E+00 0. -1.
         21   -1    0    0  501  502  0.00000000000E+00 -0.00000000000E+00 -0.73565788999E+02  0.73565788999E+02  0.00000000000E+00 0. -1.
         23    2    1    2    0    0  0.35097882749E+02  0.28363971324E+02  0.80244327864E+02  0.12957886955E+03  0.91187471927E+02 0.  0.
        -24    2    1    2    0    0 -0.16109080256E+02 -0.14696221913E+02  0.16594110350E+02  0.86833502461E+02  0.82396670116E+02 0.  0.
         13    1    4    4    0    0 -0.22916209802E+01  0.30903147274E+02 -0.96259010422E+01  0.32448636474E+02  0.00000000000E+00 0. -1.
        -14    1    4    4    0    0 -0.13817459276E+02 -0.45599369187E+02  0.26220011392E+02  0.54384865987E+02  0.00000000000E+00 0.  1.
        -11    1    3    3    0    0  0.55479383743E+02 -0.71305763736E+01  0.26154608372E+02  0.61748446774E+02  0.00000000000E+00 0.  1.
         11    1    3    3    0    0 -0.20381500994E+02  0.35494547697E+02  0.54089719491E+02  0.67830422774E+02  0.00000000000E+00 0. -1.
          2    1    1    2  501    0 -0.18988802493E+02 -0.13667749411E+02 -0.38472403215E+01  0.23710403880E+02  0.00000000000E+00 0. -1.
<scales pt_clust_5="13000.00000" pt_clust_6="13000.00000" pt_clust_7="13000.00000" pt_clust_8="13000.00000" pt_clust_9="23.39620"></scales>
<clustering>
<clus scale="   23.396">  2  9  1 -1</clus>
<clus scale="   82.397">  5  6 -1 -1</clus>
<clus scale="   89.716">  2  5  1 -1</clus>
<clus scale="   91.187">  7  8 -1 -1</clus>
<clus scale="   23.396">  2  5  1 -1</clus>
</clustering>
</event>
<event>
 9    1  0.4067873E-005  0.1042818E+03  0.7546771E-02  0.1280724E+00
         21   -1    0    0  501  502  0.00000000000E+00  0.00000000000E+00  0.51438955132E+02  0.51438955132E+02  0.00000000000E+00 0. -1.
          1   -1    0    0  502    0 -0.00000000000E+00 -0.00000000000E+00 -0.48922638245E+03  0.48922638245E+03  0.00000000000E+00 0. -1.
        -24    2    1    2    0    0  0.19820919049E+02 -0.35071463458E+02 -0.37596886610E+03  0.38660534053E+03  0.80549516875E+02 0.  0.
         23    2    1    2    0    0  0.11091089993E+01 -0.16783810688E+01 -0.47403842207E+02  0.10937889063E+03  0.98552373761E+02 0.  0.
         11    1    3    3    0    0 -0.31223877574E+02 -0.16183413977E+02 -0.12881526795E+03  0.13352979695E+03  0.00000000000E+00 0. -1.
        -12    1    3    3    0    0  0.51044796624E+02 -0.18888049481E+02 -0.24715359815E+03  0.25307554357E+03  0.00000000000E+00 0.  1.
        -11    1    4    4    0    0  0.28500784878E+02 -0.24479591973E+02  0.12567467472E+02  0.39616743941E+02  0.00000000000E+00 0. -1.
         11    1    4    4    0    0 -0.27391675879E+02  0.22801210904E+02 -0.59971309678E+02  0.69762146689E+02  0.00000000000E+00 0.  1.
          2    1    1    2  501    0 -0.20930028049E+02  0.36749844527E+02 -0.14414719013E+02  0.44681106422E+02  0.00000000000E+00 0. -1.
<scales pt_clust_5="13000.00000" pt_clust_6="13000.00000" pt_clust_7="13000.00000" pt_clust_8="13000.00000" pt_clust_9="42.29205"></scales>
<clustering>
<clus scale="   42.292">  1  9  2 -1</clus>
<clus scale="   80.550">  5  6 -1 -1</clus>
<clus scale="   87.466">  2  5  1 -1</clus>
<clus scale="   98.552">  7  8 -1 -1</clus>
<clus scale="   42.292">  1  5  2 -1</clus>
</clustering>
</event>
<event>
 9    1  0.4067873E-005  0.9512891E+02  0.7546771E-02  0.1297029E+00
         21   -1    0    0  501  502  0.00000000000E+00  0.00000000000E+00  0.16363635108E+03  0.16363635108E+03  0.00000000000E+00 0. -1.
          1   -1    0    0  502    0 -0.00000000000E+00 -0.00000000000E+00 -0.18862815324E+03  0.18862815324E+03  0.00000000000E+00 0. -1.
        -24    2    1    2    0    0  0.12779988009E+02 -0.43810646914E+02 -0.87619393306E+02  0.12711178146E+03  0.79984661187E+02 0.  0.
         23    2    1    2    0    0  0.50177600094E+02 -0.73695840562E+01 -0.23699086232E+02  0.10668175946E+03  0.90814364461E+02 0.  0.
         11    1    3    3    0    0  0.34698786843E+02 -0.10945865147E+02 -0.78569167873E+02  0.86584824955E+02  0.00000000000E+00 0. -1.
        -12    1    3    3    0    0 -0.21918798834E+02 -0.32864781767E+02 -0.90502254331E+01  0.40526956502E+02  0.00000000000E+00 0.  1.
        -11    1    4    4    0    0  0.41228381595E+02 -0.35061545529E+02  0.16928128388E+02  0.56706727595E+02  0.00000000000E+00 0. -1.
         11    1    4    4    0    0  0.89492184988E+01  0.27691961472E+02 -0.40627214620E+02  0.49975031863E+02  0.00000000000E+00 0.  1.
          2    1    1    2  501    0 -0.62957588103E+02  0.51180230970E+02  0.86326677385E+02  0.11847096341E+03  0.00000000000E+00 0. -1.
<scales pt_clust_5="13000.00000" pt_clust_6="13000.00000" pt_clust_7="13000.00000" pt_clust_8="13000.00000" pt_clust_9="81.13614"></scales>
<clustering>
<clus scale="   79.985">  5  6 -1 -1</clus>
<clus scale="   81.136">  1  9  2 -1</clus>
<clus scale="   84.852">  2  5  1 -1</clus>
<clus scale="   90.814">  7  8 -1 -1</clus>
<clus scale="   81.136">  1  5  2 -1</clus>
</clustering>
</event>
<event>
 9    1  0.4067873E-005  0.8952143E+02  0.7546771E-02  0.1308315E+00
          1   -1    0    0  502    0 -0.00000000000E+00  0.00000000000E+00  0.14747089243E+03  0.14747089243E+03  0.00000000000E+00 0. -1.
         21   -1    0    0  501  502  0.00000000000E+00 -0.00000000000E+00 -0.14059762297E+03  0.14059762297E+03  0.00000000000E+00 0. -1.
        -24    2    1    2    0    0 -0.26172032057E+02 -0.11519260649E+01  0.60154598326E+02  0.10520590662E+03  0.82239922735E+02 0.  0.
         23    2    1    2    0    0 -0.21837120771E+02  0.10397645319E+02  0.20344002031E+02  0.94482455875E+02  0.89039795473E+02 0.  0.
         13    1    3    3    0    0  0.10171139074E+02  0.34062892370E+02  0.27965175818E+02  0.45230341202E+02  0.00000000000E+00 0. -1.
        -14    1    3    3    0    0 -0.36343171132E+02 -0.35214818435E+02  0.32189422508E+02  0.59975565414E+02  0.00000000000E+00 0.  1.
        -13    1    4    4    0    0 -0.90068663900E+01  0.35327749348E+02 -0.22820555979E+02  0.43011060105E+02  0.00000000000E+00 0. -1.
         13    1    4    4    0    0 -0.12830254381E+02 -0.24930104029E+02  0.43164558010E+02  0.51471395770E+02  0.00000000000E+00 0.  1.
          2    1    1    2  501    0  0.48009152828E+02 -0.92457192539E+01 -0.73625330898E+02  0.88380152917E+02  0.00000000000E+00 0. -1.
<scales pt_clust_5="13000.00000" pt_clust_6="13000.00000" pt_clust_7="13000.00000" pt_clust_8="13000.00000" pt_clust_9="48.89133"></scales>
<clustering>
<clus scale="   48.891">  2  9  1 -1</clus>
<clus scale="   82.240">  5  6 -1 -1</clus>
<clus scale="   82.761">  1  5  2 -1</clus>
<clus scale="   89.040">  7  8 -1 -1</clus>
<clus scale="   48.891">  2  5  1 -1</clus>
</clustering>
</event>
<event>
 9    1  0.4067873E-005  0.1222090E+03  0.7546771E-02  0.1242166E+00
          1   -1    0    0  502    0 -0.00000000000E+00  0.00000000000E+00  0.36058689751E+03  0.36058689751E+03  0.00000000000E+00 0. -1.
         21   -1    0    0  501  502  0.00000000000E+00 -0.00000000000E+00 -0.74301272513E+02  0.74301272513E+02  0.00000000000E+00 0. -1.
         23    2    1    2    0    0 -0.43822067854E+02  0.69560543405E+02  0.24021228092E+03  0.27060863075E+03  0.93637857203E+02 0.  0.
        -24    2    1    2    0    0  0.24018655538E+02 -0.61125122134E+02 -0.63053070587E+01  0.10765044281E+03  0.85062827196E+02 0.  0.
         13    1    4    4    0    0  0.13620197162E+01 -0.31695790075E+02 -0.44319787897E+02  0.54504328318E+02  0.00000000000E+00 0. -1.
        -14    1    4    4    0    0  0.22656635822E+02 -0.29429332059E+02  0.38014480839E+02  0.53146114493E+02  0.00000000000E+00 0.  1.
        -13    1    3    3    0    0 -0.16757336032E+02  0.55054546133E+02  0.23170532065E+03  0.23874498315E+03  0.00000000000E+00 0. -1.
         13    1    3    3    0    0 -0.27064731822E+02  0.14505997271E+02  0.85069602707E+01  0.31863647602E+02  0.00000000000E+00 0.  1.
          2    1    1    2  501    0  0.19803412316E+02 -0.84354212705E+01  0.52378651131E+02  0.56629096458E+02  0.00000000000E+00 0. -1.
<scales pt_clust_5="13000.00000" pt_clust_6="13000.00000" pt_clust_7="13000.00000" pt_clust_8="13000.00000" pt_clust_9="21.52515"></scales>
<clustering>
<clus scale="   21.525">  2  9  1 -1</clus>
<clus scale="   85.063">  5  6 -1 -1</clus>
<clus scale="   93.638">  7  8 -1 -1</clus>
<clus scale="  115.770">  2  5  1 -1</clus>
<clus scale="   21.525">  2  5  1 -1</clus>
</clustering>
</event>
<event>
 9    1  0.4067873E-005  0.9238835E+02  0.7546771E-02  0.1302257E+00
          1   -1    0    0  502    0 -0.00000000000E+00  0.00000000000E+00  0.92946763430E+03  0.92946763430E+03  0.00000000000E+00 0. -1.
         21   -1    0    0  501  502  0.00000000000E+00 -0.00000000000E+00 -0.25722333564E+02  0.25722333564E+02  0.00000000000E+00 0.  1.
        -24    2    1    2    0    0  0.11701170269E+02 -0.43210106818E+00  0.38615305781E+03  0.39468626562E+03  0.80783414821E+02 0.  0.
         23    2    1    2    0    0  0.33797528047E+02  0.63304336508E+02  0.42245574884E+03  0.43772747473E+03  0.89368733234E+02 0.  0.
         11    1    3    3    0    0 -0.25001786983E+02 -0.26477201510E+02  0.15886320201E+03  0.16298358354E+03  0.00000000000E+00 0. -1.
        -12    1    3    3    0    0  0.36702957251E+02  0.26045100441E+02  0.22728985581E+03  0.23170268208E+03  0.00000000000E+00 0.  1.
        -11    1    4    4    0    0  0.42064269100E+02  0.81582106028E+02  0.30294990066E+03  0.31654965656E+03  0.00000000000E+00 0.  1.
         11    1    4    4    0    0 -0.82667410522E+01 -0.18277769520E+02  0.11950584818E+03  0.12117781817E+03  0.00000000000E+00 0. -1.
          2    1    1    2  501    0 -0.45498698316E+02 -0.62872235440E+02  0.95136494079E+02  0.12277622752E+03  0.00000000000E+00 0. -1.
<scales pt_clust_5="13000.00000" pt_clust_6="13000.00000" pt_clust_7="13000.00000" pt_clust_8="13000.00000" pt_clust_9="77.60831"></scales>
<clustering>
<clus scale="   77.608">  2  9  1 -1</clus>
<clus scale="   80.783">  5  6 -1 -1</clus>
<clus scale="   84.112">  1  5  2 -1</clus>
<clus scale="   89.369">  7  8 -1 -1</clus>
<clus scale="   77.608">  2  5  1 -1</clus>
</clustering>
</event>
<event>
 9    1  0.4067873E-005  0.9569266E+02  0.7546771E-02  0.1295813E+00
          1   -1    0    0  502    0 -0.00000000000E+00  0.00000000000E+00  0.94161999283E+03  0.94161999283E+03  0.00000000000E+00 0. -1.
         21   -1    0    0  501  502  0.00000000000E+00 -0.00000000000E+00 -0.18977340643E+02  0.18977340643E+02  0.00000000000E+00 0. -1.
        -24    2    1    2    0    0  0.21410315417E+02 -0.69503373472E+00  0.35541646042E+03  0.36532306037E+03  0.81738567529E+02 0.  0.
         23    2    1    2    0    0  0.12299541505E+02  0.60939879646E+02  0.34509776329E+03  0.36266551435E+03  0.92568144717E+02 0.  0.
         11    1    3    3    0    0 -0.25136890149E+02 -0.19660140917E+02  0.98644803195E+02  0.10367825994E+03  0.00000000000E+00 0. -1.
        -12    1    3    3    0    0  0.46547205566E+02  0.18965107182E+02  0.25677165722E+03  0.26164480043E+03  0.00000000000E+00 0.  1.
        -11    1    4    4    0    0  0.35499049979E+02 -0.39467931581E+00  0.20410152368E+03  0.20716604522E+03  0.00000000000E+00 0.  1.
         11    1    4    4    0    0 -0.23199508474E+02  0.61334558962E+02  0.14099623961E+03  0.15549946913E+03  0.00000000000E+00 0. -1.
          2    1    1    2  501    0 -0.33709856922E+02 -0.60244845911E+02  0.22212842848E+03  0.23260875876E+03  0.00000000000E+00 0. -1.
<scales pt_clust_5="13000.00000" pt_clust_6="13000.00000" pt_clust_7="13000.00000" pt_clust_8="13000.00000" pt_clust_9="69.03474"></scales>
<clustering>
<clus scale="   69.035">  2  9  1 -1</clus>
<clus scale="   81.739">  5  6 -1 -1</clus>
<clus scale="   85.261">  1  5  2 -1</clus>
<clus scale="   92.568">  7  8 -1 -1</clus>
<clus scale="   69.035">  2  5  1 -1</clus>
</clustering>
</event>
<event>
 9    1  0.4067873E-005  0.2980475E+03  0.7546771E-02  0.1086221E+00
         21   -1    0    0  501  502  0.00000000000E+00  0.00000000000E+00  0.14702839118E+03  0.14702839118E+03  0.00000000000E+00 0. -1.
          1   -1    0    0  502    0 -0.00000000000E+00 -0.00000000000E+00 -0.62066501710E+03  0.62066501710E+03  0.00000000000E+00 0. -1.
        -24    2    1    2    0    0  0.14642562572E+03  0.26184756771E+02 -0.27276154187E+03  0.32075636046E+03  0.79747593703E+02 0.  0.
         23    2    1    2    0    0  0.79321319690E+02  0.40603029145E+02 -0.16494739576E+03  0.20879194396E+03  0.91901875720E+02 0.  0.
         11    1    3    3    0    0  0.64097242778E+02  0.18388388330E+02 -0.19924091774E+03  0.21010362362E+03  0.00000000000E+00 0. -1.
        -12    1    3    3    0    0  0.82328382942E+02  0.77963684411E+01 -0.73520624131E+02  0.11065273685E+03  0.00000000000E+00 0.  1.
        -11    1    4    4    0    0  0.44525757676E+02 -0.25198460771E+02 -0.47923847363E+02  0.70101359958E+02  0.00000000000E+00 0.  1.
         11    1    4    4    0    0  0.34795562014E+02  0.65801489916E+02 -0.11702354840E+03  0.13869058400E+03  0.00000000000E+00 0. -1.
          2    1    1    2  501    0 -0.22574694541E+03 -0.66787785916E+02 -0.35927688291E+02  0.23814510387E+03  0.00000000000E+00 0. -1.
<scales pt_clust_5="13000.00000" pt_clust_6="13000.00000" pt_clust_7="13000.00000" pt_clust_8="13000.00000" pt_clust_9="235.41940"></scales>
<clustering>
<clus scale="   79.748">  5  6 -1 -1</clus>
<clus scale="   91.902">  7  8 -1 -1</clus>
<clus scale="   96.070">  5  7 -1 -1</clus>
<clus scale="  235.419">  1  9  2 -1</clus>
<clus scale="  235.419">  1  5  2 -1</clus>
</clustering>
</event>
<event>
 9    1  0.4067873E-005  0.9267039E+02  0.7546771E-02  0.1303214E+00
         21   -1    0    0  501  502  0.00000000000E+00  0.00000000000E+00  0.65053274962E+02  0.65053274962E+02  0.00000000000E+00 0. -1.
          1   -1    0    0  502    0 -0.00000000000E+00 -0.00000000000E+00 -0.17721427332E+03  0.17721427332E+03  0.00000000000E+00 0. -1.
         23    2    1    2    0    0 -0.60108244421E+01 -0.20828598595E+02 -0.74508021792E+02  0.12063739766E+03  0.92368695302E+02 0.  0.
        -24    2    1    2    0    0 -0.97249851143E+00 -0.11645657260E+02 -0.25176984947E+02  0.86147838701E+02  0.81553678369E+02 0.  0.
         13    1    4    4    0    0 -0.40729570124E+02 -0.53311328969E+01 -0.19581045143E+02  0.45505342427E+02  0.00000000000E+00 0. -1.
        -14    1    4    4    0    0  0.39757071613E+02 -0.63145243632E+01 -0.55959398041E+01  0.40642496275E+02  0.00000000000E+00 0.  1.
        -11    1    3    3    0    0  0.25192656586E+02  0.27535603816E+02 -0.29080344588E+02  0.47313273663E+02  0.00000000000E+00 0.  1.
         11    1    3    3    0    0 -0.31203481028E+02 -0.48364202411E+02 -0.45427677205E+02  0.73324123993E+02  0.00000000000E+00 0. -1.
          2    1    1    2  501    0  0.69833229536E+01  0.32474255855E+02 -0.12475991622E+02  0.35482311928E+02  0.00000000000E+00 0. -1.
<scales pt_clust_5="13000.00000" pt_clust_6="13000.00000" pt_clust_7="13000.00000" pt_clust_8="13000.00000" pt_clust_9="33.21662"></scales>
<clustering>
<clus scale="   33.217">  1  9  2 -1</clus>
<clus scale="   81.554">  5  6 -1 -1</clus>
<clus scale="   81.895">  1  5  2 -1</clus>
<clus scale="   92.369">  7  8 -1 -1</clus>
<clus scale="   33.217">  1  5  2 -1</clus>
</clustering>
</event>
<event>
 9    1  0.4067873E-005  0.9790157E+02  0.7546771E-02  0.1291895E+00
         21   -1    0    0  501  502  0.00000000000E+00  0.00000000000E+00  0.15597334792E+03  0.15597334792E+03  0.00000000000E+00 0. -1.
         -2   -1    0    0    0  501 -0.00000000000E+00 -0.00000000000E+00 -0.93670977348E+02  0.93670977348E+02  0.00000000000E+00 0.  1.
         23    2    1    2    0    0  0.10665276876E+02 -0.20691279905E+02 -0.31921581982E+02  0.10170211835E+03  0.93714760232E+02 0.  0.
        -24    2    1    2    0    0 -0.30203886900E+02  0.31345775194E+02  0.75917784844E+02  0.11912569555E+03  0.80824432429E+02 0.  0.
         13    1    4    4    0    0 -0.37375136774E+02  0.26696781129E+02  0.90918275943E+02  0.10186143466E+03  0.00000000000E+00 0. -1.
        -14    1    4    4    0    0  0.71712498745E+01  0.46489940657E+01 -0.15000491099E+02  0.17264260882E+02  0.00000000000E+00 0.  1.
        -11    1    3    3    0    0 -0.41271556141E+02 -0.13031290589E+02 -0.80124095169E+01  0.44015390342E+02  0.00000000000E+00 0. -1.
         11    1    3    3    0    0  0.51936833017E+02 -0.76599893159E+01 -0.23909172465E+02  0.57686728007E+02  0.00000000000E+00 0.  1.
         -1    1    1    2    0  502  0.19538610023E+02 -0.10654495290E+02  0.18306167713E+02  0.28816511376E+02  0.00000000000E+00 0.  1.
<scales pt_clust_5="13000.00000" pt_clust_6="13000.00000" pt_clust_7="13000.00000" pt_clust_8="13000.00000" pt_clust_9="22.25479"></scales>
<clustering>
<clus scale="   22.255">  1  9  2 -1</clus>
<clus scale="   80.824">  5  6 -1 -1</clus>
<clus scale="   85.644">  1  5  2 -1</clus>
<clus scale="   93.715">  7  8 -1 -1</clus>
<clus scale="   22.255">  1  5  2 -1</clus>
</clustering>
</event>
<event>
 9    1  0.4067873E-005  0.1605944E+03  0.7546771E-02  0.1206074E+00
          3   -1    0    0  502    0 -0.00000000000E+00  0.00000000000E+00  0.75483783411E+03  0.75483783411E+03  0.00000000000E+00 0. -1.
         21   -1    0    0  501  502  0.00000000000E+00 -0.00000000000E+00 -0.57332327249E+02  0.57332327249E+02  0.00000000000E+00 0. -1.
         23    2    1    2    0    0 -0.47944940832E+02  0.34920180770E+02  0.14831882715E+03  0.18365103410E+03  0.90615073038E+02 0.  0.
        -24    2    1    2    0    0 -0.27262676712E+02 -0.14731379930E+03  0.28679030845E+03  0.33332365495E+03  0.80071024239E+02 0.  0.
         11    1    4    4    0    0  0.11569562054E+02 -0.11039489986E+03  0.22919314745E+03  0.25465739243E+03  0.00000000000E+00 0. -1.
        -12    1    4    4    0    0 -0.38832238766E+02 -0.36918899438E+02  0.57597160993E+02  0.78666262513E+02  0.00000000000E+00 0.  1.
        -13    1    3    3    0    0  0.15585522626E+01  0.26199260622E+02  0.12591021700E+03  0.12861653505E+03  0.00000000000E+00 0.  1.
         13    1    3    3    0    0 -0.49503493094E+02  0.87209201483E+01  0.22408610145E+02  0.55034499048E+02  0.00000000000E+00 0. -1.
          4    1    1    2  501    0  0.75207617544E+02  0.11239361853E+03  0.26239637127E+03  0.29519547232E+03  0.00000000000E+00 0. -1.
<scales pt_clust_5="13000.00000" pt_clust_6="13000.00000" pt_clust_7="13000.00000" pt_clust_8="13000.00000" pt_clust_9="139.20921"></scales>
<clustering>
<clus scale="   80.071">  5  6 -1 -1</clus>
<clus scale="   90.615">  7  8 -1 -1</clus>
<clus scale="  108.302">  1  7  2 -1</clus>
<clus scale="  139.209">  2  9  1 -1</clus>
<clus scale="  139.209">  2  5  1 -1</clus>
</clustering>
</event>
<event>
 9    1  0.4067873E-005  0.1675603E+03  0.7546771E-02  0.1214181E+00
         21   -1    0    0  501  502  0.00000000000E+00  0.00000000000E+00  0.66540377472E+02  0.66540377472E+02  0.00000000000E+00 0.  1.
          1   -1    0    0  502    0 -0.00000000000E+00 -0.00000000000E+00 -0.67514505048E+03  0.67514505048E+03  0.00000000000E+00 0. -1.
        -24    2    1    2    0    0  0.42690283310E+00 -0.13550910990E+02 -0.26089380766E+03  0.27294077707E+03  0.79039733522E+02 0.  0.
         23    2    1    2    0    0  0.11604827711E+03  0.84167604095E+02 -0.14056195018E+03  0.22082559566E+03  0.91950495700E+02 0.  0.
         11    1    3    3    0    0  0.28208946335E+02 -0.29321722347E+02 -0.20082513804E+03  0.20490545167E+03  0.00000000000E+00 0. -1.
        -12    1    3    3    0    0 -0.27782043502E+02  0.15770811357E+02 -0.60068669623E+02  0.68035325400E+02  0.00000000000E+00 0.  1.
        -13    1    4    4    0    0  0.60965240538E+02  0.58658701392E+02 -0.13572016592E+03  0.15992988226E+03  0.00000000000E+00 0.  1.
         13    1    4    4    0    0  0.55083036576E+02  0.25508902703E+02 -0.48417842618E+01  0.60895713399E+02  0.00000000000E+00 0. -1.
          2    1    1    2  501    0 -0.11647517995E+03 -0.70616693105E+02 -0.20714891516E+03  0.24791905522E+03  0.00000000000E+00 0. -1.
<scales pt_clust_5="13000.00000" pt_clust_6="13000.00000" pt_clust_7="13000.00000" pt_clust_8="13000.00000" pt_clust_9="140.07711"></scales>
<clustering>
<clus scale="   79.040">  5  6 -1 -1</clus>
<clus scale="   80.194">  2  5  1 -1</clus>
<clus scale="   91.950">  7  8 -1 -1</clus>
<clus scale="  140.077">  1  9  2 -1</clus>
<clus scale="  140.077">  1  5  2 -1</clus>
</clustering>
</event>
<event>
 9    1  0.4067873E-005  0.1352118E+03  0.7546771E-02  0.1229769E+00
         -2   -1    0    0    0  501 -0.00000000000E+00  0.00000000000E+00  0.11554057129E+04  0.11554057129E+04  0.00000000000E+00 0.  1.
         21   -1    0    0  501  502  0.00000000000E+00 -0.00000000000E+00 -0.50300259380E+02  0.50300259380E+02  0.00000000000E+00 0.  1.
        -24    2    1    2    0    0 -0.77919976233E+02  0.45120592162E+01  0.50109292694E+02  0.12100061746E+03  0.77706671763E+02 0.  0.
         23    2    1    2    0    0  0.31954160212E+01  0.92545092687E+02  0.50959195493E+03  0.52571555308E+03  0.90100373817E+02 0.  0.
         13    1    3    3    0    0 -0.13197269159E+02  0.34748043537E+02  0.26919563183E+02  0.45893979179E+02  0.00000000000E+00 0. -1.
        -14    1    3    3    0    0 -0.64722707074E+02 -0.30235984321E+02  0.23189729512E+02  0.75106638280E+02  0.00000000000E+00 0.  1.
        -13    1    4    4    0    0  0.35823492225E+02  0.34338582436E+02  0.11114281647E+03  0.12171765070E+03  0.00000000000E+00 0. -1.
         13    1    4    4    0    0 -0.32628076203E+02  0.58206510251E+02  0.39844913846E+03  0.40399790239E+03  0.00000000000E+00 0.  1.
         -1    1    1    2    0  502  0.74724560212E+02 -0.97057151903E+02  0.54540420586E+03  0.55898980170E+03  0.00000000000E+00 0.  1.
<scales pt_clust_5="13000.00000" pt_clust_6="13000.00000" pt_clust_7="13000.00000" pt_clust_8="13000.00000" pt_clust_9="100.81748"></scales>
<clustering>
<clus scale="   77.707">  5  6 -1 -1</clus>
<clus scale="   90.100">  7  8 -1 -1</clus>
<clus scale="  110.137">  1  5  2 -1</clus>
<clus scale="  100.817">  2  9  1 -1</clus>
<clus scale="  100.817">  2  5  1 -1</clus>
</clustering>
</event>
<event>
 9    1  0.4067873E-005  0.1209016E+03  0.7546771E-02  0.1244955E+00
         21   -1    0    0  501  502  0.00000000000E+00  0.00000000000E+00  0.73253124498E+03  0.73253124498E+03  0.00000000000E+00 0. -1.
         -2   -1    0    0    0  501 -0.00000000000E+00 -0.00000000000E+00 -0.41207769007E+02  0.41207769007E+02  0.00000000000E+00 0.  1.
         23    2    1    2    0    0  0.41061053050E+02  0.20648202823E+02  0.20447460121E+03  0.22850547079E+03  0.91063325685E+02 0.  0.
        -24    2    1    2    0    0 -0.13143873670E+03 -0.10475650742E+02  0.29730812307E+03  0.33500199687E+03  0.80301538582E+02 0.  0.
         11    1    4    4    0    0 -0.53903542147E+02  0.10735108226E+00  0.21408282560E+03  0.22076471547E+03  0.00000000000E+00 0. -1.
        -12    1    4    4    0    0 -0.77535194554E+02 -0.10583001824E+02  0.83225297472E+02  0.11423728140E+03  0.00000000000E+00 0.  1.
        -11    1    3    3    0    0 -0.52517144255E+01  0.42522733229E+02  0.50454368787E+02  0.66192194973E+02  0.00000000000E+00 0. -1.
         11    1    3    3    0    0  0.46312767476E+02 -0.21874530405E+02  0.15402023242E+03  0.16231327582E+03  0.00000000000E+00 0.  1.
         -1    1    1    2    0  502  0.90377683651E+02 -0.10172552082E+02  0.18954075169E+03  0.21023154632E+03  0.00000000000E+00 0.  1.
<scales pt_clust_5="13000.00000" pt_clust_6="13000.00000" pt_clust_7="13000.00000" pt_clust_8="13000.00000" pt_clust_9="90.94837"></scales>
<clustering>
<clus scale="   80.302">  5  6 -1 -1</clus>
<clus scale="   90.948">  1  9  2 -1</clus>
<clus scale="   91.063">  7  8 -1 -1</clus>
<clus scale="  113.018">  1  5  2 -1</clus>
<clus scale="   90.948">  1  5  2 -1</clus>
</clustering>
</event>
<event>
 9    1  0.4067873E-005  0.1726866E+03  0.7546771E-02  0.1198896E+00
         21   -1    0    0  501  502  0.00000000000E+00  0.00000000000E+00  0.44477028402E+03  0.44477028402E+03  0.00000000000E+00 0.  1.
         -2   -1    0    0    0  501 -0.00000000000E+00 -0.00000000000E+00 -0.12969301245E+03  0.12969301245E+03  0.00000000000E+00 0.  1.
        -24    2    1    2    0    0 -0.55108756540E+02  0.30705935585E+02 -0.16985973232E+02  0.10314334778E+03  0.79813516253E+02 0.  0.
         23    2    1    2    0    0 -0.38727089504E+02  0.10312272562E+03  0.66113407863E+02  0.15915878465E+03  0.93949199202E+02 0.  0.
         11    1    3    3    0    0 -0.32944368969E+02 -0.36693831864E+01  0.27239000658E+02  0.42904067133E+02  0.00000000000E+00 0. -1.
        -12    1    3    3    0    0 -0.22164387571E+02  0.34375318772E+02 -0.44224973890E+02  0.60239280645E+02  0.00000000000E+00 0.  1.
        -13    1    4    4    0    0  0.29798099057E+02  0.22955361335E+02  0.70072663747E+01  0.38261953733E+02  0.00000000000E+00 0. -1.
         13    1    4    4    0    0 -0.68525188560E+02  0.80167364289E+02  0.59106141488E+02  0.12089683092E+03  0.00000000000E+00 0.  1.
         -1    1    1    2    0  502  0.93835846044E+02 -0.13382866121E+03  0.26594983695E+03  0.31216116404E+03  0.00000000000E+00 0.  1.
<scales pt_clust_5="13000.00000" pt_clust_6="13000.00000" pt_clust_7="13000.00000" pt_clust_8="13000.00000" pt_clust_9="144.89373"></scales>
<clustering>
<clus scale="   79.814">  5  6 -1 -1</clus>
<clus scale="   93.949">  7  8 -1 -1</clus>
<clus scale="  101.735">  2  5  1 -1</clus>
<clus scale="  144.894">  1  9  2 -1</clus>
<clus scale="  144.894">  1  5  2 -1</clus>
</clustering>
</event>
<event>
 9    1  0.4067873E-005  0.2239740E+03  0.7546771E-02  0.1159955E+00
         -2   -1    0    0    0  501 -0.00000000000E+00  0.00000000000E+00  0.50087386924E+03  0.50087386924E+03  0.00000000000E+00 0.  1.
         21   -1    0    0  501  502  0.00000000000E+00 -0.00000000000E+00 -0.15141462466E+03  0.15141462466E+03  0.00000000000E+00 0.  1.
        -24    2    1    2    0    0 -0.65125086871E+02 -0.42659113569E+02  0.80797753277E+02  0.13811872552E+03  0.80544574577E+02 0.  0.
         23    2    1    2    0    0 -0.32869495083E+02  0.21665465942E+03  0.16541265594E+03  0.28936382969E+03  0.91380709278E+02 0.  0.
         13    1    3    3    0    0 -0.31247874751E+02 -0.25731608595E+02 -0.82869145610E+01  0.41318498403E+02  0.00000000000E+00 0. -1.
        -14    1    3    3    0    0 -0.33877212120E+02 -0.16927504973E+02  0.89084667839E+02  0.96800227115E+02  0.00000000000E+00 0.  1.
        -13    1    4    4    0    0 -0.13120987068E+02  0.58172154413E+02  0.10072145907E+03  0.11705115193E+03  0.00000000000E+00 0. -1.
         13    1    4    4    0    0 -0.19748508015E+02  0.15848250501E+03  0.64691196871E+02  0.17231267776E+03  0.00000000000E+00 0.  1.
         -1    1    1    2    0  502  0.97994581954E+02 -0.17399554585E+03  0.10324883536E+03  0.22480593869E+03  0.00000000000E+00 0.  1.
<scales pt_clust_5="13000.00000" pt_clust_6="13000.00000" pt_clust_7="13000.00000" pt_clust_8="13000.00000" pt_clust_9="204.48456"></scales>
<clustering>
<clus scale="   80.545">  5  6 -1 -1</clus>
<clus scale="   91.381">  7  8 -1 -1</clus>
<clus scale="  112.020">  1  5  2 -1</clus>
<clus scale="  204.485">  2  9  1 -1</clus>
<clus scale="  204.485">  2  5  1 -1</clus>
</clustering>
</event>
<event>
 9    1  0.4067873E-005  0.1004866E+03  0.7546771E-02  0.1284629E+00
          3   -1    0    0  502    0 -0.00000000000E+00  0.00000000000E+00  0.44280489705E+02  0.44280489705E+02  0.00000000000E+00 0. -1.
         21   -1    0    0  501  502  0.00000000000E+00 -0.00000000000E+00 -0.52954622012E+03  0.52954622012E+03  0.00000000000E+00 0. -1.
        -24    2    1    2    0    0  0.60672565625E+02 -0.45153848975E+01 -0.69131602623E+02  0.12233906028E+03  0.80536440633E+02 0.  0.
         23    2    1    2    0    0  0.16077900216E+02  0.11206393007E+02 -0.27862096181E+03  0.29386381120E+03  0.91335738077E+02 0.  0.
         11    1    3    3    0    0  0.47632203677E+02  0.15592601671E+02 -0.10154592483E+01  0.50129703884E+02  0.00000000000E+00 0. -1.
        -12    1    3    3    0    0  0.13040361948E+02 -0.20107986569E+02 -0.68116143375E+02  0.72209356401E+02  0.00000000000E+00 0.  1.
        -11    1    4    4    0    0  0.11865648301E+02  0.51421820142E+02 -0.16734011714E+03  0.17546427557E+03  0.00000000000E+00 0. -1.
         11    1    4    4    0    0  0.42122519155E+01 -0.40215427136E+02 -0.11128084467E+03  0.11839953563E+03  0.00000000000E+00 0.  1.
          4    1    1    2  501    0 -0.76750465841E+02 -0.66910081092E+01 -0.13751316598E+03  0.15762383834E+03  0.00000000000E+00 0. -1.
<scales pt_clust_5="13000.00000" pt_clust_6="13000.00000" pt_clust_7="13000.00000" pt_clust_8="13000.00000" pt_clust_9="77.04157"></scales>
<clustering>
<clus scale="   77.042">  2  9  1 -1</clus>
<clus scale="   80.536">  5  6 -1 -1</clus>
<clus scale="   90.782">  1  5  2 -1</clus>
<clus scale="   91.336">  7  8 -1 -1</clus>
<clus scale="   77.042">  2  5  1 -1</clus>
</clustering>
</event>
<event>
 9    1  0.4067873E-005  0.1157196E+03  0.7546771E-02  0.1254643E+00
          1   -1    0    0  502    0 -0.00000000000E+00  0.00000000000E+00  0.27728054679E+03  0.27728054679E+03  0.00000000000E+00 0. -1.
         21   -1    0    0  501  502  0.00000000000E+00 -0.00000000000E+00 -0.18286601737E+03  0.18286601737E+03  0.00000000000E+00 0.  1.
         23    2    1    2    0    0 -0.53001969178E+02 -0.51852254794E+02  0.22720998789E+03  0.25580370528E+03  0.91177255772E+02 0.  0.
        -24    2    1    2    0    0  0.49036400317E+02  0.31544583608E+02 -0.34481564676E+02  0.10387520757E+03  0.78749292909E+02 0.  0.
         13    1    4    4    0    0 -0.14965554063E+02  0.30429396822E+02 -0.10175347727E+02  0.35404148072E+02  0.00000000000E+00 0. -1.
        -14    1    4    4    0    0  0.64001954380E+02  0.11151867859E+01 -0.24306216950E+02  0.68471059496E+02  0.00000000000E+00 0.  1.
        -13    1    3    3    0    0 -0.48961063641E+02 -0.77431847798E+02  0.17860373690E+03  0.20072910013E+03  0.00000000000E+00 0. -1.
         13    1    3    3    0    0 -0.40409055374E+01  0.25579593004E+02  0.48606250998E+02  0.55074605145E+02  0.00000000000E+00 0.  1.
          2    1    1    2  501    0  0.39655688615E+01  0.20307671187E+02 -0.98313893797E+02  0.10046765131E+03  0.00000000000E+00 0. -1.
<scales pt_clust_5="13000.00000" pt_clust_6="13000.00000" pt_clust_7="13000.00000" pt_clust_8="13000.00000" pt_clust_9="20.69124"></scales>
<clustering>
<clus scale="   20.691">  2  9  1 -1</clus>
<clus scale="   78.749">  5  6 -1 -1</clus>
<clus scale="   91.177">  7  8 -1 -1</clus>
<clus scale="  106.203">  2  5  1 -1</clus>
<clus scale="   20.691">  2  5  1 -1</clus>
</clustering>
</event>
<event>
 9    1  0.4067873E-005  0.1089422E+03  0.7546771E-02  0.1265862E+00
         -4   -1    0    0    0  501 -0.00000000000E+00  0.00000000000E+00  0.18421172550E+03  0.18421172550E+03  0.00000000000E+00 0.  1.
         21   -1    0    0  501  502  0.00000000000E+00 -0.00000000000E+00 -0.17676698004E+03  0.17676698004E+03  0.00000000000E+00 0. -1.
         23    2    1    2    0    0  0.48055936139E+02 -0.31748267479E+02  0.10851361276E+03  0.15227670756E+03  0.89975919138E+02 0.  0.
        -24    2    1    2    0    0 -0.46024762721E+02  0.58135962473E+02 -0.64129964196E+01  0.11041583412E+03  0.81562620020E+02 0.  0.
         13    1    4    4    0    0 -0.15407534365E+01  0.35440988949E+02 -0.37476875482E+02  0.51603815893E+02  0.00000000000E+00 0. -1.
        -14    1    4    4    0    0 -0.44484009285E+02  0.22694973524E+02  0.31063879062E+02  0.58812018225E+02  0.00000000000E+00 0.  1.
        -13    1    3    3    0    0  0.66608258105E+02 -0.10811089883E+02  0.10395107921E+03  0.12393291162E+03  0.00000000000E+00 0.  1.
         13    1    3    3    0    0 -0.18552321967E+02 -0.20937177596E+02  0.45625335477E+01  0.28343795942E+02  0.00000000000E+00 0. -1.
         -3    1    1    2    0  502 -0.20311734172E+01 -0.26387694994E+02 -0.94655870889E+02  0.98286163860E+02  0.00000000000E+00 0.  1.
<scales pt_clust_5="13000.00000" pt_clust_6="13000.00000" pt_clust_7="13000.00000" pt_clust_8="13000.00000" pt_clust_9="26.46575"></scales>
<clustering>
<clus scale="   26.466">  2  9  1 -1</clus>
<clus scale="   81.563">  5  6 -1 -1</clus>
<clus scale="   89.976">  7  8 -1 -1</clus>
<clus scale="  102.104">  2  5  1 -1</clus>
<clus scale="   26.466">  2  5  1 -1</clus>
</clustering>
</event>
<event>
 9    1  0.4067873E-005  0.1978769E+03  0.7546771E-02  0.1152679E+00
          1   -1    0    0  502    0 -0.00000000000E+00  0.00000000000E+00  0.68245724827E+03  0.68245724827E+03  0.00000000000E+00 0. -1.
         21   -1    0    0  501  502  0.00000000000E+00 -0.00000000000E+00 -0.91050129695E+02  0.91050129695E+02  0.00000000000E+00 0. -1.
         23    2    1    2    0    0  0.63538905071E+02  0.15771527206E+03  0.43204341539E+03  0.47323334163E+03  0.91525861670E+02 0.  0.
        -24    2    1    2    0    0 -0.82272907213E+02 -0.17516994565E+03  0.92702465568E+02  0.22886430963E+03  0.79572507697E+02 0.  0.
         13    1    4    4    0    0 -0.62969387157E+02 -0.47949182367E+02  0.22501662650E+02  0.82283610948E+02  0.00000000000E+00 0. -1.
        -14    1    4    4    0    0 -0.19303520056E+02 -0.12722076328E+03  0.70200802918E+02  0.14658069868E+03  0.00000000000E+00 0.  1.
        -13    1    3    3    0    0  0.39075481865E+02  0.15693784089E+03  0.40816665300E+03  0.43904031228E+03  0.00000000000E+00 0.  1.
         13    1    3    3    0    0  0.24463423206E+02  0.77743116812E+00  0.23876762391E+02  0.34193029355E+02  0.00000000000E+00 0. -1.
          2    1    1    2  501    0  0.18734002142E+02  0.17454673588E+02  0.66661237617E+02  0.71409726697E+02  0.00000000000E+00 0. -1.
<scales pt_clust_5="13000.00000" pt_clust_6="13000.00000" pt_clust_7="13000.00000" pt_clust_8="13000.00000" pt_clust_9="25.60526"></scales>
<clustering>
<clus scale="   25.605">  2  9  1 -1</clus>
<clus scale="   79.573">  5  6 -1 -1</clus>
<clus scale="   91.526">  7  8 -1 -1</clus>
<clus scale="  192.640">  2  5  1 -1</clus>
<clus scale="   25.605">  2  5  1 -1</clus>
</clustering>
</event>
<event>
 9    1  0.4067873E-005  0.4371027E+03  0.7546771E-02  0.1031849E+00
          1   -1    0    0  502    0 -0.00000000000E+00  0.00000000000E+00  0.13359875197E+04  0.13359875197E+04  0.00000000000E+00 0. -1.
         21   -1    0    0  501  502  0.00000000000E+00 -0.00000000000E+00 -0.35809611530E+03  0.35809611530E+03  0.00000000000E+00 0.  1.
         23    2    1    2    0    0 -0.10839526636E+03  0.40895420951E+03  0.97189255419E+03  0.10640139888E+04  0.92507039133E+02 0.  0.
        -24    2    1    2    0    0  0.10296307652E+03 -0.42931606215E+03  0.15885976780E+03  0.47576289366E+03  0.78741531678E+02 0.  0.
         13    1    4    4    0    0  0.30816424375E+01 -0.14478273850E+03  0.73272648534E+02  0.16229731640E+03  0.00000000000E+00 0. -1.
        -14    1    4    4    0    0  0.99881434084E+02 -0.28453332364E+03  0.85587119267E+02  0.31346557725E+03  0.00000000000E+00 0.  1.
        -13    1    3    3    0    0 -0.27472002556E+02  0.94868437371E+02  0.14180361185E+03  0.17280913074E+03  0.00000000000E+00 0.  1.
         13    1    3    3    0    0 -0.80923263803E+02  0.31408577214E+03  0.83008894234E+03  0.89120485809E+03  0.00000000000E+00 0. -1.
          2    1    1    2  501    0  0.54321898367E+01  0.20361852636E+02 -0.15286091762E+03  0.15430675249E+03  0.00000000000E+00 0. -1.
<scales pt_clust_5="13000.00000" pt_clust_6="13000.00000" pt_clust_7="13000.00000" pt_clust_8="13000.00000" pt_clust_9="21.07401"></scales>
<clustering>
<clus scale="   21.074">  2  9  1 -1</clus>
<clus scale="   78.742">  5  6 -1 -1</clus>
<clus scale="   92.507">  7  8 -1 -1</clus>
<clus scale="  434.398">  2  5  1 -1</clus>
<clus scale="   21.074">  2  5  1 -1</clus>
</clustering>
</event>
<event>
 9    1  0.4067873E-005  0.1382577E+03  0.7546771E-02  0.1218404E+00
          1   -1    0    0  502    0 -0.00000000000E+00  0.00000000000E+00  0.20242464067E+03  0.20242464067E+03  0.00000000000E+00 0. -1.
         21   -1    0    0  501  502  0.00000000000E+00 -0.00000000000E+00 -0.21529878116E+03  0.21529878116E+03  0.00000000000E+00 0.  1.
         23    2    1    2    0    0 -0.59762217491E+02 -0.90031446727E+02  0.11981964809E+03  0.18685419297E+03  0.94236708998E+02 0.  0.
        -24    2    1    2    0    0  0.40264661779E+02  0.76162231121E+02 -0.26773837397E+02  0.12228034417E+03  0.82545234646E+02 0.  0.
         13    1    4    4    0    0  0.56697072105E+02  0.51436561482E+02  0.75203491866E+01  0.76920956145E+02  0.00000000000E+00 0. -1.
        -14    1    4    4    0    0 -0.16432410326E+02  0.24725669640E+02 -0.34294186583E+02  0.45359388021E+02  0.00000000000E+00 0.  1.
        -13    1    3    3    0    0 -0.18891255088E+02 -0.60292151041E+02  0.12077069570E+03  0.13629961091E+03  0.00000000000E+00 0.  1.
         13    1    3    3    0    0 -0.40870962403E+02 -0.29739295685E+02 -0.95104760355E+00  0.50554582059E+02  0.00000000000E+00 0. -1.
          2    1    1    2  501    0  0.19497555711E+02  0.13869215605E+02 -0.10591995118E+03  0.10858888469E+03  0.00000000000E+00 0. -1.
<scales pt_clust_5="13000.00000" pt_clust_6="13000.00000" pt_clust_7="13000.00000" pt_clust_8="13000.00000" pt_clust_9="23.92718"></scales>
<clustering>
<clus scale="   23.927">  2  9  1 -1</clus>
<clus scale="   82.545">  5  6 -1 -1</clus>
<clus scale="   94.237">  7  8 -1 -1</clus>
<clus scale="  130.569">  2  5  1 -1</clus>
<clus scale="   23.927">  2  5  1 -1</clus>
</clustering>
</event>
<event>
 9    1  0.4067873E-005  0.1301401E+03  0.7546771E-02  0.1229990E+00
         -2   -1    0    0    0  501 -0.00000000000E+00  0.00000000000E+00  0.28225975613E+03  0.28225975613E+03  0.00000000000E+00 0.  1.
         21   -1    0    0  501  502  0.00000000000E+00 -0.00000000000E+00 -0.25321317386E+03  0.25321317386E+03  0.00000000000E+00 0.  1.
        -24    2    1    2    0    0  0.96150905238E+02  0.11337725892E+02  0.10983821057E+03  0.16681670231E+03  0.79936468911E+02 0.  0.
         23    2    1    2    0    0 -0.71922625924E+02  0.49028910524E+02 -0.19806579796E+03  0.23455040685E+03  0.90593238422E+02 0.  0.
         13    1    3    3    0    0  0.13751366641E+01  0.20929749053E+02 -0.58378070786E+00  0.20982997788E+02  0.00000000000E+00 0. -1.
        -14    1    3    3    0    0  0.94775768574E+02 -0.95920231605E+01  0.11042199127E+03  0.14583370452E+03  0.00000000000E+00 0.  1.
        -13    1    4    4    0    0 -0.93329267161E+02  0.41361277629E+02 -0.15085656931E+03  0.18215051990E+03  0.00000000000E+00 0.  1.
         13    1    4    4    0    0  0.21406641238E+02  0.76676328953E+01 -0.47209228644E+02  0.52399886950E+02  0.00000000000E+00 0. -1.
         -1    1    1    2    0  502 -0.24228279315E+02 -0.60366636416E+02  0.11727416966E+03  0.13410582083E+03  0.00000000000E+00 0.  1.
<scales pt_clust_5="13000.00000" pt_clust_6="13000.00000" pt_clust_7="13000.00000" pt_clust_8="13000.00000" pt_clust_9="65.04725"></scales>
<clustering>
<clus scale="   65.047">  2  9  1 -1</clus>
<clus scale="   79.936">  5  6 -1 -1</clus>
<clus scale="   90.593">  7  8 -1 -1</clus>
<clus scale="  122.960">  1  5  2 -1</clus>
<clus scale="   65.047">  2  5  1 -1</clus>
</clustering>
</event>
<event>
 9    1  0.4067873E-005  0.1136106E+03  0.7546771E-02  0.1258168E+00
         21   -1    0    0  501  502  0.00000000000E+00  0.00000000000E+00  0.74801849989E+02  0.74801849989E+02  0.00000000000E+00 0.  1.
          1   -1    0    0  502    0 -0.00000000000E+00 -0.00000000000E+00 -0.31225649071E+03  0.31225649071E+03  0.00000000000E+00 0. -1.
         23    2    1    2    0    0 -0.54222845929E+02  0.12222358614E+02 -0.16850607080E+03  0.20080761063E+03  0.94020729214E+02 0.  0.
        -24    2    1    2    0    0  0.74225815508E+02 -0.20104579188E+02 -0.98287677638E+02  0.14987723100E+03  0.83000307251E+02 0.  0.
         11    1    4    4    0    0  0.72078860202E+02 -0.28976235130E+02 -0.11022501913E+03  0.13485006167E+03  0.00000000000E+00 0. -1.
        -12    1    4    4    0    0  0.21469553062E+01  0.88716559418E+01  0.11937341489E+02  0.15027169330E+02  0.00000000000E+00 0.  1.
        -13    1    3    3    0    0 -0.61635696959E+02  0.40768702575E+02 -0.87110534948E+02  0.11423349574E+03  0.00000000000E+00 0. -1.
         13    1    3    3    0    0  0.74128510300E+01 -0.28546343961E+02 -0.81395535850E+02  0.86574114897E+02  0.00000000000E+00 0.  1.
          2    1    1    2  501    0 -0.20002969580E+02  0.78822205738E+01  0.29339107713E+02  0.36373499069E+02  0.00000000000E+00 0. -1.
<scales pt_clust_5="13000.00000" pt_clust_6="13000.00000" pt_clust_7="13000.00000" pt_clust_8="13000.00000" pt_clust_9="21.49996"></scales>
<clustering>
<clus scale="   21.500">  1  9  2 -1</clus>
<clus scale="   83.000">  5  6 -1 -1</clus>
<clus scale="   94.021">  7  8 -1 -1</clus>
<clus scale="  104.673">  1  5  2 -1</clus>
<clus scale="   21.500">  1  5  2 -1</clus>
</clustering>
</event>
<event>
 9    1  0.4067873E-005  0.1193725E+03  0.7546771E-02  0.1246157E+00
          1   -1    0    0  502    0 -0.00000000000E+00  0.00000000000E+00  0.21274282902E+03  0.21274282902E+03  0.00000000000E+00 0. -1.
         21   -1    0    0  501  502  0.00000000000E+00 -0.00000000000E+00 -0.15157332524E+03  0.15157332524E+03  0.00000000000E+00 0.  1.
         23    2    1    2    0    0  0.74160893281E+02  0.16289307909E+02  0.14446000434E+03  0.18558427520E+03  0.88360911632E+02 0.  0.
        -24    2    1    2    0    0 -0.10025636920E+03 -0.21737542124E+02 -0.65259711759E+02  0.14654855319E+03  0.81815574070E+02 0.  0.
         13    1    4    4    0    0 -0.76827819146E+02 -0.24933503110E+02 -0.39860669936E+01  0.80870774092E+02  0.00000000000E+00 0. -1.
        -14    1    4    4    0    0 -0.23428550049E+02  0.31959609852E+01 -0.61273644765E+02  0.65677779095E+02  0.00000000000E+00 0.  1.
        -13    1    3    3    0    0  0.37561213765E+02  0.51635464475E+02  0.64138641177E+02  0.90503211342E+02  0.00000000000E+00 0. -1.
         13    1    3    3    0    0  0.36599679515E+02 -0.35346156567E+02  0.80321363162E+02  0.95081063861E+02  0.00000000000E+00 0.  1.
          2    1    1    2  501    0  0.26095475915E+02  0.54482342156E+01 -0.18030788805E+02  0.32183325873E+02  0.00000000000E+00 0. -1.
<scales pt_clust_5="13000.00000" pt_clust_6="13000.00000" pt_clust_7="13000.00000" pt_clust_8="13000.00000" pt_clust_9="26.65815"></scales>
<clustering>
<clus scale="   26.658">  2  9  1 -1</clus>
<clus scale="   81.816">  5  6 -1 -1</clus>
<clus scale="   88.361">  7  8 -1 -1</clus>
<clus scale="  114.612">  2  5  1 -1</clus>
<clus scale="   26.658">  2  5  1 -1</clus>
</clustering>
</event>
<event>
 9    1  0.4067873E-005  0.1353786E+03  0.7546771E-02  0.1222383E+00
          1   -1    0    0  502    0 -0.00000000000E+00  0.00000000000E+00  0.92740946289E+02  0.92740946289E+02  0.00000000000E+00 0. -1.
         21   -1    0    0  501  502  0.00000000000E+00 -0.00000000000E+00 -0.25891886510E+03  0.25891886510E+03  0.00000000000E+00 0.  1.
         23    2    1    2    0    0  0.95625899022E+02  0.51767886629E+02 -0.72868716097E+02  0.15972522015E+03  0.91531795105E+02 0.  0.
        -24    2    1    2    0    0 -0.85301196506E+02 -0.28788878068E+02 -0.10879964471E+03  0.16236115537E+03  0.80116717708E+02 0.  0.
         13    1    4    4    0    0 -0.49624196284E+02  0.97489178710E+01 -0.11607119833E+02  0.51887642916E+02  0.00000000000E+00 0. -1.
        -14    1    4    4    0    0 -0.35677000221E+02 -0.38537795939E+02 -0.97192524879E+02  0.11047351245E+03  0.00000000000E+00 0.  1.
        -13    1    3    3    0    0  0.23289372800E+02  0.36522534314E+02 -0.74051744657E+02  0.85790158439E+02  0.00000000000E+00 0.  1.
         13    1    3    3    0    0  0.72336526222E+02  0.15245352315E+02  0.11830285601E+01  0.73935061707E+02  0.00000000000E+00 0. -1.
          2    1    1    2  501    0 -0.10324702516E+02 -0.22979008561E+02  0.15490441997E+02  0.29573435880E+02  0.00000000000E+00 0. -1.
<scales pt_clust_5="13000.00000" pt_clust_6="13000.00000" pt_clust_7="13000.00000" pt_clust_8="13000.00000" pt_clust_9="25.19196"></scales>
<clustering>
<clus scale="   25.192">  2  9  1 -1</clus>
<clus scale="   80.117">  5  6 -1 -1</clus>
<clus scale="   91.532">  7  8 -1 -1</clus>
<clus scale="  127.937">  2  5  1 -1</clus>
<clus scale="   25.192">  2  5  1 -1</clus>
</clustering>
</event>
<event>
 9    1  0.4067873E-005  0.1633473E+03  0.7546771E-02  0.1186893E+00
          3   -1    0    0  502    0 -0.00000000000E+00  0.00000000000E+00  0.14425718697E+03  0.14425718697E+03  0.00000000000E+00 0. -1.
         21   -1    0    0  501  502  0.00000000000E+00 -0.00000000000E+00 -0.52019860163E+03  0.52019860163E+03  0.00000000000E+00 0. -1.
         23    2    1    2    0    0 -0.33841915454E+02  0.14469374156E+03 -0.36987705528E+02  0.17809835973E+03  0.90936138524E+02 0.  0.
        -24    2    1    2    0    0 -0.12733406902E+03 -0.10142668314E+03 -0.15918486227E+03  0.24106867125E+03  0.79201936195E+02 0.  0.
         13    1    4    4    0    0 -0.12427930565E+03 -0.11335956867E+03 -0.14336350547E+03  0.22101771947E+03  0.00000000000E+00 0. -1.
        -14    1    4    4    0    0 -0.30547633738E+01  0.11932885526E+02 -0.15821356802E+02  0.20050951781E+02  0.00000000000E+00 0.  1.
        -13    1    3    3    0    0  0.16672977876E+02  0.22619309133E+02 -0.36398964531E+02  0.45983757522E+02  0.00000000000E+00 0.  1.
         13    1    3    3    0    0 -0.50514893331E+02  0.12207443242E+03 -0.58874099689E+00  0.13211460220E+03  0.00000000000E+00 0. -1.
          4    1    1    2  501    0  0.16117598448E+03 -0.43267058417E+02 -0.17976884686E+03  0.24528875763E+03  0.00000000000E+00 0. -1.
<scales pt_clust_5="13000.00000" pt_clust_6="13000.00000" pt_clust_7="13000.00000" pt_clust_8="13000.00000" pt_clust_9="166.88240"></scales>
<clustering>
<clus scale="   79.202">  5  6 -1 -1</clus>
<clus scale="   90.936">  7  8 -1 -1</clus>
<clus scale="  166.882">  2  9  1 -1</clus>
<clus scale="  166.882">  2  5  1 -1</clus>
<clus scale="  163.347">  2  5  1 -1</clus>
</clustering>
</event>
<event>
 9    1  0.4067873E-005  0.9052707E+02  0.7546771E-02  0.1307896E+00
         21   -1    0    0  501  502  0.00000000000E+00  0.00000000000E+00  0.23265227699E+03  0.23265227699E+03  0.00000000000E+00 0. -1.
          1   -1    0    0  502    0 -0.00000000000E+00 -0.00000000000E+00 -0.64215265725E+02  0.64215265725E+02  0.00000000000E+00 0. -1.
         23    2    1    2    0    0  0.42961490886E+01 -0.13298100212E+02  0.31089963739E+02  0.96643149936E+02  0.90432384785E+02 0.  0.
        -24    2    1    2    0    0  0.56936142054E+01 -0.20576338119E+02  0.32240049695E+02  0.89342681320E+02  0.80541237687E+02 0.  0.
         13    1    4    4    0    0  0.10928681692E+01 -0.34643623102E+02 -0.16512382520E+02  0.38393147291E+02  0.00000000000E+00 0. -1.
        -14    1    4    4    0    0  0.46007460362E+01  0.14067284983E+02  0.48752432215E+02  0.50949534029E+02  0.00000000000E+00 0.  1.
        -13    1    3    3    0    0 -0.23457272263E+02 -0.28551878498E+02 -0.15695328268E+02  0.40147188161E+02  0.00000000000E+00 0.  1.
         13    1    3    3    0    0  0.27753421351E+02  0.15253778286E+02  0.46785292007E+02  0.56495961775E+02  0.00000000000E+00 0. -1.
          2    1    1    2  501    0 -0.99897632940E+01  0.33874438331E+02  0.10510699783E+03  0.11088171146E+03  0.00000000000E+00 0. -1.
<scales pt_clust_5="13000.00000" pt_clust_6="13000.00000" pt_clust_7="13000.00000" pt_clust_8="13000.00000" pt_clust_9="35.31675"></scales>
<clustering>
<clus scale="   35.317">  1  9  2 -1</clus>
<clus scale="   80.541">  5  6 -1 -1</clus>
<clus scale="   80.648">  1  5  2 -1</clus>
<clus scale="   90.432">  7  8 -1 -1</clus>
<clus scale="   35.317">  1  5  2 -1</clus>
</clustering>
</event>
<event>
 9    1  0.4067873E-005  0.1062177E+03  0.7546771E-02  0.1269014E+00
         21   -1    0    0  501  502  0.00000000000E+00  0.00000000000E+00  0.70910680203E+02  0.70910680203E+02  0.00000000000E+00 0. -1.
          1   -1    0    0  502    0 -0.00000000000E+00 -0.00000000000E+00 -0.27471712822E+03  0.27471712822E+03  0.00000000000E+00 0. -1.
         23    2    1    2    0    0 -0.42130253791E+02  0.29267202980E+02 -0.64659037497E+02  0.11828259495E+03  0.84725755720E+02 0.  0.
        -24    2    1    2    0    0  0.33547635951E+02 -0.80719857122E+02 -0.63075383147E+02  0.13510644562E+03  0.81450036693E+02 0.  0.
         11    1    4    4    0    0  0.51403895454E+02 -0.52251358962E+02 -0.12457355836E+02  0.74348844616E+02  0.00000000000E+00 0. -1.
        -12    1    4    4    0    0 -0.17856259503E+02 -0.28468498160E+02 -0.50618027312E+02  0.60757601005E+02  0.00000000000E+00 0.  1.
        -13    1    3    3    0    0  0.23567850207E+02  0.23165824924E+02 -0.20529564918E+02  0.38904524717E+02  0.00000000000E+00 0.  1.
         13    1    3    3    0    0 -0.65698103998E+02  0.61013780566E+01 -0.44129472579E+02  0.79378070228E+02  0.00000000000E+00 0. -1.
          2    1    1    2  501    0  0.85826178399E+01  0.51452654142E+02 -0.76072027370E+02  0.92238767855E+02  0.00000000000E+00 0. -1.
<scales pt_clust_5="13000.00000" pt_clust_6="13000.00000" pt_clust_7="13000.00000" pt_clust_8="13000.00000" pt_clust_9="52.16359"></scales>
<clustering>
<clus scale="   52.164">  1  9  2 -1</clus>
<clus scale="   81.450">  5  6 -1 -1</clus>
<clus scale="   84.726">  7  8 -1 -1</clus>
<clus scale="  103.624">  1  5  2 -1</clus>
<clus scale="   52.164">  1  5  2 -1</clus>
</clustering>
</event>
<event>
 9    1  0.4067873E-005  0.3209285E+03  0.7546771E-02  0.1075223E+00
         -2   -1    0    0    0  501 -0.00000000000E+00  0.00000000000E+00  0.13553346125E+03  0.13553346125E+03  0.00000000000E+00 0.  1.
         21   -1    0    0  501  502  0.00000000000E+00 -0.00000000000E+00 -0.62159243211E+03  0.62159243211E+03  0.00000000000E+00 0. -1.
        -24    2    1    2    0    0 -0.14183178985E+03  0.10639738883E+03 -0.20307324003E+03  0.28148626985E+03  0.80988383950E+02 0.  0.
         23    2    1    2    0    0 -0.85664382215E+02 -0.79474393366E+00 -0.13392440384E+03  0.18387652420E+03  0.92389459401E+02 0.  0.
         13    1    3    3    0    0 -0.10241889894E+03  0.93516101347E+02 -0.19492416227E+03  0.23922859592E+03  0.00000000000E+00 0. -1.
        -14    1    3    3    0    0 -0.39412890916E+02  0.12881287487E+02 -0.81490777638E+01  0.42257673931E+02  0.00000000000E+00 0.  1.
        -13    1    4    4    0    0 -0.28083370483E+02 -0.17411383753E+02 -0.11703693467E+03  0.12161198978E+03  0.00000000000E+00 0. -1.
         13    1    4    4    0    0 -0.57581011732E+02  0.16616639819E+02 -0.16887469172E+02  0.62264534416E+02  0.00000000000E+00 0.  1.
         -1    1    1    2    0  502  0.22749617207E+03 -0.10560264490E+03 -0.14906132699E+03  0.29176309931E+03  0.00000000000E+00 0.  1.
<scales pt_clust_5="13000.00000" pt_clust_6="13000.00000" pt_clust_7="13000.00000" pt_clust_8="13000.00000" pt_clust_9="250.81166"></scales>
<clustering>
<clus scale="   80.988">  5  6 -1 -1</clus>
<clus scale="   92.389">  7  8 -1 -1</clus>
<clus scale="  107.688">  5  7 -1 -1</clus>
<clus scale="  250.812">  2  9  1 -1</clus>
<clus scale="  250.812">  2  5  1 -1</clus>
</clustering>
</event>
<event>
 9    1  0.4067873E-005  0.1081283E+03  0.7546771E-02  0.1270064E+00
          1   -1    0    0  502    0 -0.00000000000E+00  0.00000000000E+00  0.47772320258E+03  0.47772320258E+03  0.00000000000E+00 0. -1.
         21   -1    0    0  501  502  0.00000000000E+00 -0.00000000000E+00 -0.10193175076E+03  0.10193175076E+03  0.00000000000E+00 0. -1.
        -24    2    1    2    0    0  0.99153890845E+01  0.49051002441E+02  0.17000295194E+03  0.19337254011E+03  0.77379711939E+02 0.  0.
         23    2    1    2    0    0 -0.23904328174E+02 -0.10787181769E+03 -0.26694613473E+02  0.14606589273E+03  0.91732745923E+02 0.  0.
         11    1    3    3    0    0 -0.13703584421E+02  0.60246989175E+02  0.89678972335E+02  0.10890273647E+03  0.00000000000E+00 0. -1.
        -12    1    3    3    0    0  0.23618973505E+02 -0.11195986734E+02  0.80323979606E+02  0.84469803647E+02  0.00000000000E+00 0.  1.
        -11    1    4    4    0    0 -0.43519368295E+02 -0.13458885824E+02  0.15694102761E+01  0.45580040292E+02  0.00000000000E+00 0.  1.
         11    1    4    4    0    0  0.19615040121E+02 -0.94412931865E+02 -0.28264023749E+02  0.10048585244E+03  0.00000000000E+00 0. -1.
          2    1    1    2  501    0  0.13988939090E+02  0.58820815248E+02  0.23248311335E+03  0.24021652049E+03  0.00000000000E+00 0. -1.
<scales pt_clust_5="13000.00000" pt_clust_6="13000.00000" pt_clust_7="13000.00000" pt_clust_8="13000.00000" pt_clust_9="60.46141"></scales>
<clustering>
<clus scale="   60.461">  2  9  1 -1</clus>
<clus scale="   77.380">  5  6 -1 -1</clus>
<clus scale="   91.733">  7  8 -1 -1</clus>
<clus scale="   96.252">  1  5  2 -1</clus>
<clus scale="   60.461">  2  5  1 -1</clus>
</clustering>
</event>
<event>
 9    1  0.4067873E-005  0.1109343E+03  0.7546771E-02  0.1268002E+00
         -4   -1    0    0    0  501 -0.00000000000E+00  0.00000000000E+00  0.19228603431E+03  0.19228603431E+03  0.00000000000E+00 0.  1.
         21   -1    0    0  501  502  0.00000000000E+00 -0.00000000000E+00 -0.24658197677E+03  0.24658197677E+03  0.00000000000E+00 0.  1.
        -24    2    1    2    0    0  0.44192409906E+02 -0.16293640086E+02  0.13818683265E+03  0.16777490166E+03  0.82670218979E+02 0.  0.
         23    2    1    2    0    0 -0.12702885980E+02  0.15489745656E+02 -0.34686137118E+02  0.11018314911E+03  0.10264454543E+03 0.  0.
         13    1    3    3    0    0 -0.23549655557E+01  0.22552030678E+02  0.77942256948E+01  0.23976861860E+02  0.00000000000E+00 0. -1.
        -14    1    3    3    0    0  0.46547375462E+02 -0.38845670764E+02  0.13039260696E+03  0.14379803980E+03  0.00000000000E+00 0.  1.
        -13    1    4    4    0    0  0.12198418445E+01  0.55516796163E+02 -0.38592996625E+02  0.67624123350E+02  0.00000000000E+00 0. -1.
         13    1    4    4    0    0 -0.13922727825E+02 -0.40027050507E+02  0.39068595069E+01  0.42559025759E+02  0.00000000000E+00 0.  1.
         -3    1    1    2    0  502 -0.31489523926E+02  0.80389443008E+00 -0.15779663800E+03  0.16090996031E+03  0.00000000000E+00 0.  1.
<scales pt_clust_5="13000.00000" pt_clust_6="13000.00000" pt_clust_7="13000.00000" pt_clust_8="13000.00000" pt_clust_9="31.49978"></scales>
<clustering>
<clus scale="   31.500">  2  9  1 -1</clus>
<clus scale="   82.670">  5  6 -1 -1</clus>
<clus scale="   92.763">  1  5  2 -1</clus>
<clus scale="  102.645">  7  8 -1 -1</clus>
<clus scale="   31.500">  2  5  1 -1</clus>
</clustering>
</event>
<event>
 9    1  0.4067873E-005  0.1110212E+03  0.7546771E-02  0.1262861E+00
         -2   -1    0    0    0  501 -0.00000000000E+00  0.00000000000E+00  0.44618565411E+03  0.44618565411E+03  0.00000000000E+00 0.  1.
         21   -1    0    0  501  502  0.00000000000E+00 -0.00000000000E+00 -0.23247967602E+03  0.23247967602E+03  0.00000000000E+00 0. -1.
        -24    2    1    2    0    0 -0.51871238324E+02 -0.19243183058E+02  0.31742721969E+03  0.33210734347E+03  0.80463173742E+02 0.  0.
         23    2    1    2    0    0  0.95949539037E+02  0.64789701774E+02  0.68840774269E+02  0.16272373718E+03  0.91301385219E+02 0.  0.
         11    1    3    3    0    0 -0.40659735607E+02  0.19974501132E+02  0.24346351071E+03  0.24764223356E+03  0.00000000000E+00 0. -1.
        -12    1    3    3    0    0 -0.11211502717E+02 -0.39217684190E+02  0.73963708975E+02  0.84465109908E+02  0.00000000000E+00 0.  1.
        -11    1    4    4    0    0  0.71231036453E+02  0.16135680365E+01  0.62164525755E+02  0.94556292325E+02  0.00000000000E+00 0.  1.
         11    1    4    4    0    0  0.24718502585E+02  0.63176133737E+02  0.66762485140E+01  0.68167444856E+02  0.00000000000E+00 0. -1.
         -1    1    1    2    0  502 -0.44078300713E+02 -0.45546518716E+02 -0.17256201587E+03  0.18383424948E+03  0.00000000000E+00 0.  1.
<scales pt_clust_5="13000.00000" pt_clust_6="13000.00000" pt_clust_7="13000.00000" pt_clust_8="13000.00000" pt_clust_9="63.38282"></scales>
<clustering>
<clus scale="   63.383">  2  9  1 -1</clus>
<clus scale="   80.463">  5  6 -1 -1</clus>
<clus scale="   91.301">  7  8 -1 -1</clus>
<clus scale="  102.294">  1  5  2 -1</clus>
<clus scale="   63.383">  2  5  1 -1</clus>
</clustering>
</event>
<event>
 9    1  0.4067873E-005  0.1529676E+03  0.7546771E-02  0.1197962E+00
          1   -1    0    0  502    0 -0.00000000000E+00  0.00000000000E+00  0.10068893651E+04  0.10068893651E+04  0.00000000000E+00 0. -1.
         21   -1    0    0  501  502  0.00000000000E+00 -0.00000000000E+00 -0.28874935722E+02  0.28874935722E+02  0.00000000000E+00 0.  1.
        -24    2    1    2    0    0 -0.77764524249E+02  0.91757225935E+02  0.39543942458E+03  0.42090399770E+03  0.79505515675E+02 0.  0.
         23    2    1    2    0    0  0.11076849711E+03 -0.77557477298E+02  0.45982729591E+03  0.48696231596E+03  0.86060053778E+02 0.  0.
         11    1    3    3    0    0 -0.28440323276E+02  0.63938701998E+02  0.31405369899E+03  0.32175570772E+03  0.00000000000E+00 0. -1.
        -12    1    3    3    0    0 -0.49324200973E+02  0.27818523938E+02  0.81385725591E+02  0.99148289979E+02  0.00000000000E+00 0.  1.
        -13    1    4    4    0    0  0.60447314354E+02 -0.84474645086E+02  0.24310190162E+03  0.26436410128E+03  0.00000000000E+00 0. -1.
         13    1    4    4    0    0  0.50321182755E+02  0.69171677878E+01  0.21672539430E+03  0.22259821468E+03  0.00000000000E+00 0.  1.
          2    1    1    2  501    0 -0.33003972859E+02 -0.14199748637E+02  0.12274770890E+03  0.12789798718E+03  0.00000000000E+00 0. -1.
<scales pt_clust_5="13000.00000" pt_clust_6="13000.00000" pt_clust_7="13000.00000" pt_clust_8="13000.00000" pt_clust_9="35.92905"></scales>
<clustering>
<clus scale="   35.929">  2  9  1 -1</clus>
<clus scale="   79.506">  5  6 -1 -1</clus>
<clus scale="   86.060">  7  8 -1 -1</clus>
<clus scale="  149.378">  1  5  2 -1</clus>
<clus scale="   35.929">  2  5  1 -1</clus>
</clustering>
</event>
<event>
 9    1  0.4067873E-005  0.2194680E+03  0.7546771E-02  0.1135263E+00
          1   -1    0    0  502    0 -0.00000000000E+00  0.00000000000E+00  0.10075366938E+04  0.10075366938E+04  0.00000000000E+00 0. -1.
         21   -1    0    0  501  502  0.00000000000E+00 -0.00000000000E+00 -0.16177359238E+03  0.16177359238E+03  0.00000000000E+00 0. -1.
         23    2    1    2    0    0  0.51296736811E+02 -0.21531989898E+03  0.83976385031E+03  0.87330191898E+03  0.91972296387E+02 0.  0.
        -24    2    1    2    0    0 -0.65344884014E+02  0.12146055751E+03  0.77928307193E+02  0.17692555766E+03  0.78785855290E+02 0.  0.
         13    1    4    4    0    0 -0.62808689788E+02  0.34507891997E+02  0.30956227261E+02  0.78064166742E+02  0.00000000000E+00 0. -1.
        -14    1    4    4    0    0 -0.25361942256E+01  0.86952665513E+02  0.46972079932E+02  0.98861390917E+02  0.00000000000E+00 0.  1.
        -13    1    3    3    0    0  0.72821907461E+02 -0.10869412928E+03  0.44706852063E+03  0.46581939213E+03  0.00000000000E+00 0.  1.
         13    1    3    3    0    0 -0.21525170650E+02 -0.10662576970E+03  0.39269532968E+03  0.40748252685E+03  0.00000000000E+00 0. -1.
          2    1    1    2  501    0  0.14048147202E+02  0.93859341466E+02 -0.71929056074E+02  0.11908280954E+03  0.00000000000E+00 0. -1.
<scales pt_clust_5="13000.00000" pt_clust_6="13000.00000" pt_clust_7="13000.00000" pt_clust_8="13000.00000" pt_clust_9="94.90483"></scales>
<clustering>
<clus scale="   78.786">  5  6 -1 -1</clus>
<clus scale="   91.972">  7  8 -1 -1</clus>
<clus scale="   94.905">  2  9  1 -1</clus>
<clus scale="  214.277">  2  5  1 -1</clus>
<clus scale="   94.905">  2  5  1 -1</clus>
</clustering>
</event>
<event>
 9    1  0.4067873E-005  0.1291499E+03  0.7546771E-02  0.1233460E+00
          1   -1    0    0  502    0 -0.00000000000E+00  0.00000000000E+00  0.11197784406E+04  0.11197784406E+04  0.00000000000E+00 0. -1.
         21   -1    0    0  501  502  0.00000000000E+00 -0.00000000000E+00 -0.23168405164E+02  0.23168405164E+02  0.00000000000E+00 0.  1.
        -24    2    1    2    0    0 -0.39946085436E+02 -0.89258697900E+02  0.63341943985E+03  0.64596887432E+03  0.80577881075E+02 0.  0.
         23    2    1    2    0    0  0.38961722829E+02  0.42071320766E+02  0.20055518638E+03  0.23013536671E+03  0.97220843194E+02 0.  0.
         11    1    3    3    0    0 -0.56257417100E+02 -0.83034117992E+02  0.41888451995E+03  0.43072474131E+03  0.00000000000E+00 0. -1.
        -12    1    3    3    0    0  0.16311331663E+02 -0.62245799087E+01  0.21453491990E+03  0.21524413301E+03  0.00000000000E+00 0.  1.
        -11    1    4    4    0    0  0.59426291576E+01  0.54743947891E+02  0.46500280581E+02  0.72072815722E+02  0.00000000000E+00 0.  1.
         11    1    4    4    0    0  0.33019093671E+02 -0.12672627125E+02  0.15405490579E+03  0.15806255099E+03  0.00000000000E+00 0. -1.
          2    1    1    2  501    0  0.98436260763E+00  0.47187377135E+02  0.26263540920E+03  0.26684260473E+03  0.00000000000E+00 0. -1.
<scales pt_clust_5="13000.00000" pt_clust_6="13000.00000" pt_clust_7="13000.00000" pt_clust_8="13000.00000" pt_clust_9="47.19767"></scales>
<clustering>
<clus scale="   47.198">  2  9  1 -1</clus>
<clus scale="   80.578">  5  6 -1 -1</clus>
<clus scale="   97.221">  7  8 -1 -1</clus>
<clus scale="  117.135">  1  5  2 -1</clus>
<clus scale="   47.198">  2  5  1 -1</clus>
</clustering>
</event>
<event>
 9    1  0.4067873E-005  0.1045104E+03  0.7546771E-02  0.1275026E+00
         -2   -1    0    0    0  501 -0.00000000000E+00  0.00000000000E+00  0.66418481965E+03  0.66418481965E+03  0.00000000000E+00 0.  1.
         21   -1    0    0  501  502  0.00000000000E+00 -0.00000000000E+00 -0.37289402023E+02  0.37289402023E+02  0.00000000000E+00 0.  1.
         23    2    1    2    0    0 -0.50047364758E+02 -0.37639086261E+01  0.35913140592E+03  0.37315983240E+03  0.88056732104E+02 0.  0.
        -24    2    1    2    0    0  0.81748968404E+02 -0.93230092901E+01  0.84507887803E+02  0.14187655502E+03  0.78851515050E+02 0.  0.
         11    1    4    4    0    0  0.16289886622E+02  0.27365197787E+02  0.50004932184E+02  0.59284970261E+02  0.00000000000E+00 0. -1.
        -12    1    4    4    0    0  0.65459081782E+02 -0.36688207078E+02  0.34502955619E+02  0.82591584758E+02  0.00000000000E+00 0.  1.
        -13    1    3    3    0    0 -0.74733583306E+02  0.54812779237E+01  0.27121921437E+03  0.28138055215E+03  0.00000000000E+00 0.  1.
         13    1    3    3    0    0  0.24686218548E+02 -0.92451865498E+01  0.87912191547E+02  0.91779280250E+02  0.00000000000E+00 0. -1.
         -1    1    1    2    0  502 -0.31701603646E+02  0.13086917916E+02  0.18325612391E+03  0.18643783426E+03  0.00000000000E+00 0.  1.
<scales pt_clust_5="13000.00000" pt_clust_6="13000.00000" pt_clust_7="13000.00000" pt_clust_8="13000.00000" pt_clust_9="34.29665"></scales>
<clustering>
<clus scale="   34.297">  2  9  1 -1</clus>
<clus scale="   78.852">  5  6 -1 -1</clus>
<clus scale="   88.057">  7  8 -1 -1</clus>
<clus scale="   96.881">  2  5  1 -1</clus>
<clus scale="   34.297">  2  5  1 -1</clus>
</clustering>
</event>
<event>
 9    1  0.4067873E-005  0.6086449E+03  0.7546771E-02  0.9887631E-01
         21   -1    0    0  501  502  0.00000000000E+00  0.00000000000E+00  0.16130483623E+04  0.16130483623E+04  0.00000000000E+00 0.  1.
         -2   -1    0    0    0  501 -0.00000000000E+00 -0.00000000000E+00 -0.24010872344E+03  0.24010872344E+03  0.00000000000E+00 0.  1.
        -24    2    1    2    0    0 -0.20134554555E+03  0.18853254779E+03  0.25874449063E+03  0.38686746639E+03  0.81444305072E+02 0.  0.
         23    2    1    2    0    0 -0.28933313381E+03  0.21779308409E+02  0.98583628514E+02  0.31891722897E+03  0.88325910868E+02 0.  0.
         11    1    3    3    0    0 -0.14054143014E+03  0.78978969474E+02  0.16222021121E+03  0.22870279432E+03  0.00000000000E+00 0. -1.
        -12    1    3    3    0    0 -0.60804115407E+02  0.10955357831E+03  0.96524279422E+02  0.15816467206E+03  0.00000000000E+00 0.  1.
        -13    1    4    4    0    0 -0.27865300837E+03  0.40652251609E+02  0.92185748945E+02  0.29630780776E+03  0.00000000000E+00 0.  1.
         13    1    4    4    0    0 -0.10680125441E+02 -0.18872943200E+02  0.63978795692E+01  0.22609421210E+02  0.00000000000E+00 0. -1.
         -1    1    1    2    0  502  0.49067867936E+03 -0.21031185619E+03  0.10156115197E+04  0.11473723904E+04  0.00000000000E+00 0.  1.
<scales pt_clust_5="13000.00000" pt_clust_6="13000.00000" pt_clust_7="13000.00000" pt_clust_8="13000.00000" pt_clust_9="533.85077"></scales>
<clustering>
<clus scale="   81.444">  5  6 -1 -1</clus>
<clus scale="   88.326">  7  8 -1 -1</clus>
<clus scale="  247.936">  5  7 -1 -1</clus>
<clus scale="  533.851">  1  9  2 -1</clus>
<clus scale="  533.851">  1  5  2 -1</clus>
</clustering>
</event>
<event>
 9    1  0.4067873E-005  0.1813944E+03  0.7546771E-02  0.1203829E+00
         -4   -1    0    0    0  501 -0.00000000000E+00  0.00000000000E+00  0.97099928240E+03  0.97099928240E+03  0.00000000000E+00 0.  1.
         21   -1    0    0  501  502  0.00000000000E+00 -0.00000000000E+00 -0.12967006255E+03  0.12967006255E+03  0.00000000000E+00 0.  1.
        -24    2    1    2    0    0 -0.48980836051E+01  0.80933887865E+01  0.17487738990E+03  0.19184275424E+03  0.78307385914E+02 0.  0.
         23    2    1    2    0    0  0.12600776387E+03  0.91042504314E+02  0.72085852000E+03  0.74312937324E+03  0.91856221185E+02 0.  0.
         13    1    3    3    0    0 -0.91094400960E+01  0.42735503261E+02  0.89075465163E+02  0.99215642072E+02  0.00000000000E+00 0. -1.
        -14    1    3    3    0    0  0.42113564909E+01 -0.34642114474E+02  0.85801924740E+02  0.92627112164E+02  0.00000000000E+00 0.  1.
        -11    1    4    4    0    0  0.27876322036E+02  0.62889398571E+02  0.41552521866E+03  0.42118092683E+03  0.00000000000E+00 0.  1.
         11    1    4    4    0    0  0.98131441837E+02  0.28153105743E+02  0.30533330134E+03  0.32194844641E+03  0.00000000000E+00 0. -1.
         -3    1    1    2    0  502 -0.12110968027E+03 -0.99135893100E+02 -0.54406690057E+02  0.16569721747E+03  0.00000000000E+00 0.  1.
<scales pt_clust_5="13000.00000" pt_clust_6="13000.00000" pt_clust_7="13000.00000" pt_clust_8="13000.00000" pt_clust_9="156.41731"></scales>
<clustering>
<clus scale="   78.307">  5  6 -1 -1</clus>
<clus scale="   78.877">  1  5  2 -1</clus>
<clus scale="   91.856">  7  8 -1 -1</clus>
<clus scale="  156.417">  2  9  1 -1</clus>
<clus scale="  156.417">  2  5  1 -1</clus>
</clustering>
</event>
<event>
 9    1  0.4067873E-005  0.9703239E+02  0.7546771E-02  0.1288497E+00
          1   -1    0    0  502    0 -0.00000000000E+00  0.00000000000E+00  0.58985825262E+03  0.58985825262E+03  0.00000000000E+00 0. -1.
         21   -1    0    0  501  502  0.00000000000E+00 -0.00000000000E+00 -0.22870710697E+02  0.22870710697E+02  0.00000000000E+00 0. -1.
        -24    2    1    2    0    0 -0.96166602783E+01 -0.19334963378E+02  0.26034916478E+03  0.27563854302E+03  0.87912444143E+02 0.  0.
         23    2    1    2    0    0  0.58546708994E+00  0.52078658398E+02  0.21503032062E+03  0.23938807624E+03  0.91411612100E+02 0.  0.
         11    1    3    3    0    0  0.33022350743E+02 -0.11855882573E+02  0.18864346129E+03  0.19187858945E+03  0.00000000000E+00 0. -1.
        -12    1    3    3    0    0 -0.42639011021E+02 -0.74790808058E+01  0.71705703490E+02  0.83759953579E+02  0.00000000000E+00 0.  1.
        -13    1    4    4    0    0 -0.24926924228E+02 -0.11359157882E+02  0.11502802158E+03  0.11824477903E+03  0.00000000000E+00 0.  1.
         13    1    4    4    0    0  0.25512391318E+02  0.63437816280E+02  0.10000229904E+03  0.12114329721E+03  0.00000000000E+00 0. -1.
          2    1    1    2  501    0  0.90311931883E+01 -0.32743695020E+02  0.91608056520E+02  0.97702344052E+02  0.00000000000E+00 0. -1.
<scales pt_clust_5="13000.00000" pt_clust_6="13000.00000" pt_clust_7="13000.00000" pt_clust_8="13000.00000" pt_clust_9="33.96635"></scales>
<clustering>
<clus scale="   33.966">  2  9  1 -1</clus>
<clus scale="   87.912">  5  6 -1 -1</clus>
<clus scale="   91.412">  7  8 -1 -1</clus>
<clus scale="   93.743">  1  5  2 -1</clus>
<clus scale="   33.966">  2  5  1 -1</clus>
</clustering>
</event>
<event>
 9    1  0.4067873E-005  0.1074394E+03  0.7546771E-02  0.1276984E+00
          1   -1    0    0  502    0 -0.00000000000E+00  0.00000000000E+00  0.14922502218E+03  0.14922502218E+03  0.00000000000E+00 0. -1.
         21   -1    0    0  501  502  0.00000000000E+00 -0.00000000000E+00 -0.11969147915E+03  0.11969147915E+03  0.00000000000E+00 0. -1.
        -24    2    1    2    0    0 -0.23949542595E+02 -0.56243889879E+02  0.57499867451E+02  0.10641582463E+03  0.65430399938E+02 0.  0.
         23    2    1    2    0    0  0.32153094421E+02  0.24404109332E+02 -0.59709391205E+02  0.11679846476E+03  0.91909128698E+02 0.  0.
         11    1    3    3    0    0 -0.22003688624E+02 -0.70312885101E+02  0.55125791658E+02  0.92015852059E+02  0.00000000000E+00 0. -1.
        -12    1    3    3    0    0 -0.19458539706E+01  0.14068995222E+02  0.23740757937E+01  0.14399972573E+02  0.00000000000E+00 0.  1.
        -13    1    4    4    0    0  0.16618860468E+02 -0.14295564527E+02 -0.70412331708E+02  0.73745821204E+02  0.00000000000E+00 0. -1.
         13    1    4    4    0    0  0.15534233952E+02  0.38699673859E+02  0.10702940504E+02  0.43052643551E+02  0.00000000000E+00 0.  1.
          2    1    1    2  501    0 -0.82035518258E+01  0.31839780547E+02  0.31743066777E+02  0.45702211940E+02  0.00000000000E+00 0. -1.
<scales pt_clust_5="13000.00000" pt_clust_6="13000.00000" pt_clust_7="13000.00000" pt_clust_8="13000.00000" pt_clust_9="32.87964"></scales>
<clustering>
<clus scale="   32.880">  2  9  1 -1</clus>
<clus scale="   65.430">  5  6 -1 -1</clus>
<clus scale="   85.890">  1  5  2 -1</clus>
<clus scale="   91.909">  7  8 -1 -1</clus>
<clus scale="   32.880">  2  5  1 -1</clus>
</clustering>
</event>
<event>
 9    1  0.4067873E-005  0.9670818E+02  0.7546771E-02  0.1291507E+00
         21   -1    0    0  501  502  0.00000000000E+00  0.00000000000E+00  0.16555984291E+03  0.16555984291E+03  0.00000000000E+00 0.  1.
         -4   -1    0    0    0  501 -0.00000000000E+00 -0.00000000000E+00 -0.18060722500E+03  0.18060722500E+03  0.00000000000E+00 0.  1.
         23    2    1    2    0    0  0.21413849538E+02 -0.63566856137E+00 -0.82407635118E+02  0.12490983976E+03  0.91391972930E+02 0.  0.
        -24    2    1    2    0    0 -0.34703251303E+02  0.46010406037E+02 -0.35812089574E+02  0.10776710841E+03  0.83725568261E+02 0.  0.
         11    1    4    4    0    0 -0.22036819448E+02  0.24906474830E+02 -0.62910275920E+02  0.71159375462E+02  0.00000000000E+00 0. -1.
        -12    1    4    4    0    0 -0.12666431855E+02  0.21103931207E+02  0.27098186346E+02  0.36607732947E+02  0.00000000000E+00 0.  1.
        -13    1    3    3    0    0  0.10684970702E+02 -0.28327201459E+02  0.66793183641E+01  0.31003422959E+02  0.00000000000E+00 0. -1.
         13    1    3    3    0    0  0.10728878836E+02  0.27691532897E+02 -0.89086953482E+02  0.93906416798E+02  0.00000000000E+00 0.  1.
         -3    1    1    2    0  502  0.13289401765E+02 -0.45374737476E+02  0.10317234260E+03  0.11349011974E+03  0.00000000000E+00 0.  1.
<scales pt_clust_5="13000.00000" pt_clust_6="13000.00000" pt_clust_7="13000.00000" pt_clust_8="13000.00000" pt_clust_9="47.28081"></scales>
<clustering>
<clus scale="   47.281">  1  9  2 -1</clus>
<clus scale="   83.726">  5  6 -1 -1</clus>
<clus scale="   89.498">  1  5  2 -1</clus>
<clus scale="   91.392">  7  8 -1 -1</clus>
<clus scale="   47.281">  1  5  2 -1</clus>
</clustering>
</event>
<event>
 9    1  0.4067873E-005  0.9468273E+02  0.7546771E-02  0.1300212E+00
          3   -1    0    0  502    0 -0.00000000000E+00  0.00000000000E+00  0.24883452698E+03  0.24883452698E+03  0.00000000000E+00 0. -1.
         21   -1    0    0  501  502  0.00000000000E+00 -0.00000000000E+00 -0.44816243051E+02  0.44816243051E+02  0.00000000000E+00 0.  1.
         23    2    1    2    0    0  0.17839081345E+02 -0.89009044946E+01  0.15076663744E+03  0.17872298686E+03  0.93882203541E+02 0.  0.
        -24    2    1    2    0    0  0.27395099765E+01  0.36009083600E+01  0.45392906807E+02  0.92271036516E+02  0.80205715105E+02 0.  0.
         11    1    4    4    0    0 -0.34593670715E+02  0.64995530246E+01  0.24340091383E+01  0.35283007858E+02  0.00000000000E+00 0. -1.
        -12    1    4    4    0    0  0.37333180691E+02 -0.28986446647E+01  0.42958897669E+02  0.56988028658E+02  0.00000000000E+00 0.  1.
        -13    1    3    3    0    0  0.34643038076E+02  0.29672082865E+02  0.41620893614E+02  0.61748452401E+02  0.00000000000E+00 0.  1.
         13    1    3    3    0    0 -0.16803956730E+02 -0.38572987360E+02  0.10914574383E+03  0.11697453445E+03  0.00000000000E+00 0. -1.
          4    1    1    2  501    0 -0.20578591322E+02  0.52999961346E+01  0.78587396847E+01  0.22656746661E+02  0.00000000000E+00 0. -1.
<scales pt_clust_5="13000.00000" pt_clust_6="13000.00000" pt_clust_7="13000.00000" pt_clust_8="13000.00000" pt_clust_9="21.25014"></scales>
<clustering>
<clus scale="   21.250">  2  9  1 -1</clus>
<clus scale="   80.206">  5  6 -1 -1</clus>
<clus scale="   81.141">  2  5  1 -1</clus>
<clus scale="   93.882">  7  8 -1 -1</clus>
<clus scale="   21.250">  2  5  1 -1</clus>
</clustering>
</event>
<event>
 9    1  0.4067873E-005  0.1004026E+03  0.7546771E-02  0.1284738E+00
         21   -1    0    0  501  502  0.00000000000E+00  0.00000000000E+00  0.10738286711E+02  0.10738286711E+02  0.00000000000E+00 0.  1.
         -2   -1    0    0    0  501 -0.00000000000E+00 -0.00000000000E+00 -0.17385535827E+04  0.17385535827E+04  0.00000000000E+00 0.  1.
        -24    2    1    2    0    0 -0.18921354453E+02 -0.55250867615E+02 -0.10201532138E+04  0.10250563734E+04  0.81346868513E+02 0.  0.
         23    2    1    2    0    0  0.17488362737E+02 -0.49794086998E+01 -0.41765316703E+03  0.42803470174E+03  0.91917901520E+02 0.  0.
         13    1    3    3    0    0  0.19860929233E+02 -0.35895303323E+02 -0.22409327482E+03  0.22781730647E+03  0.00000000000E+00 0. -1.
        -14    1    3    3    0    0 -0.38782283686E+02 -0.19355564292E+02 -0.79605993900E+03  0.79723906695E+03  0.00000000000E+00 0.  1.
        -13    1    4    4    0    0 -0.36676600291E+02 -0.11939241133E+02 -0.19541779297E+03  0.19918793210E+03  0.00000000000E+00 0.  1.
         13    1    4    4    0    0  0.54164963028E+02  0.69598324335E+01 -0.22223537407E+03  0.22884676964E+03  0.00000000000E+00 0. -1.
         -1    1    1    2    0  502  0.14329917158E+01  0.60230276315E+02 -0.29000891516E+03  0.29620079426E+03  0.00000000000E+00 0.  1.
<scales pt_clust_5="13000.00000" pt_clust_6="13000.00000" pt_clust_7="13000.00000" pt_clust_8="13000.00000" pt_clust_9="60.24732"></scales>
<clustering>
<clus scale="   60.247">  1  9  2 -1</clus>
<clus scale="   81.347">  5  6 -1 -1</clus>
<clus scale="   90.824">  2  5  1 -1</clus>
<clus scale="   91.918">  7  8 -1 -1</clus>
<clus scale="   60.247">  1  5  2 -1</clus>
</clustering>
</event>
<event>
 9    1  0.4067873E-005  0.1454930E+03  0.7546771E-02  0.1207829E+00
         21   -1    0    0  501  502  0.00000000000E+00  0.00000000000E+00  0.58100468569E+02  0.58100468569E+02  0.00000000000E+00 0. -1.
          1   -1    0    0  502    0 -0.00000000000E+00 -0.00000000000E+00 -0.53333802344E+03  0.53333802344E+03  0.00000000000E+00 0. -1.
         23    2    1    2    0    0  0.11392501006E+03 -0.26512432879E+02 -0.33303236953E+03  0.36478580196E+03  0.92066851505E+02 0.  0.
        -24    2    1    2    0    0 -0.93467257632E+02  0.45084242464E+02 -0.72519208927E+02  0.15168891844E+03  0.83557017328E+02 0.  0.
         11    1    4    4    0    0 -0.58738899941E+02 -0.20731859856E+01 -0.38886135588E+00  0.58776761391E+02  0.00000000000E+00 0. -1.
        -12    1    4    4    0    0 -0.34728357691E+02  0.47157428449E+02 -0.72130347571E+02  0.92912157044E+02  0.00000000000E+00 0.  1.
        -13    1    3    3    0    0  0.49241404940E+02 -0.50266607001E+02 -0.23242256275E+03  0.24284088498E+03  0.00000000000E+00 0.  1.
         13    1    3    3    0    0  0.64683605116E+02  0.23754174122E+02 -0.10060980677E+03  0.12194491698E+03  0.00000000000E+00 0. -1.
          2    1    1    2  501    0 -0.20457752423E+02 -0.18571809585E+02 -0.69685976418E+02  0.74963771615E+02  0.00000000000E+00 0. -1.
<scales pt_clust_5="13000.00000" pt_clust_6="13000.00000" pt_clust_7="13000.00000" pt_clust_8="13000.00000" pt_clust_9="27.63028"></scales>
<clustering>
<clus scale="   27.630">  1  9  2 -1</clus>
<clus scale="   83.557">  5  6 -1 -1</clus>
<clus scale="   92.067">  7  8 -1 -1</clus>
<clus scale="  140.263">  1  5  2 -1</clus>
<clus scale="   27.630">  1  5  2 -1</clus>
</clustering>
</event>
<event>
 9    1  0.4067873E-005  0.9886421E+02  0.7546771E-02  0.1291926E+00
         21   -1    0    0  501  502  0.00000000000E+00  0.00000000000E+00  0.26383096854E+03  0.26383096854E+03  0.00000000000E+00 0. -1.
          1   -1    0    0  502    0 -0.00000000000E+00 -0.00000000000E+00 -0.15506844793E+03  0.15506844793E+03  0.00000000000E+00 0. -1.
         23    2    1    2    0    0 -0.25679339231E+02 -0.23509458220E+02 -0.89979718495E+02  0.13463375592E+03  0.93903010614E+02 0.  0.
        -24    2    1    2    0    0 -0.35674106297E+02  0.25500552565E+02  0.20418869139E+03  0.22263877051E+03  0.77149727142E+02 0.  0.
         11    1    4    4    0    0 -0.18183959114E+02  0.51694215385E+02  0.10312075048E+03  0.11677687037E+03  0.00000000000E+00 0. -1.
        -12    1    4    4    0    0 -0.17490147183E+02 -0.26193662820E+02  0.10106794091E+03  0.10586190013E+03  0.00000000000E+00 0.  1.
        -13    1    3    3    0    0 -0.48689525177E+02  0.37160562482E+01 -0.14144697723E+02  0.50838483550E+02  0.00000000000E+00 0. -1.
         13    1    3    3    0    0  0.23010185946E+02 -0.27225514468E+02 -0.75835020772E+02  0.83795272366E+02  0.00000000000E+00 0.  1.
          2    1    1    2  501    0  0.61353445529E+02 -0.19910943452E+01 -0.54464522881E+01  0.61626890052E+02  0.00000000000E+00 0. -1.
<scales pt_clust_5="13000.00000" pt_clust_6="13000.00000" pt_clust_7="13000.00000" pt_clust_8="13000.00000" pt_clust_9="61.38578"></scales>
<clustering>
<clus scale="   61.386">  1  9  2 -1</clus>
<clus scale="   77.150">  5  6 -1 -1</clus>
<clus scale="   83.117">  1  5  2 -1</clus>
<clus scale="   93.903">  7  8 -1 -1</clus>
<clus scale="   61.386">  1  5  2 -1</clus>
</clustering>
</event>
<event>
 9    1  0.4067873E-005  0.9364301E+02  0.7546771E-02  0.1304674E+00
          1   -1    0    0  502    0 -0.00000000000E+00  0.00000000000E+00  0.13381952181E+03  0.13381952181E+03  0.00000000000E+00 0. -1.
         21   -1    0    0  501  502  0.00000000000E+00 -0.00000000000E+00 -0.16655398903E+03  0.16655398903E+03  0.00000000000E+00 0.  1.
         23    2    1    2    0    0  0.38818102777E+02 -0.27380231018E+02  0.49479283135E+02  0.11469496032E+03  0.91925036354E+02 0.  0.
        -24    2    1    2    0    0  0.11449050031E+02 -0.31310618505E+02 -0.98617314795E+01  0.79819129093E+02  0.71849871563E+02 0.  0.
         13    1    4    4    0    0 -0.14917575680E+02 -0.28902988007E+02  0.21337425273E+02  0.38899903562E+02  0.00000000000E+00 0. -1.
        -14    1    4    4    0    0  0.26366625711E+02 -0.24076304980E+01 -0.31199156752E+02  0.40919225531E+02  0.00000000000E+00 0.  1.
        -13    1    3    3    0    0  0.16095283966E+02 -0.50888659985E+02  0.60042615112E+02  0.80335729974E+02  0.00000000000E+00 0.  1.
         13    1    3    3    0    0  0.22722818811E+02  0.23508428967E+02 -0.10563331977E+02  0.34359230342E+02  0.00000000000E+00 0. -1.
          2    1    1    2  501    0 -0.50267152808E+02  0.58690849523E+02 -0.72352018878E+02  0.10585942143E+03  0.00000000000E+00 0. -1.
<scales pt_clust_5="13000.00000" pt_clust_6="13000.00000" pt_clust_7="13000.00000" pt_clust_8="13000.00000" pt_clust_9="77.27485"></scales>
<clustering>
<clus scale="   71.850">  5  6 -1 -1</clus>
<clus scale="   77.275">  2  9  1 -1</clus>
<clus scale="   77.275">  2  5  1 -1</clus>
<clus scale="   91.925">  7  8 -1 -1</clus>
<clus scale="   77.275">  2  5  1 -1</clus>
</clustering>
</event>
<event>
 9    1  0.4067873E-005  0.8433941E+02  0.7546771E-02  0.1317980E+00
          3   -1    0    0  502    0 -0.00000000000E+00  0.00000000000E+00  0.17865438790E+03  0.17865438790E+03  0.00000000000E+00 0. -1.
         21   -1    0    0  501  502  0.00000000000E+00 -0.00000000000E+00 -0.27553474674E+03  0.27553474674E+03  0.00000000000E+00 0.  1.
        -24    2    1    2    0    0  0.76104886095E+01 -0.16622783714E+02  0.15544964256E+03  0.17621873638E+03  0.80958107718E+02 0.  0.
         23    2    1    2    0    0  0.62724921925E+01  0.33071087967E+02 -0.15842615516E+03  0.18163132929E+03  0.82207372697E+02 0.  0.
         13    1    3    3    0    0 -0.21711073870E+02 -0.39968360322E+02  0.82785486065E+02  0.94457806762E+02  0.00000000000E+00 0. -1.
        -14    1    3    3    0    0  0.29321562479E+02  0.23345576607E+02  0.72664156496E+02  0.81760929622E+02  0.00000000000E+00 0.  1.
        -11    1    4    4    0    0 -0.21071103354E+02  0.35579161653E+02 -0.32078697761E+02  0.52334606051E+02  0.00000000000E+00 0.  1.
         11    1    4    4    0    0  0.27343595546E+02 -0.25080736855E+01 -0.12634745739E+03  0.12929672324E+03  0.00000000000E+00 0. -1.
          4    1    1    2  501    0 -0.13882980802E+02 -0.16448304253E+02 -0.93903846249E+02  0.96339068965E+02  0.00000000000E+00 0. -1.
<scales pt_clust_5="13000.00000" pt_clust_6="13000.00000" pt_clust_7="13000.00000" pt_clust_8="13000.00000" pt_clust_9="21.52403"></scales>
<clustering>
<clus scale="   21.524">  2  9  1 -1</clus>
<clus scale="   80.958">  5  6 -1 -1</clus>
<clus scale="   82.207">  7  8 -1 -1</clus>
<clus scale="   83.122">  1  5  2 -1</clus>
<clus scale="   21.524">  2  5  1 -1</clus>
</clustering>
</event>
<event>
 9    1  0.4067873E-005  0.1028203E+03  0.7546771E-02  0.1280303E+00
         -2   -1    0    0    0  501 -0.00000000000E+00  0.00000000000E+00  0.53012453029E+03  0.53012453029E+03  0.00000000000E+00 0.  1.
         21   -1    0    0  501  502  0.00000000000E+00 -0.00000000000E+00 -0.46257831891E+02  0.46257831891E+02  0.00000000000E+00 0.  1.
        -24    2    1    2    0    0 -0.50673161631E+02 -0.34350167303E+01  0.40172300967E+03  0.41284116842E+03  0.80479097870E+02 0.  0.
         23    2    1    2    0    0  0.11151048947E+02  0.24607170035E+02  0.58083940831E+02  0.11265770984E+03  0.92672308135E+02 0.  0.
         11    1    3    3    0    0 -0.39438113088E+02 -0.33103826156E+02  0.13937668801E+03  0.14858361024E+03  0.00000000000E+00 0. -1.
        -12    1    3    3    0    0 -0.11235048543E+02  0.29668809426E+02  0.26234632167E+03  0.26425755819E+03  0.00000000000E+00 0.  1.
        -13    1    4    4    0    0 -0.32820816745E+02  0.38221634639E+02  0.33142277428E+02  0.60303481818E+02  0.00000000000E+00 0.  1.
         13    1    4    4    0    0  0.43971865692E+02 -0.13614464603E+02  0.24941663403E+02  0.52354228026E+02  0.00000000000E+00 0. -1.
         -1    1    1    2    0  502  0.39522112684E+02 -0.21172153305E+02  0.24059747895E+02  0.50883483915E+02  0.00000000000E+00 0.  1.
<scales pt_clust_5="13000.00000" pt_clust_6="13000.00000" pt_clust_7="13000.00000" pt_clust_8="13000.00000" pt_clust_9="44.83589"></scales>
<clustering>
<clus scale="   44.836">  2  9  1 -1</clus>
<clus scale="   80.479">  5  6 -1 -1</clus>
<clus scale="   91.982">  1  5  2 -1</clus>
<clus scale="   92.672">  7  8 -1 -1</clus>
<clus scale="   44.836">  2  5  1 -1</clus>
</clustering>
</event>
<event>
 9    1  0.4067873E-005  0.1778144E+03  0.7546771E-02  0.1191942E+00
          1   -1    0    0  502    0 -0.00000000000E+00  0.00000000000E+00  0.32335074226E+03  0.32335074226E+03  0.00000000000E+00 0. -1.
         21   -1    0    0  501  502  0.00000000000E+00 -0.00000000000E+00 -0.23425734622E+03  0.23425734622E+03  0.00000000000E+00 0. -1.
        -24    2    1    2    0    0 -0.28615265802E+02 -0.67213642509E+02 -0.70067530504E+02  0.12916310805E+03  0.80231804628E+02 0.  0.
         23    2    1    2    0    0  0.15780855868E+03  0.34086463243E+02 -0.38061299800E+02  0.19035902223E+03  0.93394146683E+02 0.  0.
         13    1    3    3    0    0 -0.44355361384E+02 -0.45676764565E+02 -0.78603828900E+02  0.10115496440E+03  0.00000000000E+00 0. -1.
        -14    1    3    3    0    0  0.15740095582E+02 -0.21536877944E+02  0.85362983960E+01  0.28008143652E+02  0.00000000000E+00 0.  1.
        -11    1    4    4    0    0  0.82960752309E+02 -0.28377725843E+02 -0.66353509043E+01  0.87930709251E+02  0.00000000000E+00 0.  1.
         11    1    4    4    0    0  0.74847806367E+02  0.62464189085E+02 -0.31425948895E+02  0.10242831298E+03  0.00000000000E+00 0. -1.
          2    1    1    2  501    0 -0.12919329287E+03  0.33127179267E+02  0.19722222634E+03  0.23808595820E+03  0.00000000000E+00 0. -1.
<scales pt_clust_5="13000.00000" pt_clust_6="13000.00000" pt_clust_7="13000.00000" pt_clust_8="13000.00000" pt_clust_9="151.31263"></scales>
<clustering>
<clus scale="   80.232">  5  6 -1 -1</clus>
<clus scale="   93.394">  7  8 -1 -1</clus>
<clus scale="  108.507">  1  5  2 -1</clus>
<clus scale="  151.313">  2  9  1 -1</clus>
<clus scale="  151.313">  2  5  1 -1</clus>
</clustering>
</event>
<event>
 9    1  0.4067873E-005  0.2049143E+03  0.7546771E-02  0.1146811E+00
         21   -1    0    0  501  502  0.00000000000E+00  0.00000000000E+00  0.10792901975E+03  0.10792901975E+03  0.00000000000E+00 0. -1.
         -2   -1    0    0    0  501 -0.00000000000E+00 -0.00000000000E+00 -0.71835664966E+03  0.71835664966E+03  0.00000000000E+00 0.  1.
        -24    2    1    2    0    0  0.18978614088E+03 -0.78354988767E+01 -0.52338888952E+03  0.56211814752E+03  0.77205620210E+02 0.  0.
         23    2    1    2    0    0 -0.16700710176E+03  0.60595589054E+01 -0.11945205027E+03  0.22451072872E+03  0.90599032581E+02 0.  0.
         11    1    3    3    0    0  0.17481983550E+03  0.34946436203E+01 -0.38985969516E+03  0.42727598730E+03  0.00000000000E+00 0. -1.
        -12    1    3    3    0    0  0.14966305374E+02 -0.11330142497E+02 -0.13352919436E+03  0.13484216022E+03  0.00000000000E+00 0.  1.
        -13    1    4    4    0    0 -0.11645392181E+03  0.31380476637E+02 -0.40146889313E+02  0.12711421219E+03  0.00000000000E+00 0. -1.
         13    1    4    4    0    0 -0.50553179950E+02 -0.25320917731E+02 -0.79305160961E+02  0.97396516534E+02  0.00000000000E+00 0.  1.
         -1    1    1    2    0  502 -0.22779039114E+02  0.17759399713E+01  0.32413309892E+02  0.39656793162E+02  0.00000000000E+00 0.  1.
<scales pt_clust_5="13000.00000" pt_clust_6="13000.00000" pt_clust_7="13000.00000" pt_clust_8="13000.00000" pt_clust_9="22.84816"></scales>
<clustering>
<clus scale="   22.848">  1  9  2 -1</clus>
<clus scale="   77.206">  5  6 -1 -1</clus>
<clus scale="   90.599">  7  8 -1 -1</clus>
<clus scale="  199.355">  2  5  1 -1</clus>
<clus scale="   22.848">  1  5  2 -1</clus>
</clustering>
</event>
<event>
 9    1  0.4067873E-005  0.1553643E+03  0.7546771E-02  0.1195872E+00
         21   -1    0    0  501  502  0.00000000000E+00  0.00000000000E+00  0.53324966839E+02  0.53324966839E+02  0.00000000000E+00 0.  1.
         -2   -1    0    0    0  501 -0.00000000000E+00 -0.00000000000E+00 -0.57332193843E+03  0.57332193843E+03  0.00000000000E+00 0.  1.
         23    2    1    2    0    0 -0.11713475547E+03  0.56029295903E+02 -0.29089294084E+03  0.33138346119E+03  0.91304229822E+02 0.  0.
        -24    2    1    2    0    0  0.12174386076E+03 -0.18618599652E+02 -0.16628618849E+03  0.22200441492E+03  0.80415445519E+02 0.  0.
         11    1    4    4    0    0  0.44366375168E+01 -0.21634271888E+02 -0.51653122988E+01  0.22680518594E+02  0.00000000000E+00 0. -1.
        -12    1    4    4    0    0  0.11730722324E+03  0.30156722357E+01 -0.16112087619E+03  0.19932389633E+03  0.00000000000E+00 0.  1.
        -11    1    3    3    0    0 -0.49845123145E+02  0.51701755046E+02 -0.22848779289E+03  0.23950841170E+03  0.00000000000E+00 0. -1.
         11    1    3    3    0    0 -0.67289632327E+02  0.43275408573E+01 -0.62405147951E+02  0.91875049493E+02  0.00000000000E+00 0.  1.
         -1    1    1    2    0  502 -0.46091052878E+01 -0.37410696251E+02 -0.62817842257E+02  0.73259029146E+02  0.00000000000E+00 0.  1.
<scales pt_clust_5="13000.00000" pt_clust_6="13000.00000" pt_clust_7="13000.00000" pt_clust_8="13000.00000" pt_clust_9="37.69357"></scales>
<clustering>
<clus scale="   37.694">  1  9  2 -1</clus>
<clus scale="   80.415">  5  6 -1 -1</clus>
<clus scale="   91.304">  7  8 -1 -1</clus>
<clus scale="  149.225">  1  5  2 -1</clus>
<clus scale="   37.694">  1  5  2 -1</clus>
</clustering>
</event>
<event>
 9    1  0.4067873E-005  0.1488520E+03  0.7546771E-02  0.1217777E+00
          1   -1    0    0  502    0 -0.00000000000E+00  0.00000000000E+00  0.68081094763E+03  0.68081094763E+03  0.00000000000E+00 0. -1.
         21   -1    0    0  501  502  0.00000000000E+00 -0.00000000000E+00 -0.10166646061E+03  0.10166646061E+03  0.00000000000E+00 0. -1.
         23    2    1    2    0    0 -0.24631419904E+02  0.49958430200E+02  0.38559596850E+03  0.39990560650E+03  0.90209154695E+02 0.  0.
        -24    2    1    2    0    0  0.90234613448E+02  0.61565030831E+02  0.21143145374E+03  0.25195380629E+03  0.82734046145E+02 0.  0.
         11    1    4    4    0    0  0.11069468627E+02  0.56549868047E+02  0.84631284961E+02  0.10238591263E+03  0.00000000000E+00 0. -1.
        -12    1    4    4    0    0  0.79165144821E+02  0.50151627837E+01  0.12680016878E+03  0.14956789366E+03  0.00000000000E+00 0.  1.
        -13    1    3    3    0    0 -0.26394437644E+02 -0.21461692586E+02  0.14429660209E+03  0.14825241975E+03  0.00000000000E+00 0.  1.
         13    1    3    3    0    0  0.17630177397E+01  0.71420122787E+02  0.24129936641E+03  0.25165318674E+03  0.00000000000E+00 0. -1.
          2    1    1    2  501    0 -0.65603193544E+02 -0.11152346103E+03 -0.17882935221E+02  0.13061799545E+03  0.00000000000E+00 0. -1.
<scales pt_clust_5="13000.00000" pt_clust_6="13000.00000" pt_clust_7="13000.00000" pt_clust_8="13000.00000" pt_clust_9="123.74160"></scales>
<clustering>
<clus scale="   82.734">  5  6 -1 -1</clus>
<clus scale="   90.209">  7  8 -1 -1</clus>
<clus scale="  106.020">  1  7  2 -1</clus>
<clus scale="  123.742">  2  9  1 -1</clus>
<clus scale="  123.742">  2  5  1 -1</clus>
</clustering>
</event>
<event>
 9    1  0.4067873E-005  0.9550952E+02  0.7546771E-02  0.1294896E+00
         21   -1    0    0  501  502  0.00000000000E+00  0.00000000000E+00  0.17699287440E+03  0.17699287440E+03  0.00000000000E+00 0. -1.
          1   -1    0    0  502    0 -0.00000000000E+00 -0.00000000000E+00 -0.12190782440E+03  0.12190782440E+03  0.00000000000E+00 0. -1.
        -24    2    1    2    0    0  0.20961498403E+02 -0.44913080867E+02 -0.40124701425E+02  0.10402745239E+03  0.82189719171E+02 0.  0.
         23    2    1    2    0    0  0.20580853153E+02  0.75459659113E+00  0.15169538076E+02  0.94463214755E+02  0.90934279147E+02 0.  0.
         13    1    3    3    0    0 -0.55544883555E+01 -0.23992139972E+02 -0.59986513573E+02  0.64844868201E+02  0.00000000000E+00 0. -1.
        -14    1    3    3    0    0  0.26515986758E+02 -0.20920940895E+02  0.19861812148E+02  0.39182584186E+02  0.00000000000E+00 0.  1.
        -13    1    4    4    0    0 -0.72397540775E+01  0.32128875252E+02 -0.21022403555E+02  0.39071986324E+02  0.00000000000E+00 0.  1.
         13    1    4    4    0    0  0.27820607230E+02 -0.31374278661E+02  0.36191941631E+02  0.55391228431E+02  0.00000000000E+00 0. -1.
          2    1    1    2  501    0 -0.41542351555E+02  0.44158484276E+02  0.80040213346E+02  0.10041003166E+03  0.00000000000E+00 0. -1.
<scales pt_clust_5="13000.00000" pt_clust_6="13000.00000" pt_clust_7="13000.00000" pt_clust_8="13000.00000" pt_clust_9="60.62787"></scales>
<clustering>
<clus scale="   60.628">  1  9  2 -1</clus>
<clus scale="   82.190">  5  6 -1 -1</clus>
<clus scale="   87.225">  2  5  1 -1</clus>
<clus scale="   90.934">  7  8 -1 -1</clus>
<clus scale="   60.628">  1  5  2 -1</clus>
</clustering>
</event>
<event>
 9    1  0.4067873E-005  0.1492377E+03  0.7546771E-02  0.1203327E+00
         21   -1    0    0  501  502  0.00000000000E+00  0.00000000000E+00  0.10363154416E+03  0.10363154416E+03  0.00000000000E+00 0. -1.
          1   -1    0    0  502    0 -0.00000000000E+00 -0.00000000000E+00 -0.55670628873E+03  0.55670628873E+03  0.00000000000E+00 0. -1.
         23    2    1    2    0    0 -0.11066261769E+03  0.59336469071E+02 -0.46477381470E+03  0.48993637694E+03  0.90862110381E+02 0.  0.
        -24    2    1    2    0    0  0.69394697485E+02 -0.56387919443E+02 -0.14838539246E+02  0.12124883757E+03  0.80534941908E+02 0.  0.
         13    1    4    4    0    0  0.28254030374E+02  0.15343310861E+02  0.11989376761E+02  0.34314028847E+02  0.00000000000E+00 0. -1.
        -14    1    4    4    0    0  0.41140667110E+02 -0.71731230304E+02 -0.26827916007E+02  0.86934808728E+02  0.00000000000E+00 0.  1.
        -11    1    3    3    0    0 -0.35779481334E+02 -0.21387989347E+02 -0.87480552347E+02  0.96904408630E+02  0.00000000000E+00 0.  1.
         11    1    3    3    0    0 -0.74883136352E+02  0.80724458419E+02 -0.37729326235E+03  0.39303196831E+03  0.00000000000E+00 0. -1.
          2    1    1    2  501    0  0.41267920201E+02 -0.29485496287E+01  0.26537609371E+02  0.49152618382E+02  0.00000000000E+00 0. -1.
<scales pt_clust_5="13000.00000" pt_clust_6="13000.00000" pt_clust_7="13000.00000" pt_clust_8="13000.00000" pt_clust_9="41.37312"></scales>
<clustering>
<clus scale="   41.373">  1  9  2 -1</clus>
<clus scale="   80.535">  5  6 -1 -1</clus>
<clus scale="   90.862">  7  8 -1 -1</clus>
<clus scale="  143.185">  1  5  2 -1</clus>
<clus scale="   41.373">  1  5  2 -1</clus>
</clustering>
</event>
<event>
 9    1  0.4067873E-005  0.1038677E+03  0.7546771E-02  0.1279442E+00
         21   -1    0    0  501  502  0.00000000000E+00  0.00000000000E+00  0.16636117827E+03  0.16636117827E+03  0.00000000000E+00 0. -1.
         -2   -1    0    0    0  501 -0.00000000000E+00 -0.00000000000E+00 -0.11727749990E+03  0.11727749990E+03  0.00000000000E+00 0.  1.
         23    2    1    2    0    0  0.49032641953E+02  0.27832340635E+02 -0.59506679001E+02  0.12316888201E+03  0.91927631798E+02 0.  0.
        -24    2    1    2    0    0 -0.14350797776E+02 -0.26842159903E+02  0.67107320045E+02  0.10638973367E+03  0.76739403704E+02 0.  0.
         13    1    4    4    0    0  0.21287903725E+02 -0.32701116879E+02  0.56652584537E+02  0.68789920954E+02  0.00000000000E+00 0. -1.
        -14    1    4    4    0    0 -0.35638701500E+02  0.58589569758E+01  0.10454735508E+02  0.37599812713E+02  0.00000000000E+00 0.  1.
        -11    1    3    3    0    0  0.61256263398E+02  0.51756929025E+02 -0.37935092616E+02  0.88714039246E+02  0.00000000000E+00 0.  1.
         11    1    3    3    0    0 -0.12223621444E+02 -0.23924588390E+02 -0.21571586385E+02  0.34454842765E+02  0.00000000000E+00 0. -1.
         -1    1    1    2    0  502 -0.34681844178E+02 -0.99018073212E+00  0.41483037328E+02  0.54080062495E+02  0.00000000000E+00 0.  1.
<scales pt_clust_5="13000.00000" pt_clust_6="13000.00000" pt_clust_7="13000.00000" pt_clust_8="13000.00000" pt_clust_9="34.69598"></scales>
<clustering>
<clus scale="   34.696">  1  9  2 -1</clus>
<clus scale="   76.739">  5  6 -1 -1</clus>
<clus scale="   90.701">  1  5  2 -1</clus>
<clus scale="   91.928">  7  8 -1 -1</clus>
<clus scale="   34.696">  1  5  2 -1</clus>
</clustering>
</event>
<event>
 9    1  0.4067873E-005  0.1073567E+03  0.7546771E-02  0.1269957E+00
         21   -1    0    0  501  502  0.00000000000E+00  0.00000000000E+00  0.60309027444E+02  0.60309027444E+02  0.00000000000E+00 0.  1.
         -4   -1    0    0    0  501 -0.00000000000E+00 -0.00000000000E+00 -0.32391677009E+03  0.32391677009E+03  0.00000000000E+00 0.  1.
        -24    2    1    2    0    0 -0.29841816530E+01 -0.57215323967E+02 -0.15895235389E+03  0.18808684395E+03  0.82633597432E+02 0.  0.
         23    2    1    2    0    0  0.24089396820E+02  0.45788301999E+02 -0.12537407560E+03  0.16443294591E+03  0.92965946605E+02 0.  0.
         13    1    3    3    0    0 -0.23669258471E+02 -0.68389026519E+02 -0.14106610735E+03  0.15854633199E+03  0.00000000000E+00 0. -1.
        -14    1    3    3    0    0  0.20685076818E+02  0.11173702552E+02 -0.17886246536E+02  0.29540511959E+02  0.00000000000E+00 0.  1.
        -11    1    4    4    0    0  0.31669326216E+02 -0.39919088375E+01 -0.10562810237E+03  0.11034571840E+03  0.00000000000E+00 0.  1.
         11    1    4    4    0    0 -0.75799293966E+01  0.49780210837E+02 -0.19745973231E+02  0.54087227508E+02  0.00000000000E+00 0. -1.
         -3    1    1    2    0  502 -0.21105215167E+02  0.11427021967E+02  0.20718686841E+02  0.31706007675E+02  0.00000000000E+00 0.  1.
<scales pt_clust_5="13000.00000" pt_clust_6="13000.00000" pt_clust_7="13000.00000" pt_clust_8="13000.00000" pt_clust_9="24.00014"></scales>
<clustering>
<clus scale="   24.000">  1  9  2 -1</clus>
<clus scale="   82.634">  5  6 -1 -1</clus>
<clus scale="   92.966">  7  8 -1 -1</clus>
<clus scale="   98.545">  2  5  1 -1</clus>
<clus scale="   24.000">  1  5  2 -1</clus>
</clustering>
</event>
<event>
 9    1  0.4067873E-005  0.2025353E+03  0.7546771E-02  0.1149270E+00
          1   -1    0    0  502    0 -0.00000000000E+00  0.00000000000E+00  0.74078468547E+03  0.74078468547E+03  0.00000000000E+00 0. -1.
         21   -1    0    0  501  502  0.00000000000E+00 -0.00000000000E+00 -0.14173881368E+03  0.14173881368E+03  0.00000000000E+00 0. -1.
        -24    2    1    2    0    0  0.11454278917E+03  0.98130674278E+02  0.25770749598E+03  0.30925936264E+03  0.80489254633E+02 0.  0.
         23    2    1    2    0    0 -0.20337433247E+03 -0.19066888147E+03  0.12300075531E+03  0.32003364979E+03  0.97860153906E+02 0.  0.
         11    1    3    3    0    0  0.40097762978E+02  0.41823382552E+01  0.24844762856E+02  0.47355937225E+02  0.00000000000E+00 0. -1.
        -12    1    3    3    0    0  0.74445026193E+02  0.93948336023E+02  0.23286273312E+03  0.26190342541E+03  0.00000000000E+00 0.  1.
        -11    1    4    4    0    0 -0.19543164558E+03 -0.13258271361E+03  0.10695368418E+03  0.25925044765E+03  0.00000000000E+00 0. -1.
         11    1    4    4    0    0 -0.79426868883E+01 -0.58086167855E+02  0.16047071126E+02  0.60783202144E+02  0.00000000000E+00 0.  1.
          2    1    1    2  501    0  0.88831543299E+02  0.92538207191E+02  0.21833762051E+03  0.25323048672E+03  0.00000000000E+00 0. -1.
<scales pt_clust_5="13000.00000" pt_clust_6="13000.00000" pt_clust_7="13000.00000" pt_clust_8="13000.00000" pt_clust_9="128.27462"></scales>
<clustering>
<clus scale="   80.489">  5  6 -1 -1</clus>
<clus scale="   97.860">  7  8 -1 -1</clus>
<clus scale="  128.275">  2  9  1 -1</clus>
<clus scale="  194.737">  1  5  2 -1</clus>
<clus scale="  128.275">  2  5  1 -1</clus>
</clustering>
</event>
<event>
 9    1  0.4374136E-005  0.9312420E+02  0.7546771E-02  0.1300926E+00
         21   -1    0    0  501  502  0.00000000000E+00  0.00000000000E+00  0.10088631943E+03  0.10088631943E+03  0.00000000000E+00 0.  1.
          3   -1    0    0  502    0 -0.00000000000E+00 -0.00000000000E+00 -0.24643564436E+03  0.24643564436E+03  0.00000000000E+00 0. -1.
         23    2    1    2    0    0 -0.63368829393E+00 -0.15587997655E+02 -0.14555002210E+03  0.17250027001E+03  0.91258681725E+02 0.  0.
        -24    2    1    2    0    0 -0.13496766759E+02  0.36835584268E+02  0.60426871231E+02  0.10922861329E+03  0.82100305799E+02 0.  0.
         11    1    4    4    0    0  0.20114320193E+02  0.42856046309E+02  0.10093028312E+02  0.48405534835E+02  0.00000000000E+00 0. -1.
        -12    1    4    4    0    0 -0.33611086952E+02 -0.60204620419E+01  0.50333842919E+02  0.60823078451E+02  0.00000000000E+00 0.  1.
        -13    1    3    3    0    0 -0.29731928388E+02 -0.42206547306E+02 -0.66778437701E+02  0.84408174622E+02  0.00000000000E+00 0.  1.
         13    1    3    3    0    0  0.29098240094E+02  0.26618549651E+02 -0.78771584396E+02  0.88092095391E+02  0.00000000000E+00 0. -1.
          4    1    1    2  501    0  0.14130455053E+02 -0.21247586612E+02 -0.60426174061E+02  0.65593080493E+02  0.00000000000E+00 0. -1.
<scales pt_clust_5="13000.00000" pt_clust_6="13000.00000" pt_clust_7="13000.00000" pt_clust_8="13000.00000" pt_clust_9="25.51726"></scales>
<clustering>
<clus scale="   25.517">  1  9  2 -1</clus>
<clus scale="   82.100">  5  6 -1 -1</clus>
<clus scale="   84.169">  1  5  2 -1</clus>
<clus scale="   91.259">  7  8 -1 -1</clus>
<clus scale="   25.517">  1  5  2 -1</clus>
</clustering>
</event>
<event>
 9    1  0.4067873E-005  0.1128526E+03  0.7546771E-02  0.1259708E+00
          1   -1    0    0  502    0 -0.00000000000E+00  0.00000000000E+00  0.27703403957E+03  0.27703403957E+03  0.00000000000E+00 0. -1.
         21   -1    0    0  501  502  0.00000000000E+00 -0.00000000000E+00 -0.34993918197E+03  0.34993918197E+03  0.00000000000E+00 0. -1.
        -24    2    1    2    0    0  0.67580366158E+02 -0.74079882027E+01  0.24230756849E+03  0.26415257502E+03  0.80259834050E+02 0.  0.
         23    2    1    2    0    0 -0.41241586150E+02 -0.12031416003E+02 -0.91119432172E+02  0.13634897205E+03  0.91883991317E+02 0.  0.
         13    1    3    3    0    0 -0.73838077832E+01 -0.20494281629E+02  0.10434368378E+03  0.10659334192E+03  0.00000000000E+00 0. -1.
        -14    1    3    3    0    0  0.74964173941E+02  0.13086293426E+02  0.13796388472E+03  0.15755923310E+03  0.00000000000E+00 0.  1.
        -11    1    4    4    0    0 -0.68924467932E+02 -0.11112087794E+02 -0.80818393017E+02  0.10679734746E+03  0.00000000000E+00 0.  1.
         11    1    4    4    0    0  0.27682881782E+02 -0.91932820877E+00 -0.10301039154E+02  0.29551624588E+02  0.00000000000E+00 0. -1.
          2    1    1    2  501    0 -0.26338780008E+02  0.19439404206E+02 -0.22409327873E+03  0.22647167447E+03  0.00000000000E+00 0. -1.
<scales pt_clust_5="13000.00000" pt_clust_6="13000.00000" pt_clust_7="13000.00000" pt_clust_8="13000.00000" pt_clust_9="32.73563"></scales>
<clustering>
<clus scale="   32.736">  2  9  1 -1</clus>
<clus scale="   80.260">  5  6 -1 -1</clus>
<clus scale="   91.884">  7  8 -1 -1</clus>
<clus scale="  103.608">  1  5  2 -1</clus>
<clus scale="   32.736">  2  5  1 -1</clus>
</clustering>
</event>
<event>
 9    1  0.4067873E-005  0.1733237E+03  0.7546771E-02  0.1176391E+00
         21   -1    0    0  501  502  0.00000000000E+00  0.00000000000E+00  0.31075589437E+03  0.31075589437E+03  0.00000000000E+00 0. -1.
          1   -1    0    0  502    0 -0.00000000000E+00 -0.00000000000E+00 -0.24591583478E+03  0.24591583478E+03  0.00000000000E+00 0. -1.
        -24    2    1    2    0    0  0.99915776811E+02  0.12881450586E+03 -0.98780831040E+02  0.20578433422E+03  0.77544827389E+02 0.  0.
         23    2    1    2    0    0  0.12086389780E+02 -0.10761458064E+03  0.18642608439E+03  0.23463766799E+03  0.92591422467E+02 0.  0.
         11    1    3    3    0    0  0.64853153475E+02  0.12126862178E+03 -0.99778336012E+02  0.16990505137E+03  0.00000000000E+00 0. -1.
        -12    1    3    3    0    0  0.35062623336E+02  0.75458840803E+01  0.99750497208E+00  0.35879282851E+02  0.00000000000E+00 0.  1.
        -11    1    4    4    0    0  0.18718907852E+01 -0.74912423112E+02  0.41383174738E+02  0.85603401002E+02  0.00000000000E+00 0.  1.
         11    1    4    4    0    0  0.10214498995E+02 -0.32702157532E+02  0.14504290965E+03  0.14903426699E+03  0.00000000000E+00 0. -1.
          2    1    1    2  501    0 -0.11200216659E+03 -0.21199925220E+02 -0.22805193756E+02  0.11624972694E+03  0.00000000000E+00 0. -1.
<scales pt_clust_5="13000.00000" pt_clust_6="13000.00000" pt_clust_7="13000.00000" pt_clust_8="13000.00000" pt_clust_9="113.99094"></scales>
<clustering>
<clus scale="   77.545">  5  6 -1 -1</clus>
<clus scale="   92.591">  7  8 -1 -1</clus>
<clus scale="  113.991">  1  9  2 -1</clus>
<clus scale="  165.774">  2  5  1 -1</clus>
<clus scale="  113.991">  1  5  2 -1</clus>
</clustering>
</event>
<event>
 9    1  0.4067873E-005  0.9757126E+02  0.7546771E-02  0.1294027E+00
          1   -1    0    0  502    0 -0.00000000000E+00  0.00000000000E+00  0.10241687759E+03  0.10241687759E+03  0.00000000000E+00 0. -1.
         21   -1    0    0  501  502  0.00000000000E+00 -0.00000000000E+00 -0.20760843942E+03  0.20760843942E+03  0.00000000000E+00 0. -1.
         23    2    1    2    0    0 -0.21594643774E+02 -0.32497453455E+01  0.27512994006E+02  0.10233249766E+03  0.96114961131E+02 0.  0.
        -24    2    1    2    0    0 -0.57463124799E+01  0.27508793771E+02 -0.18940949705E+02  0.88201449794E+02  0.81430843838E+02 0.  0.
         11    1    4    4    0    0 -0.36440900276E+02 -0.97805085360E+01 -0.10576904803E+02  0.39185054234E+02  0.00000000000E+00 0. -1.
        -12    1    4    4    0    0  0.30694587796E+02  0.37289302307E+02 -0.83640449018E+01  0.49016395559E+02  0.00000000000E+00 0.  1.
        -13    1    3    3    0    0  0.21089259999E+02  0.31052493904E+02 -0.61739856415E+01  0.38041192984E+02  0.00000000000E+00 0.  1.
         13    1    3    3    0    0 -0.42683903773E+02 -0.34302239250E+02  0.33686979648E+02  0.64291304674E+02  0.00000000000E+00 0. -1.
          2    1    1    2  501    0  0.27340956254E+02 -0.24259048425E+02 -0.11376360613E+03  0.11949136956E+03  0.00000000000E+00 0. -1.
<scales pt_clust_5="13000.00000" pt_clust_6="13000.00000" pt_clust_7="13000.00000" pt_clust_8="13000.00000" pt_clust_9="36.55173"></scales>
<clustering>
<clus scale="   36.552">  2  9  1 -1</clus>
<clus scale="   81.431">  5  6 -1 -1</clus>
<clus scale="   83.145">  2  5  1 -1</clus>
<clus scale="   96.115">  7  8 -1 -1</clus>
<clus scale="   36.552">  2  5  1 -1</clus>
</clustering>
</event>
<event>
 9    1  0.4067873E-005  0.9536639E+02  0.7546771E-02  0.1299821E+00
          1   -1    0    0  502    0 -0.00000000000E+00  0.00000000000E+00  0.29093102289E+03  0.29093102289E+03  0.00000000000E+00 0. -1.
         21   -1    0    0  501  502  0.00000000000E+00 -0.00000000000E+00 -0.38636168229E+02  0.38636168229E+02  0.00000000000E+00 0.  1.
         23    2    1    2    0    0 -0.10908308618E+02 -0.75333846611E+01  0.13445854560E+03  0.16506454708E+03  0.94823315356E+02 0.  0.
        -24    2    1    2    0    0 -0.19684063433E+02  0.10690192095E+02  0.97274705367E+02  0.12750753346E+03  0.79335113433E+02 0.  0.
         11    1    4    4    0    0  0.14696669683E+02  0.14860012886E+02  0.89638780938E+02  0.92043050421E+02  0.00000000000E+00 0. -1.
        -12    1    4    4    0    0 -0.34380733116E+02 -0.41698207917E+01  0.76359244287E+01  0.35464483034E+02  0.00000000000E+00 0.  1.
        -13    1    3    3    0    0  0.10920521702E+02 -0.38206303564E+02  0.11700450065E+03  0.12356792707E+03  0.00000000000E+00 0.  1.
         13    1    3    3    0    0 -0.21828830320E+02  0.30672918903E+02  0.17454044946E+02  0.41496620009E+02  0.00000000000E+00 0. -1.
          2    1    1    2  501    0  0.30592372051E+02 -0.31568074337E+01  0.20561603694E+02  0.36995110587E+02  0.00000000000E+00 0. -1.
<scales pt_clust_5="13000.00000" pt_clust_6="13000.00000" pt_clust_7="13000.00000" pt_clust_8="13000.00000" pt_clust_9="30.75482"></scales>
<clustering>
<clus scale="   30.755">  2  9  1 -1</clus>
<clus scale="   79.335">  5  6 -1 -1</clus>
<clus scale="   79.983">  2  5  1 -1</clus>
<clus scale="   94.823">  7  8 -1 -1</clus>
<clus scale="   30.755">  2  5  1 -1</clus>
</clustering>
</event>
<event>
 9    1  0.4067873E-005  0.1305473E+03  0.7546771E-02  0.1229716E+00
         21   -1    0    0  501  502  0.00000000000E+00  0.00000000000E+00  0.18614800385E+03  0.18614800385E+03  0.00000000000E+00 0. -1.
          1   -1    0    0  502    0 -0.00000000000E+00 -0.00000000000E+00 -0.13214690212E+03  0.13214690212E+03  0.00000000000E+00 0. -1.
        -24    2    1    2    0    0 -0.93279589255E+02 -0.52011586852E+02 -0.28243939835E+02  0.13658811534E+03  0.80326248360E+02 0.  0.
         23    2    1    2    0    0  0.60658359095E+02  0.22146248598E+02  0.78775228928E+02  0.13734326185E+03  0.92128942400E+02 0.  0.
         13    1    3    3    0    0 -0.10161138106E+03 -0.32727814924E+02 -0.38148451593E+02  0.11336351701E+03  0.00000000000E+00 0. -1.
        -14    1    3    3    0    0  0.83317918000E+01 -0.19283771928E+02  0.99045117585E+01  0.23224598329E+02  0.00000000000E+00 0.  1.
        -11    1    4    4    0    0  0.90858493678E+01  0.44834699801E+02  0.64752762479E+02  0.79281922364E+02  0.00000000000E+00 0.  1.
         11    1    4    4    0    0  0.51572509727E+02 -0.22688451203E+02  0.14022466449E+02  0.58061339486E+02  0.00000000000E+00 0. -1.
          2    1    1    2  501    0  0.32621230160E+02  0.29865338254E+02  0.34698126328E+01  0.44363528781E+02  0.00000000000E+00 0. -1.
<scales pt_clust_5="13000.00000" pt_clust_6="13000.00000" pt_clust_7="13000.00000" pt_clust_8="13000.00000" pt_clust_9="44.22765"></scales>
<clustering>
<clus scale="   44.228">  1  9  2 -1</clus>
<clus scale="   80.326">  5  6 -1 -1</clus>
<clus scale="   92.129">  7  8 -1 -1</clus>
<clus scale="  122.504">  2  5  1 -1</clus>
<clus scale="   44.228">  1  5  2 -1</clus>
</clustering>
</event>
<event>
 9    1  0.4067873E-005  0.1631404E+03  0.7546771E-02  0.1193291E+00
         21   -1    0    0  501  502  0.00000000000E+00  0.00000000000E+00  0.11009519234E+03  0.11009519234E+03  0.00000000000E+00 0. -1.
          1   -1    0    0  502    0 -0.00000000000E+00 -0.00000000000E+00 -0.81310048458E+03  0.81310048458E+03  0.00000000000E+00 0. -1.
        -24    2    1    2    0    0 -0.33357897961E+02 -0.10555867988E+03 -0.47718333159E+03  0.49629304654E+03  0.79671022592E+02 0.  0.
         23    2    1    2    0    0 -0.48663466018E+02 -0.92778481509E+02 -0.42199123370E+02  0.14444470413E+03  0.90041806850E+02 0.  0.
         11    1    3    3    0    0 -0.35917735008E+02 -0.70134048284E+02 -0.43040917976E+03  0.43756248747E+03  0.00000000000E+00 0. -1.
        -12    1    3    3    0    0  0.25598370476E+01 -0.35424631597E+02 -0.46774151834E+02  0.58730559075E+02  0.00000000000E+00 0.  1.
        -13    1    4    4    0    0  0.22261199986E+02 -0.48566233876E+02 -0.74905162168E+01  0.53947640642E+02  0.00000000000E+00 0. -1.
         13    1    4    4    0    0 -0.70924666004E+02 -0.44212247634E+02 -0.34708607153E+02  0.90497063483E+02  0.00000000000E+00 0.  1.
          2    1    1    2  501    0  0.82021363978E+02  0.19833716139E+03 -0.18362283728E+03  0.28245792626E+03  0.00000000000E+00 0. -1.
<scales pt_clust_5="13000.00000" pt_clust_6="13000.00000" pt_clust_7="13000.00000" pt_clust_8="13000.00000" pt_clust_9="136.04146"></scales>
<clustering>
<clus scale="   79.671">  5  6 -1 -1</clus>
<clus scale="   90.042">  7  8 -1 -1</clus>
<clus scale="  136.392">  2  5  1 -1</clus>
<clus scale="  136.041">  1  9  2 -1</clus>
<clus scale="  136.041">  1  5  2 -1</clus>
</clustering>
</event>
<event>
 9    1  0.4067873E-005  0.1150891E+03  0.7546771E-02  0.1256583E+00
          3   -1    0    0  502    0 -0.00000000000E+00  0.00000000000E+00  0.82823108845E+02  0.82823108845E+02  0.00000000000E+00 0. -1.
         21   -1    0    0  501  502  0.00000000000E+00 -0.00000000000E+00 -0.47343455957E+03  0.47343455957E+03  0.00000000000E+00 0. -1.
         23    2    1    2    0    0  0.21984951437E+01  0.69370332186E+02  0.10659844327E+02  0.11532595371E+03  0.91484244268E+02 0.  0.
        -24    2    1    2    0    0  0.42406713512E+02 -0.69351995933E+02 -0.15809962594E+03  0.19370290240E+03  0.76923949359E+02 0.  0.
         11    1    4    4    0    0  0.65104959466E+02 -0.50507668799E+02 -0.11496938126E+03  0.14144836153E+03  0.00000000000E+00 0. -1.
        -12    1    4    4    0    0 -0.22698245954E+02 -0.18844327135E+02 -0.43130244684E+02  0.52254540866E+02  0.00000000000E+00 0.  1.
        -11    1    3    3    0    0 -0.11952244265E+02 -0.16281121677E+02 -0.14590119873E+02  0.24915911862E+02  0.00000000000E+00 0.  1.
         11    1    3    3    0    0  0.14150739408E+02  0.85651453863E+02  0.25249964200E+02  0.90410041847E+02  0.00000000000E+00 0. -1.
          4    1    1    2  501    0 -0.44605208656E+02 -0.18336252393E-01 -0.24317166911E+03  0.24722881230E+03  0.00000000000E+00 0. -1.
<scales pt_clust_5="13000.00000" pt_clust_6="13000.00000" pt_clust_7="13000.00000" pt_clust_8="13000.00000" pt_clust_9="44.60521"></scales>
<clustering>
<clus scale="   44.605">  2  9  1 -1</clus>
<clus scale="   76.924">  5  6 -1 -1</clus>
<clus scale="   91.484">  7  8 -1 -1</clus>
<clus scale="  103.891">  2  5  1 -1</clus>
<clus scale="   44.605">  2  5  1 -1</clus>
</clustering>
</event>
<event>
 9    1  0.4067873E-005  0.1589272E+03  0.7546771E-02  0.1221435E+00
         21   -1    0    0  501  502  0.00000000000E+00  0.00000000000E+00  0.78243172450E+03  0.78243172450E+03  0.00000000000E+00 0.  1.
         -4   -1    0    0    0  501 -0.00000000000E+00 -0.00000000000E+00 -0.68027151849E+02  0.68027151849E+02  0.00000000000E+00 0.  1.
         23    2    1    2    0    0  0.20499808043E+02  0.49388276117E+02  0.26466114194E+03  0.27668022903E+03  0.60390273530E+02 0.  0.
        -24    2    1    2    0    0 -0.55025779849E+02  0.92124488210E+02  0.41616239227E+02  0.14043616195E+03  0.80471401377E+02 0.  0.
         11    1    4    4    0    0 -0.20822980378E+02 -0.18445560994E+01  0.34300718707E+02  0.40168871068E+02  0.00000000000E+00 0. -1.
        -12    1    4    4    0    0 -0.34202799470E+02  0.93969044310E+02  0.73155205200E+01  0.10026729088E+03  0.00000000000E+00 0.  1.
        -13    1    3    3    0    0 -0.19974552563E+02  0.53528196714E+01  0.60362015901E+02  0.63806021598E+02  0.00000000000E+00 0. -1.
         13    1    3    3    0    0  0.40474360605E+02  0.44035456446E+02  0.20429912604E+03  0.21287420743E+03  0.00000000000E+00 0.  1.
         -3    1    1    2    0  502  0.34525971806E+02 -0.14151276433E+03  0.40812719148E+03  0.43334248537E+03  0.00000000000E+00 0.  1.
<scales pt_clust_5="13000.00000" pt_clust_6="13000.00000" pt_clust_7="13000.00000" pt_clust_8="13000.00000" pt_clust_9="137.04821"></scales>
<clustering>
<clus scale="   60.390">  7  8 -1 -1</clus>
<clus scale="   80.471">  5  6 -1 -1</clus>
<clus scale="   80.662">  2  7  1 -1</clus>
<clus scale="  137.048">  1  9  2 -1</clus>
<clus scale="  137.048">  1  5  2 -1</clus>
</clustering>
</event>
<event>
 9    1  0.4067873E-005  0.9571614E+02  0.7546771E-02  0.1295455E+00
         21   -1    0    0  501  502  0.00000000000E+00  0.00000000000E+00  0.55206577451E+02  0.55206577451E+02  0.00000000000E+00 0.  1.
         -4   -1    0    0    0  501 -0.00000000000E+00 -0.00000000000E+00 -0.30175989363E+03  0.30175989363E+03  0.00000000000E+00 0.  1.
         23    2    1    2    0    0  0.54752839168E+00  0.29241521220E+02 -0.12842550165E+03  0.16078729135E+03  0.92217553837E+02 0.  0.
        -24    2    1    2    0    0 -0.43844392698E+02  0.21847731211E+01 -0.10672608383E+03  0.14147790097E+03  0.81843970391E+02 0.  0.
         11    1    4    4    0    0  0.14720327727E+02  0.15301380983E+02 -0.65006656291E+02  0.68386297389E+02  0.00000000000E+00 0. -1.
        -12    1    4    4    0    0 -0.58564720425E+02 -0.13116607861E+02 -0.41719427538E+02  0.73091603583E+02  0.00000000000E+00 0.  1.
        -11    1    3    3    0    0 -0.18433972258E+02 -0.18746916120E+02 -0.96697200806E+02  0.10020781826E+03  0.00000000000E+00 0. -1.
         11    1    3    3    0    0  0.18981500650E+02  0.47988437340E+02 -0.31728300841E+02  0.60579473087E+02  0.00000000000E+00 0.  1.
         -3    1    1    2    0  502  0.43296864306E+02 -0.31426294341E+02 -0.11401730701E+02  0.54701278758E+02  0.00000000000E+00 0.  1.
<scales pt_clust_5="13000.00000" pt_clust_6="13000.00000" pt_clust_7="13000.00000" pt_clust_8="13000.00000" pt_clust_9="53.49982"></scales>
<clustering>
<clus scale="   53.500">  1  9  2 -1</clus>
<clus scale="   81.844">  5  6 -1 -1</clus>
<clus scale="   85.767">  1  5  2 -1</clus>
<clus scale="   92.218">  7  8 -1 -1</clus>
<clus scale="   53.500">  1  5  2 -1</clus>
</clustering>
</event>
<event>
 9    1  0.4067873E-005  0.9694046E+02  0.7546771E-02  0.1296963E+00
         21   -1    0    0  501  502  0.00000000000E+00  0.00000000000E+00  0.20687478994E+03  0.20687478994E+03  0.00000000000E+00 0.  1.
          1   -1    0    0  502    0 -0.00000000000E+00 -0.00000000000E+00 -0.11294894403E+03  0.11294894403E+03  0.00000000000E+00 0. -1.
        -24    2    1    2    0    0  0.30724839279E+02 -0.12995133957E+02 -0.63938228604E+02  0.10442815962E+03  0.75526513160E+02 0.  0.
         23    2    1    2    0    0  0.68203823331E+01 -0.19809662200E+02  0.11689465641E+03  0.15086425220E+03  0.93041504530E+02 0.  0.
         13    1    3    3    0    0  0.52309812002E+02  0.62957445858E+01 -0.33573689073E+02  0.62475158500E+02  0.00000000000E+00 0. -1.
        -14    1    3    3    0    0 -0.21584972723E+02 -0.19290878542E+02 -0.30364539531E+02  0.41953001124E+02  0.00000000000E+00 0.  1.
        -13    1    4    4    0    0  0.26721392017E+02  0.65147153076E+01 -0.19014583868E+01  0.27569727072E+02  0.00000000000E+00 0. -1.
         13    1    4    4    0    0 -0.19901009684E+02 -0.26324377508E+02  0.11879611479E+03  0.12329452513E+03  0.00000000000E+00 0.  1.
          2    1    1    2  501    0 -0.37545221612E+02  0.32804796157E+02  0.40969418106E+02  0.64531322137E+02  0.00000000000E+00 0. -1.
<scales pt_clust_5="13000.00000" pt_clust_6="13000.00000" pt_clust_7="13000.00000" pt_clust_8="13000.00000" pt_clust_9="49.85778"></scales>
<clustering>
<clus scale="   49.858">  1  9  2 -1</clus>
<clus scale="   75.527">  5  6 -1 -1</clus>
<clus scale="   80.281">  2  5  1 -1</clus>
<clus scale="   93.042">  7  8 -1 -1</clus>
<clus scale="   49.858">  1  5  2 -1</clus>
</clustering>
</event>
<event>
 9    1  0.4067873E-005  0.1278036E+03  0.7546771E-02  0.1234185E+00
         21   -1    0    0  501  502  0.00000000000E+00  0.00000000000E+00  0.16849785951E+03  0.16849785951E+03  0.00000000000E+00 0.  1.
         -2   -1    0    0    0  501 -0.00000000000E+00 -0.00000000000E+00 -0.27057922806E+03  0.27057922806E+03  0.00000000000E+00 0.  1.
        -24    2    1    2    0    0  0.58995084835E+02  0.51331151588E+02 -0.11360956711E+03  0.15973220231E+03  0.80572548410E+02 0.  0.
         23    2    1    2    0    0 -0.79546770946E+02 -0.64829294854E+02 -0.96355182571E+02  0.16869500683E+03  0.92968585451E+02 0.  0.
         13    1    3    3    0    0  0.72449667464E+02  0.18791799609E+02 -0.61662315446E+02  0.96975910382E+02  0.00000000000E+00 0. -1.
        -14    1    3    3    0    0 -0.13454582629E+02  0.32539351979E+02 -0.51947251662E+02  0.62756291925E+02  0.00000000000E+00 0.  1.
        -11    1    4    4    0    0 -0.47071557573E+02 -0.26251633774E+02  0.63582542458E+01  0.54270684584E+02  0.00000000000E+00 0. -1.
         11    1    4    4    0    0 -0.32475213373E+02 -0.38577661079E+02 -0.10271343682E+03  0.11442432224E+03  0.00000000000E+00 0.  1.
         -1    1    1    2    0  502  0.20551686111E+02  0.13498143266E+02  0.10788338113E+03  0.11064987843E+03  0.00000000000E+00 0.  1.
<scales pt_clust_5="13000.00000" pt_clust_6="13000.00000" pt_clust_7="13000.00000" pt_clust_8="13000.00000" pt_clust_9="24.58804"></scales>
<clustering>
<clus scale="   24.588">  1  9  2 -1</clus>
<clus scale="   80.573">  5  6 -1 -1</clus>
<clus scale="   92.969">  7  8 -1 -1</clus>
<clus scale="  119.090">  2  5  1 -1</clus>
<clus scale="   24.588">  1  5  2 -1</clus>
</clustering>
</event>
<event>
 9    1  0.4067873E-005  0.1003425E+03  0.7546771E-02  0.1283285E+00
         21   -1    0    0  501  502  0.00000000000E+00  0.00000000000E+00  0.14318462678E+03  0.14318462678E+03  0.00000000000E+00 0. -1.
          3   -1    0    0  502    0 -0.00000000000E+00 -0.00000000000E+00 -0.14303667916E+03  0.14303667916E+03  0.00000000000E+00 0. -1.
         23    2    1    2    0    0 -0.45888077813E+02 -0.22519581410E+02 -0.58096914753E+02  0.11864732634E+03  0.89939364634E+02 0.  0.
        -24    2    1    2    0    0  0.34707785092E+02 -0.25460211257E+02  0.70772813696E+02  0.11674083084E+03  0.82260426227E+02 0.  0.
         11    1    4    4    0    0  0.33043606985E+02 -0.15980297475E+02  0.88920775368E+02  0.96198514344E+02  0.00000000000E+00 0. -1.
        -12    1    4    4    0    0  0.16641781076E+01 -0.94799137826E+01 -0.18147961672E+02  0.20542316494E+02  0.00000000000E+00 0.  1.
        -11    1    3    3    0    0 -0.34295315113E+02  0.28043957506E+02 -0.52791519551E+01  0.44615038235E+02  0.00000000000E+00 0. -1.
         11    1    3    3    0    0 -0.11592762700E+02 -0.50563538916E+02 -0.52817762798E+02  0.74032288103E+02  0.00000000000E+00 0.  1.
          4    1    1    2  501    0  0.11180292721E+02  0.47979792667E+02 -0.12527951324E+02  0.50833148772E+02  0.00000000000E+00 0. -1.
<scales pt_clust_5="13000.00000" pt_clust_6="13000.00000" pt_clust_7="13000.00000" pt_clust_8="13000.00000" pt_clust_9="49.26522"></scales>
<clustering>
<clus scale="   49.265">  1  9  2 -1</clus>
<clus scale="   82.260">  5  6 -1 -1</clus>
<clus scale="   89.939">  7  8 -1 -1</clus>
<clus scale="   93.522">  1  5  2 -1</clus>
<clus scale="   49.265">  1  5  2 -1</clus>
</clustering>
</event>
<event>
 9    1  0.4067873E-005  0.1016918E+03  0.7546771E-02  0.1281577E+00
         21   -1    0    0  501  502  0.00000000000E+00  0.00000000000E+00  0.49848444449E+02  0.49848444449E+02  0.00000000000E+00 0. -1.
          1   -1    0    0  502    0 -0.00000000000E+00 -0.00000000000E+00 -0.42498358142E+03  0.42498358142E+03  0.00000000000E+00 0. -1.
         23    2    1    2    0    0  0.20399052296E+02  0.43645633305E+02 -0.20567885596E+03  0.22977754824E+03  0.90403911667E+02 0.  0.
        -24    2    1    2    0    0  0.37561589459E+02 -0.53363714934E+02 -0.56877247806E+02  0.11805874613E+03  0.80276317457E+02 0.  0.
         13    1    4    4    0    0  0.52297321082E+02 -0.21105705312E+02 -0.69563302073E+01  0.56822980554E+02  0.00000000000E+00 0. -1.
        -14    1    4    4    0    0 -0.14735731623E+02 -0.32258009622E+02 -0.49920917598E+02  0.61235765571E+02  0.00000000000E+00 0.  1.
        -11    1    3    3    0    0 -0.21210966652E+02 -0.18084233675E+02 -0.51155135591E+02  0.58256265855E+02  0.00000000000E+00 0.  1.
         11    1    3    3    0    0  0.41610018948E+02  0.61729866981E+02 -0.15452372037E+03  0.17152128238E+03  0.00000000000E+00 0. -1.
          2    1    1    2  501    0 -0.57960641755E+02  0.97180816286E+01 -0.11257903321E+03  0.12699573151E+03  0.00000000000E+00 0. -1.
<scales pt_clust_5="13000.00000" pt_clust_6="13000.00000" pt_clust_7="13000.00000" pt_clust_8="13000.00000" pt_clust_9="58.76972"></scales>
<clustering>
<clus scale="   58.770">  1  9  2 -1</clus>
<clus scale="   80.276">  5  6 -1 -1</clus>
<clus scale="   90.404">  7  8 -1 -1</clus>
<clus scale="   92.804">  1  5  2 -1</clus>
<clus scale="   58.770">  1  5  2 -1</clus>
</clustering>
</event>
<event>
 9    1  0.4067873E-005  0.9523466E+02  0.7546771E-02  0.1299086E+00
         21   -1    0    0  501  502  0.00000000000E+00  0.00000000000E+00  0.68395847396E+02  0.68395847396E+02  0.00000000000E+00 0. -1.
         -2   -1    0    0    0  501 -0.00000000000E+00 -0.00000000000E+00 -0.23164217306E+03  0.23164217306E+03  0.00000000000E+00 0.  1.
        -24    2    1    2    0    0 -0.22899076279E+02 -0.15889531366E+02 -0.72382416962E+02  0.10796379727E+03  0.75100747889E+02 0.  0.
         23    2    1    2    0    0  0.44216432072E+02  0.53708143193E+01 -0.22778328668E+01  0.10035418232E+03  0.89899025990E+02 0.  0.
         11    1    3    3    0    0 -0.28188686969E+02 -0.22092395335E+02 -0.85399168684E+02  0.92605043149E+02  0.00000000000E+00 0. -1.
        -12    1    3    3    0    0  0.52896106903E+01  0.62028639689E+01  0.13016751722E+02  0.15358754118E+02  0.00000000000E+00 0.  1.
        -11    1    4    4    0    0 -0.15144847271E+02 -0.28162701022E+02  0.20228525767E+01  0.32040537765E+02  0.00000000000E+00 0. -1.
         11    1    4    4    0    0  0.59361279343E+02  0.33533515341E+02 -0.43006854434E+01  0.68313644550E+02  0.00000000000E+00 0.  1.
         -1    1    1    2    0  502 -0.21317355793E+02  0.10518717047E+02 -0.88586075839E+02  0.91720040879E+02  0.00000000000E+00 0.  1.
<scales pt_clust_5="13000.00000" pt_clust_6="13000.00000" pt_clust_7="13000.00000" pt_clust_8="13000.00000" pt_clust_9="23.77128"></scales>
<clustering>
<clus scale="   23.771">  1  9  2 -1</clus>
<clus scale="   75.101">  5  6 -1 -1</clus>
<clus scale="   81.412">  2  5  1 -1</clus>
<clus scale="   89.899">  7  8 -1 -1</clus>
<clus scale="   23.771">  1  5  2 -1</clus>
</clustering>
</event>
<event>
 9    1  0.4067873E-005  0.2035452E+03  0.7546771E-02  0.1178744E+00
         21   -1    0    0  501  502  0.00000000000E+00  0.00000000000E+00  0.28195365168E+03  0.28195365168E+03  0.00000000000E+00 0. -1.
          1   -1    0    0  502    0 -0.00000000000E+00 -0.00000000000E+00 -0.55463862603E+03  0.55463862603E+03  0.00000000000E+00 0. -1.
        -24    2    1    2    0    0 -0.26170366868E+01 -0.54479998234E+02 -0.34202705541E+03  0.35553216568E+03  0.80285086459E+02 0.  0.
         23    2    1    2    0    0  0.18272808825E+03  0.11078551388E+03 -0.83463674550E+02  0.23824351264E+03  0.64271315736E+02 0.  0.
         13    1    3    3    0    0  0.32370116624E+02 -0.36320058720E+02 -0.11139803753E+03  0.12155860266E+03  0.00000000000E+00 0. -1.
        -14    1    3    3    0    0 -0.34987153311E+02 -0.18159939514E+02 -0.23062901788E+03  0.23397356301E+03  0.00000000000E+00 0.  1.
        -13    1    4    4    0    0  0.83028968259E+02  0.83085921516E+02 -0.27635491676E+02  0.12066814130E+03  0.00000000000E+00 0. -1.
         13    1    4    4    0    0  0.99699119991E+02  0.27699592367E+02 -0.55828182874E+02  0.11757537135E+03  0.00000000000E+00 0.  1.
          2    1    1    2  501    0 -0.18011105156E+03 -0.56305515649E+02  0.15280575562E+03  0.24281659939E+03  0.00000000000E+00 0. -1.
<scales pt_clust_5="13000.00000" pt_clust_6="13000.00000" pt_clust_7="13000.00000" pt_clust_8="13000.00000" pt_clust_9="193.13169"></scales>
<clustering>
<clus scale="   64.271">  7  8 -1 -1</clus>
<clus scale="   80.285">  5  6 -1 -1</clus>
<clus scale="   97.060">  2  5  1 -1</clus>
<clus scale="  193.132">  1  9  2 -1</clus>
<clus scale="  193.132">  1  5  2 -1</clus>
</clustering>
</event>
<event>
 9    1  0.4067873E-005  0.1249551E+03  0.7546771E-02  0.1246216E+00
         21   -1    0    0  501  502  0.00000000000E+00  0.00000000000E+00  0.73942595057E+02  0.73942595057E+02  0.00000000000E+00 0. -1.
          1   -1    0    0  502    0 -0.00000000000E+00 -0.00000000000E+00 -0.44914158741E+03  0.44914158741E+03  0.00000000000E+00 0. -1.
         23    2    1    2    0    0 -0.12374177876E+02  0.37458995456E+02 -0.72979985388E+02  0.12364344681E+03  0.91680570753E+02 0.  0.
        -24    2    1    2    0    0  0.26440491961E+02  0.65564871127E+02 -0.27089279147E+03  0.29084464892E+03  0.78802623006E+02 0.  0.
         11    1    4    4    0    0  0.37306067134E+02  0.73766341203E+02 -0.26163118333E+03  0.27437946685E+03  0.00000000000E+00 0. -1.
        -12    1    4    4    0    0 -0.10865575172E+02 -0.82014700758E+01 -0.92616081494E+01  0.16465182074E+02  0.00000000000E+00 0.  1.
        -11    1    3    3    0    0 -0.15909956217E+02  0.14873784026E+02 -0.91603674474E+02  0.94157258537E+02  0.00000000000E+00 0.  1.
         11    1    3    3    0    0  0.35357783404E+01  0.22585211430E+02  0.18623689086E+02  0.29486188275E+02  0.00000000000E+00 0. -1.
          2    1    1    2  501    0 -0.14066314085E+02 -0.10302386658E+03 -0.31326215493E+02  0.10859608674E+03  0.00000000000E+00 0. -1.
<scales pt_clust_5="13000.00000" pt_clust_6="13000.00000" pt_clust_7="13000.00000" pt_clust_8="13000.00000" pt_clust_9="96.97384"></scales>
<clustering>
<clus scale="   78.803">  5  6 -1 -1</clus>
<clus scale="   91.681">  7  8 -1 -1</clus>
<clus scale="   99.808">  2  7  1 -1</clus>
<clus scale="   96.974">  1  9  2 -1</clus>
<clus scale="   96.974">  1  5  2 -1</clus>
</clustering>
</event>
<event>
 9    1  0.4067873E-005  0.9112642E+02  0.7546771E-02  0.1310204E+00
          1   -1    0    0  502    0 -0.00000000000E+00  0.00000000000E+00  0.18618721625E+03  0.18618721625E+03  0.00000000000E+00 0. -1.
         21   -1    0    0  501  502  0.00000000000E+00 -0.00000000000E+00 -0.46427472653E+03  0.46427472653E+03  0.00000000000E+00 0.  1.
        -24    2    1    2    0    0  0.96497796861E+01  0.37725453278E+00  0.15130178838E+03  0.16919099533E+03  0.75100606953E+02 0.  0.
         23    2    1    2    0    0 -0.12465430624E+02  0.49695671787E+02 -0.88103392551E+02  0.13631979794E+03  0.90530838818E+02 0.  0.
         11    1    3    3    0    0  0.27093409033E+02 -0.30076817310E+02  0.75846254158E+02  0.85972798153E+02  0.00000000000E+00 0. -1.
        -12    1    3    3    0    0 -0.17443629346E+02  0.30454071843E+02  0.75455534221E+02  0.83218197175E+02  0.00000000000E+00 0.  1.
        -13    1    4    4    0    0  0.27664577570E+02 -0.11968988553E+02 -0.30476778015E+02  0.42865131952E+02  0.00000000000E+00 0. -1.
         13    1    4    4    0    0 -0.40130008194E+02  0.61664660340E+02 -0.57626614536E+02  0.93454665991E+02  0.00000000000E+00 0.  1.
          2    1    1    2  501    0  0.28156509380E+01 -0.50072926320E+02 -0.34128590611E+03  0.34495114951E+03  0.00000000000E+00 0. -1.
<scales pt_clust_5="13000.00000" pt_clust_6="13000.00000" pt_clust_7="13000.00000" pt_clust_8="13000.00000" pt_clust_9="50.15203"></scales>
<clustering>
<clus scale="   50.152">  2  9  1 -1</clus>
<clus scale="   75.101">  5  6 -1 -1</clus>
<clus scale="   75.818">  1  5  2 -1</clus>
<clus scale="   90.531">  7  8 -1 -1</clus>
<clus scale="   50.152">  2  5  1 -1</clus>
</clustering>
</event>
<event>
 9    1  0.4067873E-005  0.1499740E+03  0.7546771E-02  0.1211333E+00
         -4   -1    0    0    0  501 -0.00000000000E+00  0.00000000000E+00  0.37616918714E+03  0.37616918714E+03  0.00000000000E+00 0.  1.
         21   -1    0    0  501  502  0.00000000000E+00 -0.00000000000E+00 -0.11414819908E+03  0.11414819908E+03  0.00000000000E+00 0.  1.
         23    2    1    2    0    0 -0.73430785085E+02  0.25990372876E+02  0.66860253065E+02  0.13634168665E+03  0.89728381225E+02 0.  0.
        -24    2    1    2    0    0 -0.28599038347E+02 -0.12309409044E+03  0.67937962529E+02  0.16417356399E+03  0.79795565452E+02 0.  0.
         13    1    4    4    0    0  0.19382414497E+02 -0.12588418233E+02 -0.45765106702E+01  0.23560363224E+02  0.00000000000E+00 0. -1.
        -14    1    4    4    0    0 -0.47981452844E+02 -0.11050567221E+03  0.72514473199E+02  0.14061320077E+03  0.00000000000E+00 0.  1.
        -11    1    3    3    0    0 -0.24602555662E+02  0.10473722330E+02  0.79242491823E+02  0.83632273166E+02  0.00000000000E+00 0. -1.
         11    1    3    3    0    0 -0.48828229423E+02  0.15516650546E+02 -0.12382238759E+02  0.52709413481E+02  0.00000000000E+00 0.  1.
         -3    1    1    2    0  502  0.10202982343E+03  0.97103717564E+02  0.12722277247E+03  0.18980213558E+03  0.00000000000E+00 0.  1.
<scales pt_clust_5="13000.00000" pt_clust_6="13000.00000" pt_clust_7="13000.00000" pt_clust_8="13000.00000" pt_clust_9="126.98380"></scales>
<clustering>
<clus scale="   79.796">  5  6 -1 -1</clus>
<clus scale="   89.728">  7  8 -1 -1</clus>
<clus scale="  118.822">  1  7  2 -1</clus>
<clus scale="  126.984">  2  9  1 -1</clus>
<clus scale="  126.984">  2  5  1 -1</clus>
</clustering>
</event>
<event>
 9    1  0.4067873E-005  0.1950965E+03  0.7546771E-02  0.1167636E+00
         21   -1    0    0  501  502  0.00000000000E+00  0.00000000000E+00  0.11170012111E+03  0.11170012111E+03  0.00000000000E+00 0.  1.
         -2   -1    0    0    0  501 -0.00000000000E+00 -0.00000000000E+00 -0.78853355825E+03  0.78853355825E+03  0.00000000000E+00 0.  1.
        -24    2    1    2    0    0 -0.62142261726E+02  0.98260437060E+02 -0.37324489741E+02  0.14673470933E+03  0.81370653216E+02 0.  0.
         23    2    1    2    0    0  0.14083084777E+03  0.75649892416E+02 -0.44205211731E+03  0.47886121584E+03  0.91333212533E+02 0.  0.
         11    1    3    3    0    0 -0.59480326312E+01  0.63702800144E+02  0.11052985553E+02  0.64927608365E+02  0.00000000000E+00 0. -1.
        -12    1    3    3    0    0 -0.56194229095E+02  0.34557636916E+02 -0.48377475295E+02  0.81807100967E+02  0.00000000000E+00 0.  1.
        -11    1    4    4    0    0  0.42627819042E+02 -0.19749524331E+02 -0.10294884350E+03  0.11316200354E+03  0.00000000000E+00 0. -1.
         11    1    4    4    0    0  0.98203028733E+02  0.95399416747E+02 -0.33910327382E+03  0.36569921230E+03  0.00000000000E+00 0.  1.
         -1    1    1    2    0  502 -0.78688586049E+02 -0.17391032948E+03 -0.19745683009E+03  0.27463775418E+03  0.00000000000E+00 0.  1.
<scales pt_clust_5="13000.00000" pt_clust_6="13000.00000" pt_clust_7="13000.00000" pt_clust_8="13000.00000" pt_clust_9="172.39742"></scales>
<clustering>
<clus scale="   81.371">  5  6 -1 -1</clus>
<clus scale="   91.333">  7  8 -1 -1</clus>
<clus scale="  141.908">  2  5  1 -1</clus>
<clus scale="  172.397">  1  9  2 -1</clus>
<clus scale="  172.397">  1  5  2 -1</clus>
</clustering>
</event>
<event>
 9    1  0.4067873E-005  0.9393945E+02  0.7546771E-02  0.1299824E+00
         21   -1    0    0  501  502  0.00000000000E+00  0.00000000000E+00  0.18478496719E+03  0.18478496719E+03  0.00000000000E+00 0. -1.
          1   -1    0    0  502    0 -0.00000000000E+00 -0.00000000000E+00 -0.65321410827E+02  0.65321410827E+02  0.00000000000E+00 0. -1.
        -24    2    1    2    0    0 -0.24492839473E+01  0.12658395805E+02  0.51453461058E+02  0.96646776727E+02  0.80789274168E+02 0.  0.
         23    2    1    2    0    0  0.37318137383E+02 -0.11664044732E+02  0.64312769866E+02  0.11838117645E+03  0.91374379630E+02 0.  0.
         13    1    3    3    0    0 -0.40573959325E+02  0.93486645711E+00  0.34653947429E+02  0.53366808252E+02  0.00000000000E+00 0. -1.
        -14    1    3    3    0    0  0.38124675378E+02  0.11723529348E+02  0.16799513629E+02  0.43279968475E+02  0.00000000000E+00 0.  1.
        -13    1    4    4    0    0  0.29923965698E+01  0.33541497013E+02  0.14806428653E+01  0.33707250888E+02  0.00000000000E+00 0.  1.
         13    1    4    4    0    0  0.34325740813E+02 -0.45205541745E+02  0.62832127001E+02  0.84673925563E+02  0.00000000000E+00 0. -1.
          2    1    1    2  501    0 -0.34868853436E+02 -0.99435107296E+00  0.36973254423E+01  0.35078424842E+02  0.00000000000E+00 0. -1.
<scales pt_clust_5="13000.00000" pt_clust_6="13000.00000" pt_clust_7="13000.00000" pt_clust_8="13000.00000" pt_clust_9="34.88305"></scales>
<clustering>
<clus scale="   34.883">  1  9  2 -1</clus>
<clus scale="   80.789">  5  6 -1 -1</clus>
<clus scale="   83.679">  2  5  1 -1</clus>
<clus scale="   91.374">  7  8 -1 -1</clus>
<clus scale="   34.883">  1  5  2 -1</clus>
</clustering>
</event>
<event>
 9    1  0.4067873E-005  0.9759276E+02  0.7546771E-02  0.1291009E+00
          3   -1    0    0  502    0 -0.00000000000E+00  0.00000000000E+00  0.23207544155E+03  0.23207544155E+03  0.00000000000E+00 0. -1.
         21   -1    0    0  501  502  0.00000000000E+00 -0.00000000000E+00 -0.14425160440E+03  0.14425160440E+03  0.00000000000E+00 0.  1.
         23    2    1    2    0    0 -0.12596608737E+02  0.27580574724E+02  0.16373984749E+03  0.18982487268E+03  0.91122894926E+02 0.  0.
        -24    2    1    2    0    0  0.21659118206E+02 -0.72286275903E+02 -0.85756891347E+02  0.13983771426E+03  0.80659276159E+02 0.  0.
         11    1    4    4    0    0 -0.23100168329E+02 -0.28025879941E+02 -0.63347516394E+02  0.73020377680E+02  0.00000000000E+00 0. -1.
        -12    1    4    4    0    0  0.44759286534E+02 -0.44260395962E+02 -0.22409374953E+02  0.66817336579E+02  0.00000000000E+00 0.  1.
        -13    1    3    3    0    0  0.16998651556E+02 -0.27733615464E+02  0.44921213626E+02  0.55461905981E+02  0.00000000000E+00 0.  1.
         13    1    3    3    0    0 -0.29595260293E+02  0.55314190187E+02  0.11881863386E+03  0.13436296670E+03  0.00000000000E+00 0. -1.
          4    1    1    2  501    0 -0.90625094687E+01  0.44705701179E+02  0.98408810030E+01  0.46664459010E+02  0.00000000000E+00 0. -1.
<scales pt_clust_5="13000.00000" pt_clust_6="13000.00000" pt_clust_7="13000.00000" pt_clust_8="13000.00000" pt_clust_9="45.61501"></scales>
<clustering>
<clus scale="   45.615">  2  9  1 -1</clus>
<clus scale="   80.659">  5  6 -1 -1</clus>
<clus scale="   87.903">  2  5  1 -1</clus>
<clus scale="   91.123">  7  8 -1 -1</clus>
<clus scale="   45.615">  2  5  1 -1</clus>
</clustering>
</event>
<event>
 9    1  0.4067873E-005  0.1045918E+03  0.7546771E-02  0.1275981E+00
          1   -1    0    0  502    0 -0.00000000000E+00  0.00000000000E+00  0.12152956526E+03  0.12152956526E+03  0.00000000000E+00 0. -1.
         21   -1    0    0  501  502  0.00000000000E+00 -0.00000000000E+00 -0.14459606525E+03  0.14459606525E+03  0.00000000000E+00 0.  1.
         23    2    1    2    0    0  0.41869994061E+02 -0.24564627696E+01  0.28309948634E+02  0.10383941778E+03  0.90675470119E+02 0.  0.
        -24    2    1    2    0    0 -0.64028649870E+02  0.20195407795E+02 -0.36180530092E+00  0.10390667839E+03  0.79302865080E+02 0.  0.
         13    1    4    4    0    0 -0.60743179557E+02  0.83507106681E+01  0.32090449442E+02  0.69204517025E+02  0.00000000000E+00 0. -1.
        -14    1    4    4    0    0 -0.32854703132E+01  0.11844697127E+02 -0.32452254742E+02  0.34702161360E+02  0.00000000000E+00 0.  1.
        -11    1    3    3    0    0  0.46001895811E+02  0.29403095239E+02  0.42035782581E+02  0.68903725915E+02  0.00000000000E+00 0. -1.
         11    1    3    3    0    0 -0.41319017498E+01 -0.31859558009E+02 -0.13725833947E+02  0.34935691865E+02  0.00000000000E+00 0.  1.
          2    1    1    2  501    0  0.22158655808E+02 -0.17738945025E+02 -0.51014643321E+02  0.58379534350E+02  0.00000000000E+00 0. -1.
<scales pt_clust_5="13000.00000" pt_clust_6="13000.00000" pt_clust_7="13000.00000" pt_clust_8="13000.00000" pt_clust_9="28.38444"></scales>
<clustering>
<clus scale="   28.384">  2  9  1 -1</clus>
<clus scale="   79.303">  5  6 -1 -1</clus>
<clus scale="   90.675">  7  8 -1 -1</clus>
<clus scale="   94.902">  2  5  1 -1</clus>
<clus scale="   28.384">  2  5  1 -1</clus>
</clustering>
</event>
<event>
 9    1  0.4067873E-005  0.9501481E+02  0.7546771E-02  0.1298804E+00
         21   -1    0    0  501  502  0.00000000000E+00  0.00000000000E+00  0.45727879820E+02  0.45727879820E+02  0.00000000000E+00 0.  1.
          1   -1    0    0  502    0 -0.00000000000E+00 -0.00000000000E+00 -0.39332393514E+03  0.39332393514E+03  0.00000000000E+00 0. -1.
         23    2    1    2    0    0 -0.81879257688E+01 -0.19940772683E+02 -0.10289149231E+03  0.13848100192E+03  0.90142399346E+02 0.  0.
        -24    2    1    2    0    0 -0.16986823343E+02  0.44811988718E+02 -0.51402325433E+02  0.10405592701E+03  0.76738324097E+02 0.  0.
         11    1    4    4    0    0 -0.30809863748E+02 -0.94016047586E+01 -0.78512581604E+01  0.33155393692E+02  0.00000000000E+00 0. -1.
        -12    1    4    4    0    0  0.13823040405E+02  0.54213593477E+02 -0.43551067273E+02  0.70900533315E+02  0.00000000000E+00 0.  1.
        -13    1    3    3    0    0  0.29018286512E+02  0.21522316309E+02 -0.31550546728E+02  0.47965696599E+02  0.00000000000E+00 0. -1.
         13    1    3    3    0    0 -0.37206212281E+02 -0.41463088992E+02 -0.71340945586E+02  0.90515305325E+02  0.00000000000E+00 0.  1.
          2    1    1    2  501    0  0.25174749112E+02 -0.24871216035E+02 -0.19330223758E+03  0.19651488603E+03  0.00000000000E+00 0. -1.
<scales pt_clust_5="13000.00000" pt_clust_6="13000.00000" pt_clust_7="13000.00000" pt_clust_8="13000.00000" pt_clust_9="35.38851"></scales>
<clustering>
<clus scale="   35.389">  1  9  2 -1</clus>
<clus scale="   76.738">  5  6 -1 -1</clus>
<clus scale="   82.407">  1  5  2 -1</clus>
<clus scale="   90.142">  7  8 -1 -1</clus>
<clus scale="   35.389">  1  5  2 -1</clus>
</clustering>
</event>
<event>
 9    1  0.4067873E-005  0.9447071E+02  0.7546771E-02  0.1298741E+00
         21   -1    0    0  501  502  0.00000000000E+00  0.00000000000E+00  0.18571111453E+03  0.18571111453E+03  0.00000000000E+00 0. -1.
         -4   -1    0    0    0  501 -0.00000000000E+00 -0.00000000000E+00 -0.77227081736E+02  0.77227081736E+02  0.00000000000E+00 0.  1.
        -24    2    1    2    0    0  0.98072406374E+01 -0.30337466957E+02 -0.18619713890E+02  0.88031386238E+02  0.79914249964E+02 0.  0.
         23    2    1    2    0    0 -0.29671825746E+01  0.75594821437E+01  0.76895744641E+02  0.11935083415E+03  0.90915983887E+02 0.  0.
         13    1    3    3    0    0 -0.28135047949E+02  0.10588985638E+02 -0.91640003502E+01  0.31427479096E+02  0.00000000000E+00 0. -1.
        -14    1    3    3    0    0  0.37942288586E+02 -0.40926452595E+02 -0.94557135399E+01  0.56603907142E+02  0.00000000000E+00 0.  1.
        -11    1    4    4    0    0 -0.23104628309E+02  0.94828844427E+01  0.91211298985E+02  0.94568758103E+02  0.00000000000E+00 0. -1.
         11    1    4    4    0    0  0.20137445734E+02 -0.19234022991E+01 -0.14315554344E+02  0.24782076048E+02  0.00000000000E+00 0.  1.
         -3    1    1    2    0  502 -0.68400580628E+01  0.22777984814E+02  0.50208002038E+02  0.55555975873E+02  0.00000000000E+00 0.  1.
<scales pt_clust_5="13000.00000" pt_clust_6="13000.00000" pt_clust_7="13000.00000" pt_clust_8="13000.00000" pt_clust_9="23.78283"></scales>
<clustering>
<clus scale="   23.783">  1  9  2 -1</clus>
<clus scale="   79.914">  5  6 -1 -1</clus>
<clus scale="   83.936">  2  5  1 -1</clus>
<clus scale="   90.916">  7  8 -1 -1</clus>
<clus scale="   23.783">  1  5  2 -1</clus>
</clustering>
</event>
<event>
 9    1  0.4067873E-005  0.1554659E+03  0.7546771E-02  0.1195141E+00
         21   -1    0    0  501  502  0.00000000000E+00  0.00000000000E+00  0.24714684287E+03  0.24714684287E+03  0.00000000000E+00 0. -1.
          1   -1    0    0  502    0 -0.00000000000E+00 -0.00000000000E+00 -0.18340663116E+03  0.18340663116E+03  0.00000000000E+00 0. -1.
         23    2    1    2    0    0 -0.10904575131E+03 -0.10662446902E+03  0.31996848146E+02  0.17917825358E+03  0.88438085642E+02 0.  0.
        -24    2    1    2    0    0  0.32416748944E+02  0.10251359792E+03  0.83893251713E+02  0.15859314190E+03  0.80955689130E+02 0.  0.
         13    1    4    4    0    0  0.39606579640E+02  0.35428764992E+02  0.29553295581E+01  0.53222293378E+02  0.00000000000E+00 0. -1.
        -14    1    4    4    0    0 -0.71898306962E+01  0.67084832931E+02  0.80937922155E+02  0.10537084852E+03  0.00000000000E+00 0.  1.
        -13    1    3    3    0    0  0.14906829550E+02 -0.17281175454E+02 -0.10637482642E+01  0.22846972505E+02  0.00000000000E+00 0.  1.
         13    1    3    3    0    0 -0.12395258086E+03 -0.89343293565E+02  0.33060596410E+02  0.15633128107E+03  0.00000000000E+00 0. -1.
          2    1    1    2  501    0  0.76629002369E+02  0.41108710954E+01 -0.52149888148E+02  0.92782078544E+02  0.00000000000E+00 0. -1.
<scales pt_clust_5="13000.00000" pt_clust_6="13000.00000" pt_clust_7="13000.00000" pt_clust_8="13000.00000" pt_clust_9="76.73923"></scales>
<clustering>
<clus scale="   76.739">  1  9  2 -1</clus>
<clus scale="   80.956">  5  6 -1 -1</clus>
<clus scale="   88.438">  7  8 -1 -1</clus>
<clus scale="  151.335">  1  5  2 -1</clus>
<clus scale="   76.739">  1  5  2 -1</clus>
</clustering>
</event>
<event>
 9    1  0.4067873E-005  0.1259830E+03  0.7546771E-02  0.1236170E+00
          3   -1    0    0  502    0 -0.00000000000E+00  0.00000000000E+00  0.50791522977E+03  0.50791522977E+03  0.00000000000E+00 0. -1.
         21   -1    0    0  501  502  0.00000000000E+00 -0.00000000000E+00 -0.10383559846E+03  0.10383559846E+03  0.00000000000E+00 0. -1.
         23    2    1    2    0    0  0.84352465422E+01 -0.74826526023E+02  0.21125085985E+03  0.24195577698E+03  0.90804789756E+02 0.  0.
        -24    2    1    2    0    0 -0.17778522753E+02  0.97324903083E+02  0.26461020592E+03  0.29399235926E+03  0.81392466461E+02 0.  0.
         13    1    4    4    0    0 -0.34854514832E+02  0.99239773234E+02  0.25074643343E+03  0.27191385341E+03  0.00000000000E+00 0. -1.
        -14    1    4    4    0    0  0.17075992079E+02 -0.19148701515E+01  0.13863772482E+02  0.22078505851E+02  0.00000000000E+00 0.  1.
        -13    1    3    3    0    0  0.29172273285E+02 -0.13562914905E+01  0.11739563498E+03  0.12097353499E+03  0.00000000000E+00 0.  1.
         13    1    3    3    0    0 -0.20737026743E+02 -0.73470234533E+02  0.93855224871E+02  0.12098224199E+03  0.00000000000E+00 0. -1.
          4    1    1    2  501    0  0.93432762110E+01 -0.22498377060E+02 -0.71781434454E+02  0.75802691990E+02  0.00000000000E+00 0. -1.
<scales pt_clust_5="13000.00000" pt_clust_6="13000.00000" pt_clust_7="13000.00000" pt_clust_8="13000.00000" pt_clust_9="24.36132"></scales>
<clustering>
<clus scale="   24.361">  2  9  1 -1</clus>
<clus scale="   81.392">  5  6 -1 -1</clus>
<clus scale="   90.805">  7  8 -1 -1</clus>
<clus scale="  119.377">  2  5  1 -1</clus>
<clus scale="   24.361">  2  5  1 -1</clus>
</clustering>
</event>
<event>
 9    1  0.4067873E-005  0.1442533E+03  0.7546771E-02  0.1209924E+00
         21   -1    0    0  501  502  0.00000000000E+00  0.00000000000E+00  0.28712790122E+03  0.28712790122E+03  0.00000000000E+00 0. -1.
          1   -1    0    0  502    0 -0.00000000000E+00 -0.00000000000E+00 -0.26749660467E+03  0.26749660467E+03  0.00000000000E+00 0. -1.
         23    2    1    2    0    0  0.10512987565E+03 -0.52902705991E+02 -0.21524945211E+03  0.26173906130E+03  0.91236081244E+02 0.  0.
        -24    2    1    2    0    0 -0.81055718108E+02  0.79745233418E+00  0.12732346679E+03  0.17097116569E+03  0.80306966905E+02 0.  0.
         11    1    4    4    0    0 -0.97409007274E+02  0.36019726827E+01  0.11031051530E+03  0.14720699267E+03  0.00000000000E+00 0. -1.
        -12    1    4    4    0    0  0.16353289165E+02 -0.28045203485E+01  0.17012951497E+02  0.23764173025E+02  0.00000000000E+00 0.  1.
        -13    1    3    3    0    0 -0.12820304942E+02 -0.21487111291E+02 -0.22839202278E+02  0.33877504795E+02  0.00000000000E+00 0.  1.
         13    1    3    3    0    0  0.11795018059E+03 -0.31415594700E+02 -0.19241024983E+03  0.22786155650E+03  0.00000000000E+00 0. -1.
          2    1    1    2  501    0 -0.24074157543E+02  0.52105253657E+02  0.10755728186E+03  0.12191427891E+03  0.00000000000E+00 0. -1.
<scales pt_clust_5="13000.00000" pt_clust_6="13000.00000" pt_clust_7="13000.00000" pt_clust_8="13000.00000" pt_clust_9="57.39793"></scales>
<clustering>
<clus scale="   57.398">  1  9  2 -1</clus>
<clus scale="   80.307">  5  6 -1 -1</clus>
<clus scale="   91.236">  7  8 -1 -1</clus>
<clus scale="  137.602">  1  5  2 -1</clus>
<clus scale="   57.398">  1  5  2 -1</clus>
</clustering>
</event>
<event>
 9    1  0.4067873E-005  0.1128485E+03  0.7546771E-02  0.1257036E+00
         21   -1    0    0  501  502  0.00000000000E+00  0.00000000000E+00  0.99007951442E+02  0.99007951442E+02  0.00000000000E+00 0. -1.
          1   -1    0    0  502    0 -0.00000000000E+00 -0.00000000000E+00 -0.30232196691E+03  0.30232196691E+03  0.00000000000E+00 0. -1.
         23    2    1    2    0    0  0.62494159252E+02  0.17873768519E+02 -0.20658642787E+03  0.23481964146E+03  0.90759684283E+02 0.  0.
        -24    2    1    2    0    0 -0.58551342924E+02 -0.56692436929E+02 -0.21112469753E+02  0.12049878598E+03  0.86208635768E+02 0.  0.
         13    1    4    4    0    0 -0.68936574744E+02 -0.68180735234E+02 -0.34653382675E+01  0.97019959615E+02  0.00000000000E+00 0. -1.
        -14    1    4    4    0    0  0.10385231820E+02  0.11488298305E+02 -0.17647131485E+02  0.23478826367E+02  0.00000000000E+00 0.  1.
        -13    1    3    3    0    0  0.12155491673E+02 -0.33651948581E+02 -0.42092688154E+02  0.55244945626E+02  0.00000000000E+00 0.  1.
         13    1    3    3    0    0  0.50338667579E+02  0.51525717100E+02 -0.16449373972E+03  0.17957469583E+03  0.00000000000E+00 0. -1.
          2    1    1    2  501    0 -0.39428163285E+01  0.38818668410E+02  0.24384882161E+02  0.46011490910E+02  0.00000000000E+00 0. -1.
<scales pt_clust_5="13000.00000" pt_clust_6="13000.00000" pt_clust_7="13000.00000" pt_clust_8="13000.00000" pt_clust_9="39.01839"></scales>
<clustering>
<clus scale="   39.018">  1  9  2 -1</clus>
<clus scale="   86.209">  5  6 -1 -1</clus>
<clus scale="   90.760">  7  8 -1 -1</clus>
<clus scale="  109.222">  1  5  2 -1</clus>
<clus scale="   39.018">  1  5  2 -1</clus>
</clustering>
</event>
<event>
 9    1  0.4067873E-005  0.1727071E+03  0.7546771E-02  0.1176577E+00
          1   -1    0    0  502    0 -0.00000000000E+00  0.00000000000E+00  0.31627049013E+03  0.31627049013E+03  0.00000000000E+00 0. -1.
         21   -1    0    0  501  502  0.00000000000E+00 -0.00000000000E+00 -0.14398987586E+03  0.14398987586E+03  0.00000000000E+00 0. -1.
        -24    2    1    2    0    0  0.11643627949E+03  0.15944408652E+02  0.71516018453E+02  0.16058092795E+03  0.82825492330E+02 0.  0.
         23    2    1    2    0    0 -0.18175020453E+03 -0.41188455094E+02  0.95197878330E+02  0.22943586872E+03  0.94066764270E+02 0.  0.
         13    1    3    3    0    0  0.46554080958E+02 -0.30171819607E+02  0.92578996966E+01  0.56243487259E+02  0.00000000000E+00 0. -1.
        -14    1    3    3    0    0  0.69882198529E+02  0.46116228259E+02  0.62258118756E+02  0.10433744070E+03  0.00000000000E+00 0.  1.
        -11    1    4    4    0    0 -0.12793790851E+03 -0.58617603139E+01  0.10332161260E+03  0.16455340865E+03  0.00000000000E+00 0. -1.
         11    1    4    4    0    0 -0.53812296016E+02 -0.35326694780E+02 -0.81237342725E+01  0.64882460072E+02  0.00000000000E+00 0.  1.
          2    1    1    2  501    0  0.65313925040E+02  0.25244046442E+02  0.55667174876E+01  0.70243569303E+02  0.00000000000E+00 0. -1.
<scales pt_clust_5="13000.00000" pt_clust_6="13000.00000" pt_clust_7="13000.00000" pt_clust_8="13000.00000" pt_clust_9="70.02264"></scales>
<clustering>
<clus scale="   70.023">  2  9  1 -1</clus>
<clus scale="   82.825">  5  6 -1 -1</clus>
<clus scale="   94.067">  7  8 -1 -1</clus>
<clus scale="  166.851">  1  5  2 -1</clus>
<clus scale="   70.023">  2  5  1 -1</clus>
</clustering>
</event>
<event>
 9    1  0.4067873E-005  0.1100049E+03  0.7546771E-02  0.1265881E+00
         21   -1    0    0  501  502  0.00000000000E+00  0.00000000000E+00  0.46079343045E+02  0.46079343045E+02  0.00000000000E+00 0. -1.
          1   -1    0    0  502    0 -0.00000000000E+00 -0.00000000000E+00 -0.38285646094E+03  0.38285646094E+03  0.00000000000E+00 0. -1.
         23    2    1    2    0    0  0.51178012097E+02 -0.51626381544E+02 -0.17844186156E+03  0.21419451087E+03  0.93559170237E+02 0.  0.
        -24    2    1    2    0    0 -0.35513104722E+01  0.51312241827E+02 -0.12134454487E+03  0.15443611816E+03  0.80501292264E+02 0.  0.
         11    1    4    4    0    0 -0.14421242073E+02  0.37134490972E+02 -0.92098464567E+01  0.40887209668E+02  0.00000000000E+00 0. -1.
        -12    1    4    4    0    0  0.10869931601E+02  0.14177750855E+02 -0.11213469841E+03  0.11354890849E+03  0.00000000000E+00 0.  1.
        -11    1    3    3    0    0  0.75311498943E+01 -0.53579730090E+02 -0.35471129304E+02  0.64697037871E+02  0.00000000000E+00 0.  1.
         11    1    3    3    0    0  0.43646862203E+02  0.19533485452E+01 -0.14297073226E+03  0.14949747300E+03  0.00000000000E+00 0. -1.
          2    1    1    2  501    0 -0.47626701625E+02  0.31413971718E+00 -0.36990711467E+02  0.60305174955E+02  0.00000000000E+00 0. -1.
<scales pt_clust_5="13000.00000" pt_clust_6="13000.00000" pt_clust_7="13000.00000" pt_clust_8="13000.00000" pt_clust_9="47.62774"></scales>
<clustering>
<clus scale="   47.628">  1  9  2 -1</clus>
<clus scale="   80.501">  5  6 -1 -1</clus>
<clus scale="   93.559">  7  8 -1 -1</clus>
<clus scale="   99.137">  1  5  2 -1</clus>
<clus scale="   47.628">  1  5  2 -1</clus>
</clustering>
</event>
<event>
 9    1  0.4067873E-005  0.2049958E+03  0.7546771E-02  0.1146751E+00
          1   -1    0    0  502    0 -0.00000000000E+00  0.00000000000E+00  0.11031171027E+04  0.11031171027E+04  0.00000000000E+00 0. -1.
         21   -1    0    0  501  502  0.00000000000E+00 -0.00000000000E+00 -0.92719793939E+02  0.92719793939E+02  0.00000000000E+00 0. -1.
         23    2    1    2    0    0  0.40457232384E+02  0.18385108577E+03  0.69703913603E+03  0.72803273460E+03  0.93434983313E+02 0.  0.
        -24    2    1    2    0    0 -0.51067326169E+02 -0.16633479242E+03  0.36498801066E+03  0.41226107250E+03  0.80422689585E+02 0.  0.
         13    1    4    4    0    0  0.20503880016E+02 -0.39155677980E+02  0.10859473009E+03  0.11724500679E+03  0.00000000000E+00 0. -1.
        -14    1    4    4    0    0 -0.71571206185E+02 -0.12717911444E+03  0.25639328057E+03  0.29501606571E+03  0.00000000000E+00 0.  1.
        -13    1    3    3    0    0  0.21605976053E+02  0.10338340112E+03  0.22182329806E+03  0.24568378333E+03  0.00000000000E+00 0.  1.
         13    1    3    3    0    0  0.18851256331E+02  0.80467684642E+02  0.47521583797E+03  0.48234895127E+03  0.00000000000E+00 0. -1.
          2    1    1    2  501    0  0.10610093785E+02 -0.17516293346E+02 -0.51629837967E+02  0.55543089500E+02  0.00000000000E+00 0. -1.
<scales pt_clust_5="13000.00000" pt_clust_6="13000.00000" pt_clust_7="13000.00000" pt_clust_8="13000.00000" pt_clust_9="20.47913"></scales>
<clustering>
<clus scale="   20.479">  2  9  1 -1</clus>
<clus scale="   80.423">  5  6 -1 -1</clus>
<clus scale="   93.435">  7  8 -1 -1</clus>
<clus scale="  199.402">  2  5  1 -1</clus>
<clus scale="   20.479">  2  5  1 -1</clus>
</clustering>
</event>
<event>
 9    1  0.4067873E-005  0.9676687E+02  0.7546771E-02  0.1296925E+00
         -2   -1    0    0    0  501 -0.00000000000E+00  0.00000000000E+00  0.46400512845E+02  0.46400512845E+02  0.00000000000E+00 0.  1.
         21   -1    0    0  501  502  0.00000000000E+00 -0.00000000000E+00 -0.49509538865E+03  0.49509538865E+03  0.00000000000E+00 0. -1.
         23    2    1    2    0    0  0.11633175685E+01 -0.37797838076E+01 -0.13779396969E+03  0.16778691938E+03  0.95653709593E+02 0.  0.
        -24    2    1    2    0    0  0.34744872469E+02  0.24442752752E+02 -0.31901846835E+03  0.33149226488E+03  0.79433520675E+02 0.  0.
         13    1    4    4    0    0  0.51979971196E+02  0.71547852103E+00 -0.26476291731E+03  0.26981814561E+03  0.00000000000E+00 0. -1.
        -14    1    4    4    0    0 -0.17235098727E+02  0.23727274231E+02 -0.54255551033E+02  0.61674119276E+02  0.00000000000E+00 0.  1.
        -13    1    3    3    0    0 -0.27244088709E+02  0.34762170546E+02 -0.43278907694E+02  0.61836176481E+02  0.00000000000E+00 0. -1.
         13    1    3    3    0    0  0.28407406278E+02 -0.38541954353E+02 -0.94515061996E+02  0.10595074290E+03  0.00000000000E+00 0.  1.
         -1    1    1    2    0  502 -0.35908190037E+02 -0.20662968945E+02  0.81175622287E+01  0.42216717233E+02  0.00000000000E+00 0.  1.
<scales pt_clust_5="13000.00000" pt_clust_6="13000.00000" pt_clust_7="13000.00000" pt_clust_8="13000.00000" pt_clust_9="41.42895"></scales>
<clustering>
<clus scale="   41.429">  2  9  1 -1</clus>
<clus scale="   79.434">  5  6 -1 -1</clus>
<clus scale="   80.771">  2  5  1 -1</clus>
<clus scale="   95.654">  7  8 -1 -1</clus>
<clus scale="   41.429">  2  5  1 -1</clus>
</clustering>
</event>
<event>
 9    1  0.4067873E-005  0.1099538E+03  0.7546771E-02  0.1263912E+00
         -4   -1    0    0    0  501 -0.00000000000E+00  0.00000000000E+00  0.80118461186E+03  0.80118461186E+03  0.00000000000E+00 0.  1.
         21   -1    0    0  501  502  0.00000000000E+00 -0.00000000000E+00 -0.66835476190E+02  0.66835476190E+02  0.00000000000E+00 0.  1.
        -24    2    1    2    0    0  0.58558537176E+02 -0.34735719347E+02  0.66973704688E+03  0.67798913003E+03  0.80534936515E+02 0.  0.
         23    2    1    2    0    0 -0.34081360951E+02 -0.20724390909E+02 -0.50011828178E+01  0.97721892543E+02  0.89070291960E+02 0.  0.
         13    1    3    3    0    0  0.72445935103E+01 -0.42569607600E+02  0.16380306662E+03  0.16939923335E+03  0.00000000000E+00 0. -1.
        -14    1    3    3    0    0  0.51313943666E+02  0.78338882529E+01  0.50593398026E+03  0.50858989668E+03  0.00000000000E+00 0.  1.
        -13    1    4    4    0    0  0.30103883200E+01  0.22742579432E+02  0.24373759796E+02  0.33471891546E+02  0.00000000000E+00 0. -1.
         13    1    4    4    0    0 -0.37091749271E+02 -0.43466970340E+02 -0.29374942614E+02  0.64250000997E+02  0.00000000000E+00 0.  1.
         -3    1    1    2    0  502 -0.24477176224E+02  0.55460110256E+02  0.69613271608E+02  0.92309065479E+02  0.00000000000E+00 0.  1.
<scales pt_clust_5="13000.00000" pt_clust_6="13000.00000" pt_clust_7="13000.00000" pt_clust_8="13000.00000" pt_clust_9="60.62142"></scales>
<clustering>
<clus scale="   60.621">  2  9  1 -1</clus>
<clus scale="   80.535">  5  6 -1 -1</clus>
<clus scale="   89.070">  7  8 -1 -1</clus>
<clus scale="  103.161">  1  5  2 -1</clus>
<clus scale="   60.621">  2  5  1 -1</clus>
</clustering>
</event>
<event>
 9    1  0.4067873E-005  0.1160568E+03  0.7546771E-02  0.1253005E+00
         -2   -1    0    0    0  501 -0.00000000000E+00  0.00000000000E+00  0.89497319714E+03  0.89497319714E+03  0.00000000000E+00 0.  1.
         21   -1    0    0  501  502  0.00000000000E+00 -0.00000000000E+00 -0.22852419836E+02  0.22852419836E+02  0.00000000000E+00 0. -1.
         23    2    1    2    0    0  0.90699371175E+01  0.56454018408E+02  0.29061698241E+03  0.30972822222E+03  0.90576052147E+02 0.  0.
        -24    2    1    2    0    0 -0.59146453027E+02 -0.72687108786E+02  0.37211211662E+03  0.39218990160E+03  0.81017114814E+02 0.  0.
         11    1    4    4    0    0 -0.28794188117E+02  0.13632787910E+02  0.11254890001E+03  0.11697099242E+03  0.00000000000E+00 0. -1.
        -12    1    4    4    0    0 -0.30352264910E+02 -0.86319896696E+02  0.25956321661E+03  0.27521890918E+03  0.00000000000E+00 0.  1.
        -13    1    3    3    0    0 -0.29746994459E+02 -0.88578989281E+01  0.90461698690E+02  0.95638198345E+02  0.00000000000E+00 0. -1.
         13    1    3    3    0    0  0.38816931576E+02  0.65311917337E+02  0.20015528372E+03  0.21409002388E+03  0.00000000000E+00 0.  1.
         -1    1    1    2    0  502  0.50076515909E+02  0.16233090377E+02  0.20939167827E+03  0.21590749315E+03  0.00000000000E+00 0.  1.
<scales pt_clust_5="13000.00000" pt_clust_6="13000.00000" pt_clust_7="13000.00000" pt_clust_8="13000.00000" pt_clust_9="52.64194"></scales>
<clustering>
<clus scale="   52.642">  2  9  1 -1</clus>
<clus scale="   81.017">  5  6 -1 -1</clus>
<clus scale="   90.576">  7  8 -1 -1</clus>
<clus scale="  108.761">  2  5  1 -1</clus>
<clus scale="   52.642">  2  5  1 -1</clus>
</clustering>
</event>
<event>
 9    1  0.4067873E-005  0.1603498E+03  0.7546771E-02  0.1189355E+00
         21   -1    0    0  501  502  0.00000000000E+00  0.00000000000E+00  0.20955347970E+03  0.20955347970E+03  0.00000000000E+00 0. -1.
          3   -1    0    0  502    0 -0.00000000000E+00 -0.00000000000E+00 -0.41696236547E+03  0.41696236547E+03  0.00000000000E+00 0. -1.
        -24    2    1    2    0    0  0.28978677394E+02 -0.95928584235E+02 -0.13813140878E+03  0.19151805226E+03  0.86929978910E+02 0.  0.
         23    2    1    2    0    0 -0.13694294871E+03  0.15153563353E+03 -0.16637712352E+03  0.27950898569E+03  0.93421124062E+02 0.  0.
         13    1    3    3    0    0  0.49472802751E+02 -0.66224034998E+02 -0.13073970257E+03  0.15468047986E+03  0.00000000000E+00 0. -1.
        -14    1    3    3    0    0 -0.20494125357E+02 -0.29704549237E+02 -0.73917062166E+01  0.36837572400E+02  0.00000000000E+00 0.  1.
        -11    1    4    4    0    0 -0.56439469390E+02  0.48036261635E+01 -0.33488783068E+02  0.65802637642E+02  0.00000000000E+00 0.  1.
         11    1    4    4    0    0 -0.80503479324E+02  0.14673200737E+03 -0.13288834045E+03  0.21370634805E+03  0.00000000000E+00 0. -1.
          4    1    1    2  501    0  0.10796427132E+03 -0.55607049300E+02  0.97099646522E+02  0.15548880721E+03  0.00000000000E+00 0. -1.
<scales pt_clust_5="13000.00000" pt_clust_6="13000.00000" pt_clust_7="13000.00000" pt_clust_8="13000.00000" pt_clust_9="121.44311"></scales>
<clustering>
<clus scale="   86.930">  5  6 -1 -1</clus>
<clus scale="   93.421">  7  8 -1 -1</clus>
<clus scale="  121.443">  1  9  2 -1</clus>
<clus scale="  156.657">  2  5  1 -1</clus>
<clus scale="  121.443">  1  5  2 -1</clus>
</clustering>
</event>
<event>
 9    1  0.4067873E-005  0.1359593E+03  0.7546771E-02  0.1221654E+00
          1   -1    0    0  502    0 -0.00000000000E+00  0.00000000000E+00  0.74739288567E+03  0.74739288567E+03  0.00000000000E+00 0. -1.
         21   -1    0    0  501  502  0.00000000000E+00 -0.00000000000E+00 -0.39250502782E+02  0.39250502782E+02  0.00000000000E+00 0. -1.
        -24    2    1    2    0    0 -0.11090234301E+03  0.63066302083E+02  0.43768862477E+03  0.46293656514E+03  0.80388077124E+02 0.  0.
         23    2    1    2    0    0  0.56622199741E+02 -0.24698665992E+02  0.15806368341E+03  0.19313141083E+03  0.92192820930E+02 0.  0.
         11    1    3    3    0    0 -0.53211960525E+02  0.62140004334E+02  0.33795194586E+03  0.34771311536E+03  0.00000000000E+00 0. -1.
        -12    1    3    3    0    0 -0.57690382486E+02  0.92629774856E+00  0.99736678913E+02  0.11522344978E+03  0.00000000000E+00 0.  1.
        -13    1    4    4    0    0 -0.87068843910E+01  0.26403049467E+02  0.45270384524E+02  0.53125686555E+02  0.00000000000E+00 0.  1.
         13    1    4    4    0    0  0.65329084132E+02 -0.51101715459E+02  0.11279329889E+03  0.14000572428E+03  0.00000000000E+00 0. -1.
          2    1    1    2  501    0  0.54280143269E+02 -0.38367636091E+02  0.11239007470E+03  0.13057541248E+03  0.00000000000E+00 0. -1.
<scales pt_clust_5="13000.00000" pt_clust_6="13000.00000" pt_clust_7="13000.00000" pt_clust_8="13000.00000" pt_clust_9="66.47112"></scales>
<clustering>
<clus scale="   66.471">  2  9  1 -1</clus>
<clus scale="   80.388">  5  6 -1 -1</clus>
<clus scale="   92.193">  7  8 -1 -1</clus>
<clus scale="  128.248">  1  5  2 -1</clus>
<clus scale="   66.471">  2  5  1 -1</clus>
</clustering>
</event>
<event>
 9    1  0.4067873E-005  0.1765775E+03  0.7546771E-02  0.1181608E+00
         21   -1    0    0  501  502  0.00000000000E+00  0.00000000000E+00  0.15185102540E+03  0.15185102540E+03  0.00000000000E+00 0.  1.
         -2   -1    0    0    0  501 -0.00000000000E+00 -0.00000000000E+00 -0.57626368190E+03  0.57626368190E+03  0.00000000000E+00 0.  1.
         23    2    1    2    0    0 -0.92717882559E+02 -0.45574827340E+02 -0.27007564594E+03  0.30393007218E+03  0.93589334947E+02 0.  0.
        -24    2    1    2    0    0  0.21714640120E+03 -0.22464050325E+02 -0.15976045229E+03  0.28226508450E+03  0.80579046285E+02 0.  0.
         13    1    4    4    0    0  0.93896030616E+02 -0.31874266539E+02 -0.31274659407E+02  0.10397373589E+03  0.00000000000E+00 0. -1.
        -14    1    4    4    0    0  0.12325037059E+03  0.94102162141E+01 -0.12848579288E+03  0.17829134861E+03  0.00000000000E+00 0.  1.
        -13    1    3    3    0    0 -0.37495190257E+02 -0.29514659906E+02 -0.22730207008E+03  0.23225683091E+03  0.00000000000E+00 0. -1.
         13    1    3    3    0    0 -0.55222692302E+02 -0.16060167434E+02 -0.42773575858E+02  0.71673241275E+02  0.00000000000E+00 0.  1.
         -1    1    1    2    0  502 -0.12442851865E+03  0.68038877665E+02  0.54234417302E+01  0.14191955061E+03  0.00000000000E+00 0.  1.
<scales pt_clust_5="13000.00000" pt_clust_6="13000.00000" pt_clust_7="13000.00000" pt_clust_8="13000.00000" pt_clust_9="157.11983"></scales>
<clustering>
<clus scale="   80.579">  5  6 -1 -1</clus>
<clus scale="   93.589">  7  8 -1 -1</clus>
<clus scale="  139.401">  2  7  1 -1</clus>
<clus scale="  157.120">  1  9  2 -1</clus>
<clus scale="  157.120">  1  5  2 -1</clus>
</clustering>
</event>
<event>
 9    1  0.4067873E-005  0.1645885E+03  0.7546771E-02  0.1185353E+00
         21   -1    0    0  501  502  0.00000000000E+00  0.00000000000E+00  0.59857105651E+02  0.59857105651E+02  0.00000000000E+00 0. -1.
         -2   -1    0    0    0  501 -0.00000000000E+00 -0.00000000000E+00 -0.81028694757E+03  0.81028694757E+03  0.00000000000E+00 0.  1.
         23    2    1    2    0    0  0.13707153534E+03 -0.51977333743E+02 -0.42063584420E+03  0.45471989779E+03  0.91353286752E+02 0.  0.
        -24    2    1    2    0    0 -0.10746605986E+03  0.35796853438E+02 -0.73068721045E+02  0.15649142323E+03  0.79499426475E+02 0.  0.
         13    1    4    4    0    0 -0.14076653390E+02 -0.22909258632E+02 -0.65358585973E+01  0.27671352503E+02  0.00000000000E+00 0. -1.
        -14    1    4    4    0    0 -0.93389406474E+02  0.58706112070E+02 -0.66532862448E+02  0.12882007072E+03  0.00000000000E+00 0.  1.
        -13    1    3    3    0    0  0.48460309691E+02  0.62582165074E+01 -0.52951811440E+02  0.72051795425E+02  0.00000000000E+00 0. -1.
         13    1    3    3    0    0  0.88611225650E+02 -0.58235550250E+02 -0.36768403276E+03  0.38266810237E+03  0.00000000000E+00 0.  1.
         -1    1    1    2    0  502 -0.29605475477E+02  0.16180480305E+02 -0.25672527667E+03  0.25893273220E+03  0.00000000000E+00 0.  1.
<scales pt_clust_5="13000.00000" pt_clust_6="13000.00000" pt_clust_7="13000.00000" pt_clust_8="13000.00000" pt_clust_9="33.73860"></scales>
<clustering>
<clus scale="   33.739">  1  9  2 -1</clus>
<clus scale="   79.499">  5  6 -1 -1</clus>
<clus scale="   91.353">  7  8 -1 -1</clus>
<clus scale="  158.317">  1  5  2 -1</clus>
<clus scale="   33.739">  1  5  2 -1</clus>
</clustering>
</event>
<event>
 9    1  0.4067873E-005  0.9280959E+02  0.7546771E-02  0.1302910E+00
         21   -1    0    0  501  502  0.00000000000E+00  0.00000000000E+00  0.26737386077E+03  0.26737386077E+03  0.00000000000E+00 0.  1.
          1   -1    0    0  502    0 -0.00000000000E+00 -0.00000000000E+00 -0.26571689981E+03  0.26571689981E+03  0.00000000000E+00 0. -1.
         23    2    1    2    0    0 -0.11613347248E+02  0.38524077359E+01 -0.23129366806E+03  0.24911436986E+03  0.91714216507E+02 0.  0.
        -24    2    1    2    0    0  0.52144461337E+02  0.33858254037E+02  0.11483823666E+03  0.15353329029E+03  0.80741714225E+02 0.  0.
         11    1    4    4    0    0  0.38816964972E+02 -0.12791845752E+02  0.90399603168E+02  0.99209255316E+02  0.00000000000E+00 0. -1.
        -12    1    4    4    0    0  0.13327496365E+02  0.46650099789E+02  0.24438633487E+02  0.54324034979E+02  0.00000000000E+00 0.  1.
        -11    1    3    3    0    0 -0.70442810977E+01  0.41933036757E+02 -0.18064878484E+03  0.18558551919E+03  0.00000000000E+00 0. -1.
         11    1    3    3    0    0 -0.45690661504E+01 -0.38080629021E+02 -0.50644883213E+02  0.63528850672E+02  0.00000000000E+00 0.  1.
          2    1    1    2  501    0 -0.40531114089E+02 -0.37710661773E+02  0.11811239236E+03  0.13044310043E+03  0.00000000000E+00 0. -1.
<scales pt_clust_5="13000.00000" pt_clust_6="13000.00000" pt_clust_7="13000.00000" pt_clust_8="13000.00000" pt_clust_9="55.36122"></scales>
<clustering>
<clus scale="   55.361">  1  9  2 -1</clus>
<clus scale="   80.742">  5  6 -1 -1</clus>
<clus scale="   81.984">  1  5  2 -1</clus>
<clus scale="   91.714">  7  8 -1 -1</clus>
<clus scale="   55.361">  1  5  2 -1</clus>
</clustering>
</event>
<event>
 9    1  0.5235619E-005  0.9750138E+02  0.7546771E-02  0.1291030E+00
          1   -1    0    0  502    0 -0.00000000000E+00  0.00000000000E+00  0.42852599219E+03  0.42852599219E+03  0.00000000000E+00 0. -1.
         21   -1    0    0  501  502  0.00000000000E+00 -0.00000000000E+00 -0.76982912909E+02  0.76982912909E+02  0.00000000000E+00 0.  1.
         23    2    1    2    0    0  0.24485668668E+02 -0.26142613178E+02  0.32182332642E+03  0.33643248136E+03  0.91288426943E+02 0.  0.
        -24    2    1    2    0    0  0.21184493882E+02  0.44524850693E+02 -0.22178859420E+02  0.97542261547E+02  0.81187104101E+02 0.  0.
         13    1    4    4    0    0  0.40688362455E+02  0.18446631647E+02  0.15916338387E+02  0.47425213611E+02  0.00000000000E+00 0. -1.
        -14    1    4    4    0    0 -0.19503868573E+02  0.26078219046E+02 -0.38095197807E+02  0.50117047937E+02  0.00000000000E+00 0.  1.
        -11    1    3    3    0    0 -0.13870718852E+02 -0.46156320401E+02  0.10784556769E+03  0.11812480360E+03  0.00000000000E+00 0.  1.
         11    1    3    3    0    0  0.38356387520E+02  0.20013707222E+02  0.21397775873E+03  0.21830767776E+03  0.00000000000E+00 0. -1.
          2    1    1    2  501    0 -0.45670162550E+02 -0.18382237515E+02  0.51898612283E+02  0.71534162190E+02  0.00000000000E+00 0. -1.
<scales pt_clust_5="13000.00000" pt_clust_6="13000.00000" pt_clust_7="13000.00000" pt_clust_8="13000.00000" pt_clust_9="49.23081"></scales>
<clustering>
<clus scale="   49.231">  2  9  1 -1</clus>
<clus scale="   81.187">  5  6 -1 -1</clus>
<clus scale="   88.115">  2  5  1 -1</clus>
<clus scale="   91.288">  7  8 -1 -1</clus>
<clus scale="   49.231">  2  5  1 -1</clus>
</clustering>
</event>
<event>
 9    1  0.4067873E-005  0.1435345E+03  0.7546771E-02  0.1223728E+00
          1   -1    0    0  502    0 -0.00000000000E+00  0.00000000000E+00  0.57302513098E+03  0.57302513098E+03  0.00000000000E+00 0. -1.
         21   -1    0    0  501  502  0.00000000000E+00 -0.00000000000E+00 -0.75906628693E+02  0.75906628693E+02  0.00000000000E+00 0. -1.
         23    2    1    2    0    0  0.41176228598E+02 -0.29807492942E+02  0.20447710311E+03  0.22957422980E+03  0.91156310028E+02 0.  0.
        -24    2    1    2    0    0 -0.86097404592E+02 -0.85439864471E+02  0.61773834287E+02  0.15744208939E+03  0.79115557193E+02 0.  0.
         13    1    4    4    0    0 -0.20071096415E+02 -0.74448430985E+01 -0.17867001499E+02  0.27883764858E+02  0.00000000000E+00 0. -1.
        -14    1    4    4    0    0 -0.66026308177E+02 -0.77995021373E+02  0.79640835786E+02  0.12955832453E+03  0.00000000000E+00 0.  1.
        -13    1    3    3    0    0 -0.27010362767E+02  0.34306998685E+01  0.71097707435E+02  0.76132866758E+02  0.00000000000E+00 0.  1.
         13    1    3    3    0    0  0.68186591365E+02 -0.33238192811E+02  0.13337939567E+03  0.15344136305E+03  0.00000000000E+00 0. -1.
          2    1    1    2  501    0  0.44921175993E+02  0.11524735741E+03  0.23086756490E+03  0.26191544049E+03  0.00000000000E+00 0. -1.
<scales pt_clust_5="13000.00000" pt_clust_6="13000.00000" pt_clust_7="13000.00000" pt_clust_8="13000.00000" pt_clust_9="119.76182"></scales>
<clustering>
<clus scale="   79.116">  5  6 -1 -1</clus>
<clus scale="   91.156">  7  8 -1 -1</clus>
<clus scale="  104.372">  1  7  2 -1</clus>
<clus scale="  119.762">  2  9  1 -1</clus>
<clus scale="  119.762">  2  5  1 -1</clus>
</clustering>
</event>
<event>
 9    1  0.4067873E-005  0.9500980E+02  0.7546771E-02  0.1298098E+00
          1   -1    0    0  502    0 -0.00000000000E+00  0.00000000000E+00  0.19926228803E+03  0.19926228803E+03  0.00000000000E+00 0. -1.
         21   -1    0    0  501  502  0.00000000000E+00 -0.00000000000E+00 -0.71025253516E+02  0.71025253516E+02  0.00000000000E+00 0. -1.
         23    2    1    2    0    0  0.17948299787E+02 -0.13826242469E+02  0.12126832635E+03  0.15427736935E+03  0.92640127761E+02 0.  0.
        -24    2    1    2    0    0  0.46953264901E+01  0.27396074482E+02  0.18136100950E+02  0.87346871385E+02  0.80795834021E+02 0.  0.
         13    1    4    4    0    0  0.38494517260E+02 -0.42624611200E+01  0.12488248717E+02  0.40693399832E+02  0.00000000000E+00 0. -1.
        -14    1    4    4    0    0 -0.33799190770E+02  0.31658535602E+02  0.56478522330E+01  0.46653471553E+02  0.00000000000E+00 0.  1.
        -11    1    3    3    0    0  0.34872106625E+02 -0.46371121982E+02  0.65223022357E+02  0.87294830430E+02  0.00000000000E+00 0.  1.
         11    1    3    3    0    0 -0.16923806839E+02  0.32544879513E+02  0.56045303997E+02  0.66982538923E+02  0.00000000000E+00 0. -1.
          2    1    1    2  501    0 -0.22643626277E+02 -0.13569832013E+02 -0.11167392786E+02  0.28663300813E+02  0.00000000000E+00 0. -1.
<scales pt_clust_5="13000.00000" pt_clust_6="13000.00000" pt_clust_7="13000.00000" pt_clust_8="13000.00000" pt_clust_9="26.39837"></scales>
<clustering>
<clus scale="   26.398">  2  9  1 -1</clus>
<clus scale="   80.796">  5  6 -1 -1</clus>
<clus scale="   83.502">  2  5  1 -1</clus>
<clus scale="   92.640">  7  8 -1 -1</clus>
<clus scale="   26.398">  2  5  1 -1</clus>
</clustering>
</event>
<event>
 9    1  0.4067873E-005  0.1173844E+03  0.7546771E-02  0.1257801E+00
          1   -1    0    0  502    0 -0.00000000000E+00  0.00000000000E+00  0.57382892393E+03  0.57382892393E+03  0.00000000000E+00 0. -1.
         21   -1    0    0  501  502  0.00000000000E+00 -0.00000000000E+00 -0.32134602419E+02  0.32134602419E+02  0.00000000000E+00 0. -1.
        -24    2    1    2    0    0  0.60109852210E+02  0.51491464514E+01  0.31348302078E+03  0.32926634809E+03  0.80653677106E+02 0.  0.
         23    2    1    2    0    0 -0.29012260713E+02  0.21829480181E+02  0.13779486596E+03  0.17734911250E+03  0.10557956783E+03 0.  0.
         11    1    3    3    0    0  0.23816201034E+02 -0.37634447671E+02  0.13224854032E+03  0.13954654958E+03  0.00000000000E+00 0. -1.
        -12    1    3    3    0    0  0.36293651177E+02  0.42783594123E+02  0.18123448046E+03  0.18971979852E+03  0.00000000000E+00 0.  1.
        -13    1    4    4    0    0 -0.29635188637E+02  0.62834421156E+02  0.73918468698E+02  0.10144135696E+03  0.00000000000E+00 0. -1.
         13    1    4    4    0    0  0.62292792400E+00 -0.41004940975E+02  0.63876397260E+02  0.75907755536E+02  0.00000000000E+00 0.  1.
          2    1    1    2  501    0 -0.31097591497E+02 -0.26978626632E+02  0.90416434781E+02  0.99348065761E+02  0.00000000000E+00 0. -1.
<scales pt_clust_5="13000.00000" pt_clust_6="13000.00000" pt_clust_7="13000.00000" pt_clust_8="13000.00000" pt_clust_9="41.16926"></scales>
<clustering>
<clus scale="   41.169">  2  9  1 -1</clus>
<clus scale="   80.654">  5  6 -1 -1</clus>
<clus scale="   95.588">  1  5  2 -1</clus>
<clus scale="  105.580">  7  8 -1 -1</clus>
<clus scale="   41.169">  2  5  1 -1</clus>
</clustering>
</event>
<event>
 9    1  0.4067873E-005  0.1159628E+03  0.7546771E-02  0.1253427E+00
          1   -1    0    0  502    0 -0.00000000000E+00  0.00000000000E+00  0.42358439818E+03  0.42358439818E+03  0.00000000000E+00 0. -1.
         21   -1    0    0  501  502  0.00000000000E+00 -0.00000000000E+00 -0.55293661308E+02  0.55293661308E+02  0.00000000000E+00 0. -1.
         23    2    1    2    0    0  0.63478742554E+02 -0.69776179780E+02  0.27146648554E+03  0.30170799655E+03  0.91844414048E+02 0.  0.
        -24    2    1    2    0    0 -0.24971235968E+02  0.25361458374E+02  0.65118253277E+02  0.11038109788E+03  0.81711894249E+02 0.  0.
         13    1    4    4    0    0  0.26085102290E+02 -0.39398439138E+01  0.62111561102E+01  0.27102276506E+02  0.00000000000E+00 0. -1.
        -14    1    4    4    0    0 -0.51056338259E+02  0.29301302287E+02  0.58907097167E+02  0.83278821370E+02  0.00000000000E+00 0.  1.
        -13    1    3    3    0    0  0.29109974108E+01 -0.31548421126E+02  0.14311038920E+02  0.34764674836E+02  0.00000000000E+00 0.  1.
         13    1    3    3    0    0  0.60567745143E+02 -0.38227758655E+02  0.25715544662E+03  0.26694332172E+03  0.00000000000E+00 0. -1.
          2    1    1    2  501    0 -0.38507506585E+02  0.44414721407E+02  0.31705998055E+02  0.66788965060E+02  0.00000000000E+00 0. -1.
<scales pt_clust_5="13000.00000" pt_clust_6="13000.00000" pt_clust_7="13000.00000" pt_clust_8="13000.00000" pt_clust_9="58.78346"></scales>
<clustering>
<clus scale="   58.783">  2  9  1 -1</clus>
<clus scale="   81.712">  5  6 -1 -1</clus>
<clus scale="   91.844">  7  8 -1 -1</clus>
<clus scale="  108.115">  2  5  1 -1</clus>
<clus scale="   58.783">  2  5  1 -1</clus>
</clustering>
</event>
<event>
 9    1  0.4067873E-005  0.9350959E+02  0.7546771E-02  0.1299976E+00
         21   -1    0    0  501  502  0.00000000000E+00  0.00000000000E+00  0.22909232695E+03  0.22909232695E+03  0.00000000000E+00 0.  1.
          1   -1    0    0  502    0 -0.00000000000E+00 -0.00000000000E+00 -0.86608163956E+02  0.86608163956E+02  0.00000000000E+00 0. -1.
        -24    2    1    2    0    0 -0.15018480676E+02 -0.14873707201E+02 -0.33458573473E+02  0.91236813739E+02  0.82206435969E+02 0.  0.
         23    2    1    2    0    0  0.25096267450E+02 -0.66029984434E+01  0.75675094337E+02  0.12142770903E+03  0.91348488707E+02 0.  0.
         11    1    3    3    0    0 -0.35725386039E+02 -0.10900225256E+02 -0.51409475747E+02  0.63545671094E+02  0.00000000000E+00 0. -1.
        -12    1    3    3    0    0  0.20706905363E+02 -0.39734819447E+01  0.17950902274E+02  0.27691142644E+02  0.00000000000E+00 0.  1.
        -13    1    4    4    0    0  0.32675199995E+02  0.28946958304E+02  0.72903140866E+02  0.84973307796E+02  0.00000000000E+00 0. -1.
         13    1    4    4    0    0 -0.75789325450E+01 -0.35549956747E+02  0.27719534713E+01  0.36454401234E+02  0.00000000000E+00 0.  1.
          2    1    1    2  501    0 -0.10077786774E+02  0.21476705644E+02  0.10026764213E+03  0.10303596814E+03  0.00000000000E+00 0. -1.
<scales pt_clust_5="13000.00000" pt_clust_6="13000.00000" pt_clust_7="13000.00000" pt_clust_8="13000.00000" pt_clust_9="23.72363"></scales>
<clustering>
<clus scale="   23.724">  1  9  2 -1</clus>
<clus scale="   82.206">  5  6 -1 -1</clus>
<clus scale="   84.601">  2  5  1 -1</clus>
<clus scale="   91.348">  7  8 -1 -1</clus>
<clus scale="   23.724">  1  5  2 -1</clus>
</clustering>
</event>
<event>
 9    1  0.4067873E-005  0.9344457E+02  0.7546771E-02  0.1300713E+00
         21   -1    0    0  501  502  0.00000000000E+00  0.00000000000E+00  0.26115665489E+03  0.26115665489E+03  0.00000000000E+00 0.  1.
         -2   -1    0    0    0  501 -0.00000000000E+00 -0.00000000000E+00 -0.13372263920E+03  0.13372263920E+03  0.00000000000E+00 0.  1.
        -24    2    1    2    0    0 -0.21762559140E+02 -0.13735514939E+02 -0.84951637515E+02  0.12006616813E+03  0.80850668908E+02 0.  0.
         23    2    1    2    0    0 -0.11893881842E+02  0.19838757219E+02  0.45217687460E+02  0.10418155104E+03  0.90962165781E+02 0.  0.
         13    1    3    3    0    0  0.48775540853E+01 -0.32227205329E+02 -0.39728801058E+01  0.32835454520E+02  0.00000000000E+00 0. -1.
        -14    1    3    3    0    0 -0.26640113225E+02  0.18491690390E+02 -0.80978757409E+02  0.87230713614E+02  0.00000000000E+00 0.  1.
        -13    1    4    4    0    0  0.34706455563E+02  0.11052146653E+02  0.43490820396E+02  0.56728647632E+02  0.00000000000E+00 0. -1.
         13    1    4    4    0    0 -0.46600337406E+02  0.87866105653E+01  0.17268670638E+01  0.47452903403E+02  0.00000000000E+00 0.  1.
         -1    1    1    2    0  502  0.33656440982E+02 -0.61032422796E+01  0.16716796575E+03  0.17063157492E+03  0.00000000000E+00 0.  1.
<scales pt_clust_5="13000.00000" pt_clust_6="13000.00000" pt_clust_7="13000.00000" pt_clust_8="13000.00000" pt_clust_9="34.20534"></scales>
<clustering>
<clus scale="   34.205">  1  9  2 -1</clus>
<clus scale="   80.851">  5  6 -1 -1</clus>
<clus scale="   83.634">  2  5  1 -1</clus>
<clus scale="   90.962">  7  8 -1 -1</clus>
<clus scale="   34.205">  1  5  2 -1</clus>
</clustering>
</event>
<event>
 9    1  0.4067873E-005  0.1016076E+03  0.7546771E-02  0.1281717E+00
         21   -1    0    0  501  502  0.00000000000E+00  0.00000000000E+00  0.13849541080E+03  0.13849541080E+03  0.00000000000E+00 0.  1.
         -4   -1    0    0    0  501 -0.00000000000E+00 -0.00000000000E+00 -0.54928428352E+03  0.54928428352E+03  0.00000000000E+00 0.  1.
        -24    2    1    2    0    0 -0.79778458794E+01  0.46283287340E+02 -0.46081399059E+03  0.46994520360E+03  0.79329513706E+02 0.  0.
         23    2    1    2    0    0 -0.19189336390E+02 -0.83822488001E+02  0.92649628399E+02  0.15487342119E+03  0.89483980810E+02 0.  0.
         13    1    3    3    0    0  0.25976822695E+02 -0.87906125083E+01 -0.14545370271E+03  0.14801638361E+03  0.00000000000E+00 0. -1.
        -14    1    3    3    0    0 -0.33954668575E+02  0.55073899848E+02 -0.31536028789E+03  0.32192881999E+03  0.00000000000E+00 0.  1.
        -11    1    4    4    0    0  0.19531794793E+02 -0.17074886509E+02  0.69693254277E+02  0.74365263724E+02  0.00000000000E+00 0.  1.
         11    1    4    4    0    0 -0.38721131184E+02 -0.66747601491E+02  0.22956374122E+02  0.80508157461E+02  0.00000000000E+00 0. -1.
         -3    1    1    2    0  502  0.27167182270E+02  0.37539200661E+02 -0.42624510529E+02  0.62961069532E+02  0.00000000000E+00 0.  1.
<scales pt_clust_5="13000.00000" pt_clust_6="13000.00000" pt_clust_7="13000.00000" pt_clust_8="13000.00000" pt_clust_9="46.33842"></scales>
<clustering>
<clus scale="   46.338">  1  9  2 -1</clus>
<clus scale="   79.330">  5  6 -1 -1</clus>
<clus scale="   89.484">  7  8 -1 -1</clus>
<clus scale="   92.789">  2  5  1 -1</clus>
<clus scale="   46.338">  1  5  2 -1</clus>
</clustering>
</event>
<event>
 9    1  0.4067873E-005  0.3409393E+03  0.7546771E-02  0.1066397E+00
          1   -1    0    0  502    0 -0.00000000000E+00  0.00000000000E+00  0.52418748198E+03  0.52418748198E+03  0.00000000000E+00 0. -1.
         21   -1    0    0  501  502  0.00000000000E+00 -0.00000000000E+00 -0.46220207127E+03  0.46220207127E+03  0.00000000000E+00 0. -1.
        -24    2    1    2    0    0  0.35503206113E+02 -0.11629873643E+03 -0.16490294871E+03  0.21993908907E+03  0.79964658870E+02 0.  0.
         23    2    1    2    0    0  0.13675572815E+03 -0.10825886719E+03 -0.18376443965E+03  0.26771708935E+03  0.86492538098E+02 0.  0.
         11    1    3    3    0    0  0.56330349174E+02 -0.93427213526E+02 -0.99784551768E+02  0.14784691149E+03  0.00000000000E+00 0. -1.
        -12    1    3    3    0    0 -0.20827143061E+02 -0.22871522906E+02 -0.65118396945E+02  0.72092177584E+02  0.00000000000E+00 0.  1.
        -13    1    4    4    0    0  0.14491880779E+03 -0.83397426361E+02 -0.16871035398E+03  0.23752847222E+03  0.00000000000E+00 0.  1.
         13    1    4    4    0    0 -0.81630796381E+01 -0.24861440829E+02 -0.15054085664E+02  0.30188617134E+02  0.00000000000E+00 0. -1.
          2    1    1    2  501    0 -0.17225893426E+03  0.22455760362E+03  0.41065279907E+03  0.49873337482E+03  0.00000000000E+00 0. -1.
<scales pt_clust_5="13000.00000" pt_clust_6="13000.00000" pt_clust_7="13000.00000" pt_clust_8="13000.00000" pt_clust_9="283.01826"></scales>
<clustering>
<clus scale="   79.965">  5  6 -1 -1</clus>
<clus scale="   86.493">  7  8 -1 -1</clus>
<clus scale="  115.278">  5  7 -1 -1</clus>
<clus scale="  283.018">  2  9  1 -1</clus>
<clus scale="  283.018">  2  5  1 -1</clus>
</clustering>
</event>
<event>
 9    1  0.4067873E-005  0.9425706E+02  0.7546771E-02  0.1297143E+00
         -2   -1    0    0    0  501 -0.00000000000E+00  0.00000000000E+00  0.23657101962E+03  0.23657101962E+03  0.00000000000E+00 0.  1.
         21   -1    0    0  501  502  0.00000000000E+00 -0.00000000000E+00 -0.14490536182E+03  0.14490536182E+03  0.00000000000E+00 0. -1.
        -24    2    1    2    0    0  0.11692453356E+02  0.22553012841E+02  0.19331918802E+03  0.21211528072E+03  0.83517854409E+02 0.  0.
         23    2    1    2    0    0 -0.27483278900E+02 -0.44688580716E+01 -0.40075730147E+02  0.10326864813E+03  0.91011253310E+02 0.  0.
         13    1    3    3    0    0 -0.19900019563E+02 -0.56161073890E+01  0.82415786891E+01  0.22259269083E+02  0.00000000000E+00 0. -1.
        -14    1    3    3    0    0  0.31592472918E+02  0.28169120230E+02  0.18507760933E+03  0.18985601164E+03  0.00000000000E+00 0.  1.
        -11    1    4    4    0    0 -0.99699924037E+01 -0.24939293754E+02  0.22565889943E+02  0.35079745016E+02  0.00000000000E+00 0.  1.
         11    1    4    4    0    0 -0.17513286496E+02  0.20470435682E+02 -0.62641620090E+02  0.68188903118E+02  0.00000000000E+00 0. -1.
         -1    1    1    2    0  502  0.15790825544E+02 -0.18084154770E+02 -0.61577800078E+02  0.66092452577E+02  0.00000000000E+00 0.  1.
<scales pt_clust_5="13000.00000" pt_clust_6="13000.00000" pt_clust_7="13000.00000" pt_clust_8="13000.00000" pt_clust_9="24.00806"></scales>
<clustering>
<clus scale="   24.008">  2  9  1 -1</clus>
<clus scale="   83.518">  5  6 -1 -1</clus>
<clus scale="   87.044">  1  5  2 -1</clus>
<clus scale="   91.011">  7  8 -1 -1</clus>
<clus scale="   24.008">  2  5  1 -1</clus>
</clustering>
</event>
<event>
 9    1  0.4067873E-005  0.9965564E+02  0.7546771E-02  0.1289551E+00
         21   -1    0    0  501  502  0.00000000000E+00  0.00000000000E+00  0.10994185877E+03  0.10994185877E+03  0.00000000000E+00 0.  1.
          1   -1    0    0  502    0 -0.00000000000E+00 -0.00000000000E+00 -0.38941906116E+03  0.38941906116E+03  0.00000000000E+00 0. -1.
        -24    2    1    2    0    0  0.11525315311E+02  0.16606747780E+02 -0.32740291210E+03  0.33822007946E+03  0.82410790172E+02 0.  0.
         23    2    1    2    0    0  0.10354533587E+02 -0.29173817709E+02 -0.49981222950E+01  0.10250986718E+03  0.97595920187E+02 0.  0.
         11    1    3    3    0    0  0.36464455753E+02  0.29533241994E+02 -0.27289483002E+03  0.27689972402E+03  0.00000000000E+00 0. -1.
        -12    1    3    3    0    0 -0.24939140442E+02 -0.12926494214E+02 -0.54508082082E+02  0.61320355437E+02  0.00000000000E+00 0.  1.
        -11    1    4    4    0    0  0.40752297318E+02  0.39842273533E+01  0.25431130995E+02  0.48201309401E+02  0.00000000000E+00 0. -1.
         11    1    4    4    0    0 -0.30397763731E+02 -0.33158045062E+02 -0.30429253290E+02  0.54308557779E+02  0.00000000000E+00 0.  1.
          2    1    1    2  501    0 -0.21879848898E+02  0.12567069929E+02  0.52923832003E+02  0.58630973284E+02  0.00000000000E+00 0. -1.
<scales pt_clust_5="13000.00000" pt_clust_6="13000.00000" pt_clust_7="13000.00000" pt_clust_8="13000.00000" pt_clust_9="25.23210"></scales>
<clustering>
<clus scale="   25.232">  1  9  2 -1</clus>
<clus scale="   82.411">  5  6 -1 -1</clus>
<clus scale="   84.840">  2  5  1 -1</clus>
<clus scale="   97.596">  7  8 -1 -1</clus>
<clus scale="   25.232">  1  5  2 -1</clus>
</clustering>
</event>
<event>
 9    1  0.4067873E-005  0.8872215E+02  0.7546771E-02  0.1311556E+00
          1   -1    0    0  502    0 -0.00000000000E+00  0.00000000000E+00  0.18771582799E+03  0.18771582799E+03  0.00000000000E+00 0. -1.
         21   -1    0    0  501  502  0.00000000000E+00 -0.00000000000E+00 -0.11434224754E+03  0.11434224754E+03  0.00000000000E+00 0.  1.
        -24    2    1    2    0    0 -0.23461757029E+02 -0.11856835673E+02 -0.11590865719E+01  0.84331810083E+02  0.80121608291E+02 0.  0.
         23    2    1    2    0    0 -0.30031832066E+02 -0.13734919938E+02 -0.28511948711E+02  0.98836842613E+02  0.88686139139E+02 0.  0.
         11    1    3    3    0    0 -0.28283642728E+02 -0.43603724919E+02 -0.38008432416E+01  0.52112337139E+02  0.00000000000E+00 0. -1.
        -12    1    3    3    0    0  0.48218856992E+01  0.31746889246E+02  0.26417566697E+01  0.32219472944E+02  0.00000000000E+00 0.  1.
        -11    1    4    4    0    0 -0.56431620841E+02 -0.20483319237E+01 -0.38435417540E+02  0.68308160683E+02  0.00000000000E+00 0. -1.
         11    1    4    4    0    0  0.26399788775E+02 -0.11686588015E+02  0.99234688287E+01  0.30528681930E+02  0.00000000000E+00 0.  1.
          2    1    1    2  501    0  0.53493589095E+02  0.25591755612E+02  0.10304461574E+03  0.11888942283E+03  0.00000000000E+00 0. -1.
<scales pt_clust_5="13000.00000" pt_clust_6="13000.00000" pt_clust_7="13000.00000" pt_clust_8="13000.00000" pt_clust_9="59.30013"></scales>
<clustering>
<clus scale="   59.300">  2  9  1 -1</clus>
<clus scale="   80.122">  5  6 -1 -1</clus>
<clus scale="   80.161">  1  5  2 -1</clus>
<clus scale="   88.686">  7  8 -1 -1</clus>
<clus scale="   59.300">  2  5  1 -1</clus>
</clustering>
</event>
<event>
 9    1  0.4067873E-005  0.9843878E+02  0.7546771E-02  0.1288852E+00
         21   -1    0    0  501  502  0.00000000000E+00  0.00000000000E+00  0.28485319979E+03  0.28485319979E+03  0.00000000000E+00 0.  1.
          3   -1    0    0  502    0 -0.00000000000E+00 -0.00000000000E+00 -0.80319013364E+02  0.80319013364E+02  0.00000000000E+00 0. -1.
        -24    2    1    2    0    0  0.19478942295E+02  0.38005089828E+02 -0.28132956578E+02  0.96519702010E+02  0.81858253002E+02 0.  0.
         23    2    1    2    0    0 -0.51425234115E+01 -0.10135227888E+01  0.13635425762E+03  0.16448878987E+03  0.91850996982E+02 0.  0.
         11    1    3    3    0    0  0.30217256982E+02  0.53564157355E+02 -0.40764522612E+02  0.73783113763E+02  0.00000000000E+00 0. -1.
        -12    1    3    3    0    0 -0.10738314687E+02 -0.15559067528E+02  0.12631566034E+02  0.22736588247E+02  0.00000000000E+00 0.  1.
        -13    1    4    4    0    0  0.16432924479E+02 -0.36110099658E+02  0.10638967287E+03  0.11354621437E+03  0.00000000000E+00 0.  1.
         13    1    4    4    0    0 -0.21575447891E+02  0.35096576869E+02  0.29964584755E+02  0.50942575506E+02  0.00000000000E+00 0. -1.
          4    1    1    2  501    0 -0.14336418884E+02 -0.36991567039E+02  0.96312885378E+02  0.10416372127E+03  0.00000000000E+00 0. -1.
<scales pt_clust_5="13000.00000" pt_clust_6="13000.00000" pt_clust_7="13000.00000" pt_clust_8="13000.00000" pt_clust_9="39.67252"></scales>
<clustering>
<clus scale="   39.673">  1  9  2 -1</clus>
<clus scale="   81.858">  5  6 -1 -1</clus>
<clus scale="   89.187">  2  5  1 -1</clus>
<clus scale="   91.851">  7  8 -1 -1</clus>
<clus scale="   39.673">  1  5  2 -1</clus>
</clustering>
</event>
<event>
 9    1  0.4067873E-005  0.1997944E+03  0.7546771E-02  0.1149913E+00
         21   -1    0    0  501  502  0.00000000000E+00  0.00000000000E+00  0.13205072914E+03  0.13205072914E+03  0.00000000000E+00 0. -1.
          1   -1    0    0  502    0 -0.00000000000E+00 -0.00000000000E+00 -0.26514248813E+03  0.26514248813E+03  0.00000000000E+00 0. -1.
        -24    2    1    2    0    0  0.48419846880E+02  0.18315569719E+02 -0.77808206444E+02  0.12353375963E+03  0.80786948897E+02 0.  0.
         23    2    1    2    0    0  0.44263005907E+02  0.11463572701E+02 -0.11931791307E+03  0.15713775214E+03  0.91459726534E+02 0.  0.
         11    1    3    3    0    0  0.43029431297E+02  0.30225397770E+02 -0.88212088462E+01  0.53319043067E+02  0.00000000000E+00 0. -1.
        -12    1    3    3    0    0  0.53904155829E+01 -0.11909828050E+02 -0.68986997598E+02  0.70214716562E+02  0.00000000000E+00 0.  1.
        -13    1    4    4    0    0 -0.85371814399E+01  0.34754291046E+02 -0.79035326150E+02  0.86760169390E+02  0.00000000000E+00 0.  1.
         13    1    4    4    0    0  0.52800187347E+02 -0.23290718345E+02 -0.40282586921E+02  0.70377582752E+02  0.00000000000E+00 0. -1.
          2    1    1    2  501    0 -0.92682852787E+02 -0.29779142420E+02  0.64034360530E+02  0.11652170550E+03  0.00000000000E+00 0. -1.
<scales pt_clust_5="13000.00000" pt_clust_6="13000.00000" pt_clust_7="13000.00000" pt_clust_8="13000.00000" pt_clust_9="97.34941"></scales>
<clustering>
<clus scale="   80.787">  5  6 -1 -1</clus>
<clus scale="   91.460">  7  8 -1 -1</clus>
<clus scale="   94.823">  5  7 -1 -1</clus>
<clus scale="   97.349">  1  9  2 -1</clus>
<clus scale="   97.349">  1  5  2 -1</clus>
</clustering>
</event>
<event>
 9    1  0.4067873E-005  0.2549094E+03  0.7546771E-02  0.1142702E+00
         21   -1    0    0  501  502  0.00000000000E+00  0.00000000000E+00  0.67977480153E+02  0.67977480153E+02  0.00000000000E+00 0. -1.
          1   -1    0    0  502    0 -0.00000000000E+00 -0.00000000000E+00 -0.15878386976E+04  0.15878386976E+04  0.00000000000E+00 0. -1.
         23    2    1    2    0    0  0.61016155578E+02 -0.25827179128E+02 -0.17851465677E+03  0.21194552019E+03  0.93077421668E+02 0.  0.
        -24    2    1    2    0    0 -0.26859852983E+03  0.10555605953E+03 -0.92444430824E+03  0.97137237761E+03  0.75364215690E+02 0.  0.
         13    1    4    4    0    0 -0.12990979142E+03  0.57325249040E+02 -0.33373916356E+03  0.36269073242E+03  0.00000000000E+00 0. -1.
        -14    1    4    4    0    0 -0.13868873841E+03  0.48230810487E+02 -0.59070514468E+03  0.60868164519E+03  0.00000000000E+00 0.  1.
        -11    1    3    3    0    0  0.56409872405E+02 -0.20610404778E+01 -0.17904392826E+03  0.18773132355E+03  0.00000000000E+00 0.  1.
         11    1    3    3    0    0  0.46062831730E+01 -0.23766138650E+02  0.52927148989E+00  0.24214196648E+02  0.00000000000E+00 0. -1.
          2    1    1    2  501    0  0.20758237426E+03 -0.79728880399E+02 -0.41690225241E+03  0.47249827993E+03  0.00000000000E+00 0. -1.
<scales pt_clust_5="13000.00000" pt_clust_6="13000.00000" pt_clust_7="13000.00000" pt_clust_8="13000.00000" pt_clust_9="243.51398"></scales>
<clustering>
<clus scale="   75.364">  5  6 -1 -1</clus>
<clus scale="   93.077">  7  8 -1 -1</clus>
<clus scale="  114.252">  2  7  1 -1</clus>
<clus scale="  243.514">  1  9  2 -1</clus>
<clus scale="  243.514">  1  5  2 -1</clus>
</clustering>
</event>
<event>
 9    1  0.4067873E-005  0.1231345E+03  0.7546771E-02  0.1241550E+00
         21   -1    0    0  501  502  0.00000000000E+00  0.00000000000E+00  0.11964557650E+03  0.11964557650E+03  0.00000000000E+00 0. -1.
          1   -1    0    0  502    0 -0.00000000000E+00 -0.00000000000E+00 -0.31249555039E+03  0.31249555039E+03  0.00000000000E+00 0. -1.
        -24    2    1    2    0    0 -0.10136657042E+03  0.53767120529E+01 -0.15024763930E+03  0.19832819168E+03  0.80346921976E+02 0.  0.
         23    2    1    2    0    0  0.16033308853E+02 -0.51924422920E+02  0.31605321436E+02  0.11152135279E+03  0.92113533733E+02 0.  0.
         11    1    3    3    0    0 -0.89838341087E+02  0.31278390244E+02 -0.13760586438E+03  0.16728609965E+03  0.00000000000E+00 0. -1.
        -12    1    3    3    0    0 -0.11528229333E+02 -0.25901678191E+02 -0.12641774921E+02  0.31042092033E+02  0.00000000000E+00 0.  1.
        -13    1    4    4    0    0  0.29909989167E+02  0.13335657676E+01 -0.20056512309E+02  0.36036780317E+02  0.00000000000E+00 0.  1.
         13    1    4    4    0    0 -0.13876680313E+02 -0.53257988688E+02  0.51661833746E+02  0.75484572474E+02  0.00000000000E+00 0. -1.
          2    1    1    2  501    0  0.85333261567E+02  0.46547710867E+02 -0.74207656024E+02  0.12229158241E+03  0.00000000000E+00 0. -1.
<scales pt_clust_5="13000.00000" pt_clust_6="13000.00000" pt_clust_7="13000.00000" pt_clust_8="13000.00000" pt_clust_9="97.20321"></scales>
<clustering>
<clus scale="   80.347">  5  6 -1 -1</clus>
<clus scale="   92.114">  7  8 -1 -1</clus>
<clus scale="   97.203">  1  9  2 -1</clus>
<clus scale="  114.599">  2  5  1 -1</clus>
<clus scale="   97.203">  1  5  2 -1</clus>
</clustering>
</event>
<event>
 9    1  0.4067873E-005  0.1677372E+03  0.7546771E-02  0.1207414E+00
         -4   -1    0    0    0  501 -0.00000000000E+00  0.00000000000E+00  0.21861225738E+03  0.21861225738E+03  0.00000000000E+00 0.  1.
         21   -1    0    0  501  502  0.00000000000E+00 -0.00000000000E+00 -0.42953205769E+03  0.42953205769E+03  0.00000000000E+00 0.  1.
        -24    2    1    2    0    0 -0.37890782511E+02  0.31169168810E+02  0.69811057019E+02  0.11576794695E+03  0.78239410625E+02 0.  0.
         23    2    1    2    0    0 -0.46801798045E+01  0.10828944969E+03  0.66166704269E+02  0.15608006021E+03  0.90743834188E+02 0.  0.
         13    1    3    3    0    0 -0.33282182498E+02  0.51059507277E+02  0.23801350471E+02  0.65431500361E+02  0.00000000000E+00 0. -1.
        -14    1    3    3    0    0 -0.46086000127E+01 -0.19890338467E+02  0.46009706548E+02  0.50336446587E+02  0.00000000000E+00 0.  1.
        -11    1    4    4    0    0 -0.28124338448E+02  0.50781178001E+02  0.73373986488E+02  0.93559865035E+02  0.00000000000E+00 0.  1.
         11    1    4    4    0    0  0.23444158644E+02  0.57508271691E+02 -0.72072822189E+01  0.62520195172E+02  0.00000000000E+00 0. -1.
         -3    1    1    2    0  502  0.42570962315E+02 -0.13945861850E+03 -0.34689756160E+03  0.37629630791E+03  0.00000000000E+00 0.  1.
<scales pt_clust_5="13000.00000" pt_clust_6="13000.00000" pt_clust_7="13000.00000" pt_clust_8="13000.00000" pt_clust_9="141.07202"></scales>
<clustering>
<clus scale="   78.239">  5  6 -1 -1</clus>
<clus scale="   90.744">  7  8 -1 -1</clus>
<clus scale="   92.351">  1  5  2 -1</clus>
<clus scale="  141.072">  2  9  1 -1</clus>
<clus scale="  141.072">  2  5  1 -1</clus>
</clustering>
</event>
<event>
 9    1  0.4067873E-005  0.2148596E+03  0.7546771E-02  0.1166066E+00
          3   -1    0    0  502    0 -0.00000000000E+00  0.00000000000E+00  0.79444521075E+03  0.79444521075E+03  0.00000000000E+00 0. -1.
         21   -1    0    0  501  502  0.00000000000E+00 -0.00000000000E+00 -0.13066972752E+03  0.13066972752E+03  0.00000000000E+00 0. -1.
         23    2    1    2    0    0  0.13288061296E+01  0.54815833344E+02  0.11925541339E+03  0.16234036525E+03  0.95530096070E+02 0.  0.
        -24    2    1    2    0    0 -0.19477223550E+03  0.16657701530E+01  0.51837914760E+03  0.55956561723E+03  0.80360069703E+02 0.  0.
         11    1    4    4    0    0 -0.11004155242E+03  0.30303886375E+02  0.36020220049E+03  0.37785327050E+03  0.00000000000E+00 0. -1.
        -12    1    4    4    0    0 -0.84730683080E+02 -0.28638116222E+02  0.15817694711E+03  0.18171234672E+03  0.00000000000E+00 0.  1.
        -13    1    3    3    0    0 -0.33445121996E+02  0.19799241923E+02  0.66972317911E+01  0.39439055259E+02  0.00000000000E+00 0. -1.
         13    1    3    3    0    0  0.34773928126E+02  0.35016591421E+02  0.11255818160E+03  0.12290130999E+03  0.00000000000E+00 0.  1.
          4    1    1    2  501    0  0.19344342937E+03 -0.56481603497E+02  0.26140922239E+02  0.20320895579E+03  0.00000000000E+00 0. -1.
<scales pt_clust_5="13000.00000" pt_clust_6="13000.00000" pt_clust_7="13000.00000" pt_clust_8="13000.00000" pt_clust_9="199.26594"></scales>
<clustering>
<clus scale="   80.360">  5  6 -1 -1</clus>
<clus scale="   95.530">  7  8 -1 -1</clus>
<clus scale="  110.148">  1  7  2 -1</clus>
<clus scale="  199.266">  2  9  1 -1</clus>
<clus scale="  199.266">  2  5  1 -1</clus>
</clustering>
</event>
<event>
 9    1  0.4067873E-005  0.1953334E+03  0.7546771E-02  0.1155919E+00
          1   -1    0    0  502    0 -0.00000000000E+00  0.00000000000E+00  0.20119523947E+03  0.20119523947E+03  0.00000000000E+00 0. -1.
         21   -1    0    0  501  502  0.00000000000E+00 -0.00000000000E+00 -0.40356768136E+03  0.40356768136E+03  0.00000000000E+00 0.  1.
        -24    2    1    2    0    0 -0.14339252614E+03  0.81694656225E+02  0.79312129042E+02  0.21315268005E+03  0.10912478083E+03 0.  0.
         23    2    1    2    0    0  0.11147469441E+03 -0.11348132667E+03 -0.10871573060E+03  0.21287199606E+03  0.90502804557E+02 0.  0.
         11    1    3    3    0    0 -0.11759765804E+03  0.92597877866E+02  0.98521731968E+02  0.17919293466E+03  0.00000000000E+00 0. -1.
        -12    1    3    3    0    0 -0.25794868103E+02 -0.10903221641E+02 -0.19209602926E+02  0.33959745393E+02  0.00000000000E+00 0.  1.
        -11    1    4    4    0    0  0.86342610429E+02 -0.54880824060E+02 -0.10847391820E+03  0.14910916187E+03  0.00000000000E+00 0.  1.
         11    1    4    4    0    0  0.25132083984E+02 -0.58600502605E+02 -0.24181240100E+00  0.63762834192E+02  0.00000000000E+00 0. -1.
          2    1    1    2  501    0  0.31917831727E+02  0.31786670440E+02 -0.17296884033E+03  0.17873824472E+03  0.00000000000E+00 0. -1.
<scales pt_clust_5="13000.00000" pt_clust_6="13000.00000" pt_clust_7="13000.00000" pt_clust_8="13000.00000" pt_clust_9="45.04598"></scales>
<clustering>
<clus scale="   45.046">  2  9  1 -1</clus>
<clus scale="   90.503">  7  8 -1 -1</clus>
<clus scale="  109.125">  5  6 -1 -1</clus>
<clus scale="  185.574">  2  7  1 -1</clus>
<clus scale="   45.046">  2  5  1 -1</clus>
</clustering>
</event>
<event>
 9    1  0.4067873E-005  0.1843692E+03  0.7546771E-02  0.1183755E+00
         21   -1    0    0  501  502  0.00000000000E+00  0.00000000000E+00  0.19309354602E+03  0.19309354602E+03  0.00000000000E+00 0. -1.
          1   -1    0    0  502    0 -0.00000000000E+00 -0.00000000000E+00 -0.29494100446E+03  0.29494100446E+03  0.00000000000E+00 0. -1.
         23    2    1    2    0    0  0.62414588212E+02  0.41345352100E+02 -0.29524486302E+02  0.12039646758E+03  0.89546608822E+02 0.  0.
        -24    2    1    2    0    0  0.43806246524E+01 -0.18534609243E+03 -0.45776869409E+02  0.20669551784E+03  0.79089515549E+02 0.  0.
         13    1    4    4    0    0  0.20497592232E+01 -0.17410618035E+03 -0.63705891411E+02  0.18540659144E+03  0.00000000000E+00 0. -1.
        -14    1    4    4    0    0  0.23308654292E+01 -0.11239912080E+02  0.17929022002E+02  0.21288926397E+02  0.00000000000E+00 0.  1.
        -11    1    3    3    0    0  0.84586365771E+02  0.31264320323E+02 -0.13357666821E+02  0.91163250614E+02  0.00000000000E+00 0.  1.
         11    1    3    3    0    0 -0.22171777560E+02  0.10081031777E+02 -0.16166819480E+02  0.29233216962E+02  0.00000000000E+00 0. -1.
          2    1    1    2  501    0 -0.66795212864E+02  0.14400074033E+03 -0.26546102734E+02  0.16094256506E+03  0.00000000000E+00 0. -1.
<scales pt_clust_5="13000.00000" pt_clust_6="13000.00000" pt_clust_7="13000.00000" pt_clust_8="13000.00000" pt_clust_9="166.54383"></scales>
<clustering>
<clus scale="   79.090">  5  6 -1 -1</clus>
<clus scale="   89.547">  7  8 -1 -1</clus>
<clus scale="  116.720">  2  7  1 -1</clus>
<clus scale="  166.544">  1  9  2 -1</clus>
<clus scale="  166.544">  1  5  2 -1</clus>
</clustering>
</event>
<event>
 9    1  0.4067873E-005  0.1803439E+03  0.7546771E-02  0.1169596E+00
         -2   -1    0    0    0  501 -0.00000000000E+00  0.00000000000E+00  0.86219068297E+03  0.86219068297E+03  0.00000000000E+00 0.  1.
         21   -1    0    0  501  502  0.00000000000E+00 -0.00000000000E+00 -0.65949663803E+02  0.65949663803E+02  0.00000000000E+00 0.  1.
        -24    2    1    2    0    0  0.17561588948E+03  0.42856252501E+01  0.59698165392E+03  0.63126597925E+03  0.10606759267E+03 0.  0.
         23    2    1    2    0    0 -0.91781488998E+02  0.23370521645E+02  0.10784722870E+03  0.16979467649E+03  0.90714852266E+02 0.  0.
         11    1    3    3    0    0  0.23188594710E+02 -0.40117627881E+02  0.14352886409E+03  0.15082330661E+03  0.00000000000E+00 0. -1.
        -12    1    3    3    0    0  0.15242729477E+03  0.44403253131E+02  0.45345278983E+03  0.48044267263E+03  0.00000000000E+00 0.  1.
        -11    1    4    4    0    0 -0.22672513940E+02  0.48466156227E+02  0.25100410082E+02  0.59101960831E+02  0.00000000000E+00 0.  1.
         11    1    4    4    0    0 -0.69108975058E+02 -0.25095634582E+02  0.82746818622E+02  0.11069271566E+03  0.00000000000E+00 0. -1.
         -1    1    1    2    0  502 -0.83834400485E+02 -0.27656146895E+02  0.91412136546E+02  0.12707969104E+03  0.00000000000E+00 0.  1.
<scales pt_clust_5="13000.00000" pt_clust_6="13000.00000" pt_clust_7="13000.00000" pt_clust_8="13000.00000" pt_clust_9="88.27836"></scales>
<clustering>
<clus scale="   88.278">  2  9  1 -1</clus>
<clus scale="   90.715">  7  8 -1 -1</clus>
<clus scale="  106.068">  5  6 -1 -1</clus>
<clus scale="  171.764">  2  7  1 -1</clus>
<clus scale="   88.278">  2  5  1 -1</clus>
</clustering>
</event>
<event>
 9    1  0.4067873E-005  0.1265850E+03  0.7546771E-02  0.1235752E+00
         21   -1    0    0  501  502  0.00000000000E+00  0.00000000000E+00  0.43703880341E+03  0.43703880341E+03  0.00000000000E+00 0. -1.
         -4   -1    0    0    0  501 -0.00000000000E+00 -0.00000000000E+00 -0.76948660898E+02  0.76948660898E+02  0.00000000000E+00 0.  1.
         23    2    1    2    0    0 -0.70915416578E+02 -0.47562004650E+02  0.20180819263E+02  0.12664462803E+03  0.91326095658E+02 0.  0.
        -24    2    1    2    0    0  0.96873752561E+02  0.30428237739E+02  0.33043771820E+03  0.35482957010E+03  0.80028348850E+02 0.  0.
         13    1    4    4    0    0  0.56881165864E+02  0.49430243798E+02  0.26725993191E+03  0.27768090903E+03  0.00000000000E+00 0. -1.
        -14    1    4    4    0    0  0.39992586696E+02 -0.19002006059E+02  0.63177786288E+02  0.77148661072E+02  0.00000000000E+00 0.  1.
        -11    1    3    3    0    0 -0.63217631420E+02 -0.74081546778E+02  0.16741313789E+02  0.98817083962E+02  0.00000000000E+00 0.  1.
         11    1    3    3    0    0 -0.76977851579E+01  0.26519542127E+02  0.34395054740E+01  0.27827544069E+02  0.00000000000E+00 0. -1.
         -3    1    1    2    0  502 -0.25958335983E+02  0.17133766912E+02  0.94716050530E+01  0.32513266183E+02  0.00000000000E+00 0.  1.
<scales pt_clust_5="13000.00000" pt_clust_6="13000.00000" pt_clust_7="13000.00000" pt_clust_8="13000.00000" pt_clust_9="31.10309"></scales>
<clustering>
<clus scale="   31.103">  1  9  2 -1</clus>
<clus scale="   80.028">  5  6 -1 -1</clus>
<clus scale="   91.326">  7  8 -1 -1</clus>
<clus scale="  118.692">  1  5  2 -1</clus>
<clus scale="   31.103">  1  5  2 -1</clus>
</clustering>
</event>
<event>
 9    1  0.4067873E-005  0.1725769E+03  0.7546771E-02  0.1201465E+00
         21   -1    0    0  501  502  0.00000000000E+00  0.00000000000E+00  0.91630908626E+03  0.91630908626E+03  0.00000000000E+00 0. -1.
         -4   -1    0    0    0  501 -0.00000000000E+00 -0.00000000000E+00 -0.48234955624E+02  0.48234955624E+02  0.00000000000E+00 0.  1.
        -24    2    1    2    0    0  0.50264829032E+02  0.95471223259E+00  0.19010200107E+03  0.21314682959E+03  0.82251660409E+02 0.  0.
         23    2    1    2    0    0 -0.13881922185E+03  0.94115434804E+02  0.45676716681E+03  0.49485901067E+03  0.90114950709E+02 0.  0.
         13    1    3    3    0    0  0.46615376359E+02 -0.31235802690E+02  0.15744971926E+03  0.16714988118E+03  0.00000000000E+00 0. -1.
        -14    1    3    3    0    0  0.36494526733E+01  0.32190514923E+02  0.32652281815E+02  0.45996948416E+02  0.00000000000E+00 0.  1.
        -11    1    4    4    0    0 -0.72647542135E+02  0.95950870145E+02  0.24460184803E+03  0.27260649098E+03  0.00000000000E+00 0. -1.
         11    1    4    4    0    0 -0.66171679719E+02 -0.18354353416E+01  0.21216531877E+03  0.22225251969E+03  0.00000000000E+00 0.  1.
         -3    1    1    2    0  502  0.88554392822E+02 -0.95070147036E+02  0.22120496276E+03  0.25653820163E+03  0.00000000000E+00 0.  1.
<scales pt_clust_5="13000.00000" pt_clust_6="13000.00000" pt_clust_7="13000.00000" pt_clust_8="13000.00000" pt_clust_9="147.18050"></scales>
<clustering>
<clus scale="   82.252">  5  6 -1 -1</clus>
<clus scale="   90.115">  7  8 -1 -1</clus>
<clus scale="   96.399">  2  5  1 -1</clus>
<clus scale="  147.180">  1  9  2 -1</clus>
<clus scale="  147.180">  1  5  2 -1</clus>
</clustering>
</event>
<event>
 9    1  0.4067873E-005  0.1959777E+03  0.7546771E-02  0.1161041E+00
         -2   -1    0    0    0  501 -0.00000000000E+00  0.00000000000E+00  0.11330039435E+04  0.11330039435E+04  0.00000000000E+00 0.  1.
         21   -1    0    0  501  502  0.00000000000E+00 -0.00000000000E+00 -0.19175551966E+03  0.19175551966E+03  0.00000000000E+00 0.  1.
        -24    2    1    2    0    0  0.10732063555E+03 -0.92194031304E+02  0.35497447472E+03  0.39062784714E+03  0.81029494828E+02 0.  0.
         23    2    1    2    0    0 -0.17532927672E+03 -0.69183083515E+02  0.69630095616E+03  0.72731360246E+03  0.92862266074E+02 0.  0.
         13    1    3    3    0    0  0.45378918773E+02 -0.80319388642E+01  0.18867256489E+03  0.19421919332E+03  0.00000000000E+00 0. -1.
        -14    1    3    3    0    0  0.61941716778E+02 -0.84162092440E+02  0.16630190983E+03  0.19640865382E+03  0.00000000000E+00 0.  1.
        -13    1    4    4    0    0 -0.16625340221E+03 -0.48762608875E+02  0.67334113677E+03  0.69527424247E+03  0.00000000000E+00 0.  1.
         13    1    4    4    0    0 -0.90758745095E+01 -0.20420474640E+02  0.22959819390E+02  0.32039359997E+02  0.00000000000E+00 0. -1.
         -1    1    1    2    0  502  0.68008641171E+02  0.16137711482E+03 -0.11002700703E+03  0.20681801357E+03  0.00000000000E+00 0.  1.
<scales pt_clust_5="13000.00000" pt_clust_6="13000.00000" pt_clust_7="13000.00000" pt_clust_8="13000.00000" pt_clust_9="172.58001"></scales>
<clustering>
<clus scale="   81.029">  5  6 -1 -1</clus>
<clus scale="   92.862">  7  8 -1 -1</clus>
<clus scale="  163.044">  1  5  2 -1</clus>
<clus scale="  172.580">  2  9  1 -1</clus>
<clus scale="  172.580">  2  5  1 -1</clus>
</clustering>
</event>
<event>
 9    1  0.4067873E-005  0.1021000E+03  0.7546771E-02  0.1280402E+00
          3   -1    0    0  502    0 -0.00000000000E+00  0.00000000000E+00  0.22989826225E+03  0.22989826225E+03  0.00000000000E+00 0. -1.
         21   -1    0    0  501  502  0.00000000000E+00 -0.00000000000E+00 -0.28303969699E+03  0.28303969699E+03  0.00000000000E+00 0. -1.
         23    2    1    2    0    0  0.48333672487E+02 -0.57489350162E+01  0.19834203970E+03  0.22366995380E+03  0.91211234889E+02 0.  0.
        -24    2    1    2    0    0 -0.21919346692E+02  0.11662288090E+02 -0.84773493365E+02  0.12037483761E+03  0.81774627046E+02 0.  0.
         11    1    4    4    0    0 -0.42836006312E+02  0.33118847684E+02 -0.43969971029E+02  0.69750554557E+02  0.00000000000E+00 0. -1.
        -12    1    4    4    0    0  0.20916659620E+02 -0.21456559594E+02 -0.40803522336E+02  0.50624283050E+02  0.00000000000E+00 0.  1.
        -11    1    3    3    0    0  0.56251323552E+02 -0.26699072471E+02  0.71266834623E+02  0.94636217113E+02  0.00000000000E+00 0.  1.
         11    1    3    3    0    0 -0.79176510659E+01  0.20950137454E+02  0.12707520508E+03  0.12903373668E+03  0.00000000000E+00 0. -1.
          4    1    1    2  501    0 -0.26414325794E+02 -0.59133530740E+01 -0.16670998108E+03  0.16889316784E+03  0.00000000000E+00 0. -1.
<scales pt_clust_5="13000.00000" pt_clust_6="13000.00000" pt_clust_7="13000.00000" pt_clust_8="13000.00000" pt_clust_9="27.06814"></scales>
<clustering>
<clus scale="   27.068">  2  9  1 -1</clus>
<clus scale="   81.775">  5  6 -1 -1</clus>
<clus scale="   91.211">  7  8 -1 -1</clus>
<clus scale="   93.766">  2  5  1 -1</clus>
<clus scale="   27.068">  2  5  1 -1</clus>
</clustering>
</event>
<event>
 9    1  0.4067873E-005  0.1153484E+03  0.7546771E-02  0.1253636E+00
         -2   -1    0    0    0  501 -0.00000000000E+00  0.00000000000E+00  0.14109187837E+03  0.14109187837E+03  0.00000000000E+00 0.  1.
         21   -1    0    0  501  502  0.00000000000E+00 -0.00000000000E+00 -0.13832666830E+03  0.13832666830E+03  0.00000000000E+00 0.  1.
         23    2    1    2    0    0  0.33404733600E+02 -0.47018279514E+02  0.44836521089E+02  0.12112134124E+03  0.96609889993E+02 0.  0.
        -24    2    1    2    0    0 -0.24332223928E+02  0.73880167863E+02 -0.50339107390E+02  0.12876370015E+03  0.89418837041E+02 0.  0.
         13    1    4    4    0    0 -0.55077408811E+02  0.42151718693E+02 -0.12248071318E+02  0.70429422836E+02  0.00000000000E+00 0. -1.
        -14    1    4    4    0    0  0.30745184883E+02  0.31728449170E+02 -0.38091036072E+02  0.58334277310E+02  0.00000000000E+00 0.  1.
        -11    1    3    3    0    0 -0.43348093520E+01 -0.68405416630E+02  0.33472717656E+02  0.76279187356E+02  0.00000000000E+00 0.  1.
         11    1    3    3    0    0  0.37739542952E+02  0.21387137116E+02  0.11363803433E+02  0.44842153881E+02  0.00000000000E+00 0. -1.
         -1    1    1    2    0  502 -0.90725096718E+01 -0.26861888349E+02  0.82677963753E+01  0.29533505283E+02  0.00000000000E+00 0.  1.
<scales pt_clust_5="13000.00000" pt_clust_6="13000.00000" pt_clust_7="13000.00000" pt_clust_8="13000.00000" pt_clust_9="28.35264"></scales>
<clustering>
<clus scale="   28.353">  2  9  1 -1</clus>
<clus scale="   89.419">  5  6 -1 -1</clus>
<clus scale="   96.610">  7  8 -1 -1</clus>
<clus scale="  109.396">  2  5  1 -1</clus>
<clus scale="   28.353">  2  5  1 -1</clus>
</clustering>
</event>
<event>
 9    1  0.4067873E-005  0.1058456E+03  0.7546771E-02  0.1273668E+00
         -2   -1    0    0    0  501 -0.00000000000E+00  0.00000000000E+00  0.32442493541E+03  0.32442493541E+03  0.00000000000E+00 0.  1.
         21   -1    0    0  501  502  0.00000000000E+00 -0.00000000000E+00 -0.40876072036E+02  0.40876072036E+02  0.00000000000E+00 0. -1.
        -24    2    1    2    0    0 -0.59517703107E+02  0.32943524248E+00  0.13052784355E+03  0.16441167167E+03  0.80319451752E+02 0.  0.
         23    2    1    2    0    0  0.41574252345E+02 -0.20258013614E+02  0.11633583572E+03  0.15544796262E+03  0.92147907391E+02 0.  0.
         11    1    3    3    0    0 -0.43076757098E+02  0.15228812650E+02  0.13434162440E+03  0.14189854045E+03  0.00000000000E+00 0. -1.
        -12    1    3    3    0    0 -0.16440946009E+02 -0.14899377407E+02 -0.38137808521E+01  0.22513131217E+02  0.00000000000E+00 0.  1.
        -11    1    4    4    0    0  0.55533596518E+02 -0.58392971117E+01  0.12235592278E+03  0.13449553737E+03  0.00000000000E+00 0.  1.
         11    1    4    4    0    0 -0.13959344173E+02 -0.14418716502E+02 -0.60200870680E+01  0.20952425244E+02  0.00000000000E+00 0. -1.
         -1    1    1    2    0  502  0.17943450762E+02  0.19928578371E+02  0.36685184112E+02  0.45441373158E+02  0.00000000000E+00 0.  1.
<scales pt_clust_5="13000.00000" pt_clust_6="13000.00000" pt_clust_7="13000.00000" pt_clust_8="13000.00000" pt_clust_9="26.81635"></scales>
<clustering>
<clus scale="   26.816">  2  9  1 -1</clus>
<clus scale="   80.319">  5  6 -1 -1</clus>
<clus scale="   92.148">  7  8 -1 -1</clus>
<clus scale="   95.725">  1  5  2 -1</clus>
<clus scale="   26.816">  2  5  1 -1</clus>
</clustering>
</event>
<event>
 9    1  0.4067873E-005  0.1740720E+03  0.7546771E-02  0.1200528E+00
          1   -1    0    0  502    0 -0.00000000000E+00  0.00000000000E+00  0.53979242327E+03  0.53979242327E+03  0.00000000000E+00 0. -1.
         21   -1    0    0  501  502  0.00000000000E+00 -0.00000000000E+00 -0.86401607916E+02  0.86401607916E+02  0.00000000000E+00 0.  1.
        -24    2    1    2    0    0  0.52140317029E+02  0.87516580072E+01  0.62821542798E+02  0.11461444065E+03  0.79966990622E+02 0.  0.
         23    2    1    2    0    0  0.46232635668E+01  0.14058789202E+03  0.17105142183E+03  0.24007914473E+03  0.92698850454E+02 0.  0.
         13    1    3    3    0    0  0.61044111201E+02  0.30678414864E+02  0.59729339676E+02  0.90747686852E+02  0.00000000000E+00 0. -1.
        -14    1    3    3    0    0 -0.89037941720E+01 -0.21926756857E+02  0.30922031228E+01  0.23866753802E+02  0.00000000000E+00 0.  1.
        -13    1    4    4    0    0  0.33165495218E+02  0.94733276830E+02  0.60909454539E+02  0.11740658186E+03  0.00000000000E+00 0. -1.
         13    1    4    4    0    0 -0.28542231652E+02  0.45854615188E+02  0.11014196729E+03  0.12267256287E+03  0.00000000000E+00 0.  1.
          2    1    1    2  501    0 -0.56763580596E+02 -0.14933955003E+03  0.21951785073E+03  0.27150044580E+03  0.00000000000E+00 0. -1.
<scales pt_clust_5="13000.00000" pt_clust_6="13000.00000" pt_clust_7="13000.00000" pt_clust_8="13000.00000" pt_clust_9="147.33637"></scales>
<clustering>
<clus scale="   79.967">  5  6 -1 -1</clus>
<clus scale="   92.699">  7  8 -1 -1</clus>
<clus scale="   95.864">  1  5  2 -1</clus>
<clus scale="  147.336">  2  9  1 -1</clus>
<clus scale="  147.336">  2  5  1 -1</clus>
</clustering>
</event>
<event>
 9    1  0.4067873E-005  0.1161047E+03  0.7546771E-02  0.1253468E+00
          1   -1    0    0  502    0 -0.00000000000E+00  0.00000000000E+00  0.91540401990E+03  0.91540401990E+03  0.00000000000E+00 0. -1.
         21   -1    0    0  501  502  0.00000000000E+00 -0.00000000000E+00 -0.35210553107E+02  0.35210553107E+02  0.00000000000E+00 0. -1.
         23    2    1    2    0    0 -0.48862930005E+02  0.91845239327E+01  0.36330149926E+03  0.37787142958E+03  0.91251830209E+02 0.  0.
        -24    2    1    2    0    0  0.10621890916E+03  0.56211828866E+02  0.41129793336E+03  0.43593491503E+03  0.80193726631E+02 0.  0.
         11    1    4    4    0    0  0.48033386411E+02  0.60995182613E+01  0.64019143708E+02  0.80267434830E+02  0.00000000000E+00 0. -1.
        -12    1    4    4    0    0  0.58185522750E+02  0.50112310605E+02  0.34727878965E+03  0.35566748020E+03  0.00000000000E+00 0.  1.
        -13    1    3    3    0    0  0.13584801359E+02  0.31852000598E+02  0.16945211871E+03  0.17295409017E+03  0.00000000000E+00 0. -1.
         13    1    3    3    0    0 -0.62447731364E+02 -0.22667476666E+02  0.19384938055E+03  0.20491733941E+03  0.00000000000E+00 0.  1.
          2    1    1    2  501    0 -0.57355979156E+02 -0.65396352799E+02  0.10559403417E+03  0.13680822840E+03  0.00000000000E+00 0. -1.
<scales pt_clust_5="13000.00000" pt_clust_6="13000.00000" pt_clust_7="13000.00000" pt_clust_8="13000.00000" pt_clust_9="86.98501"></scales>
<clustering>
<clus scale="   80.194">  5  6 -1 -1</clus>
<clus scale="   86.985">  2  9  1 -1</clus>
<clus scale="   91.252">  7  8 -1 -1</clus>
<clus scale="  107.631">  2  5  1 -1</clus>
<clus scale="   86.985">  2  5  1 -1</clus>
</clustering>
</event>
<event>
 9    1  0.4067873E-005  0.1088975E+03  0.7546771E-02  0.1267706E+00
          1   -1    0    0  502    0 -0.00000000000E+00  0.00000000000E+00  0.17945270622E+03  0.17945270622E+03  0.00000000000E+00 0. -1.
         21   -1    0    0  501  502  0.00000000000E+00 -0.00000000000E+00 -0.18036431283E+03  0.18036431283E+03  0.00000000000E+00 0.  1.
        -24    2    1    2    0    0  0.40061772919E+02 -0.34200685158E+02  0.98035168133E+02  0.13605856089E+03  0.78271356747E+02 0.  0.
         23    2    1    2    0    0 -0.82078134144E+02  0.36793637023E+02 -0.13581596657E+02  0.12857804190E+03  0.90869473757E+02 0.  0.
         13    1    3    3    0    0  0.20360037808E+02 -0.17899452389E+02  0.10589234790E+03  0.10930741456E+03  0.00000000000E+00 0. -1.
        -14    1    3    3    0    0  0.19701735112E+02 -0.16301232770E+02 -0.78571797632E+01  0.26751146332E+02  0.00000000000E+00 0.  1.
        -13    1    4    4    0    0 -0.45810159875E+02  0.45107159516E+02 -0.46141815327E+02  0.79134655550E+02  0.00000000000E+00 0.  1.
         13    1    4    4    0    0 -0.36267974269E+02 -0.83135224930E+01  0.32560218670E+02  0.49443386349E+02  0.00000000000E+00 0. -1.
          2    1    1    2  501    0  0.42016361225E+02 -0.25929518647E+01 -0.85365178087E+02  0.95180416261E+02  0.00000000000E+00 0. -1.
<scales pt_clust_5="13000.00000" pt_clust_6="13000.00000" pt_clust_7="13000.00000" pt_clust_8="13000.00000" pt_clust_9="42.09629"></scales>
<clustering>
<clus scale="   42.096">  2  9  1 -1</clus>
<clus scale="   78.271">  5  6 -1 -1</clus>
<clus scale="   90.869">  7  8 -1 -1</clus>
<clus scale="   98.630">  1  5  2 -1</clus>
<clus scale="   42.096">  2  5  1 -1</clus>
</clustering>
</event>
<event>
 9    1  0.4067873E-005  0.1581475E+03  0.7546771E-02  0.1205353E+00
          3   -1    0    0  502    0 -0.00000000000E+00  0.00000000000E+00  0.25520394003E+03  0.25520394003E+03  0.00000000000E+00 0. -1.
         21   -1    0    0  501  502  0.00000000000E+00 -0.00000000000E+00 -0.24993961931E+03  0.24993961931E+03  0.00000000000E+00 0. -1.
        -24    2    1    2    0    0 -0.77088471300E+02 -0.33755743895E+02 -0.71313426675E+02  0.13546893360E+03  0.78639331720E+02 0.  0.
         23    2    1    2    0    0  0.14245855538E+03 -0.73247397333E+02  0.13727311194E+03  0.23036616439E+03  0.92547507886E+02 0.  0.
         11    1    3    3    0    0 -0.78842981354E+02 -0.53354624926E+02 -0.62678769273E+02  0.11398052390E+03  0.00000000000E+00 0. -1.
        -12    1    3    3    0    0  0.17545100543E+01  0.19598881031E+02 -0.86346574021E+01  0.21488409705E+02  0.00000000000E+00 0.  1.
        -13    1    4    4    0    0  0.89627621326E+02 -0.10352547344E+02  0.11323010529E+03  0.14478032492E+03  0.00000000000E+00 0. -1.
         13    1    4    4    0    0  0.52830934056E+02 -0.62894849989E+02  0.24043006655E+02  0.85585839468E+02  0.00000000000E+00 0.  1.
          4    1    1    2  501    0 -0.65370084082E+02  0.10700314123E+03 -0.60695364549E+02  0.13930846135E+03  0.00000000000E+00 0. -1.
<scales pt_clust_5="13000.00000" pt_clust_6="13000.00000" pt_clust_7="13000.00000" pt_clust_8="13000.00000" pt_clust_9="128.24032"></scales>
<clustering>
<clus scale="   78.639">  5  6 -1 -1</clus>
<clus scale="   92.548">  7  8 -1 -1</clus>
<clus scale="  115.179">  1  5  2 -1</clus>
<clus scale="  128.240">  2  9  1 -1</clus>
<clus scale="  128.240">  2  5  1 -1</clus>
</clustering>
</event>
<event>
 9    1  0.4067873E-005  0.1229947E+03  0.7546771E-02  0.1246869E+00
         -2   -1    0    0    0  501 -0.00000000000E+00  0.00000000000E+00  0.15556776070E+03  0.15556776070E+03  0.00000000000E+00 0.  1.
         21   -1    0    0  501  502  0.00000000000E+00 -0.00000000000E+00 -0.22210995465E+03  0.22210995465E+03  0.00000000000E+00 0. -1.
         23    2    1    2    0    0  0.30104437252E+02 -0.50984597256E+02  0.14647366587E+02  0.12066917869E+03  0.10411915788E+03 0.  0.
        -24    2    1    2    0    0 -0.91286506237E+02  0.34473734545E+02 -0.12687277875E+03  0.17888804908E+03  0.79890972717E+02 0.  0.
         13    1    4    4    0    0 -0.13758464842E+02  0.45459203347E+02 -0.54094208891E+02  0.71986234512E+02  0.00000000000E+00 0. -1.
        -14    1    4    4    0    0 -0.77528041395E+02 -0.10985468801E+02 -0.72778569857E+02  0.10690181457E+03  0.00000000000E+00 0.  1.
        -11    1    3    3    0    0 -0.38288697954E+01 -0.74749891977E+02  0.23213650698E+02  0.78365044333E+02  0.00000000000E+00 0. -1.
         11    1    3    3    0    0  0.33933307047E+02  0.23765294722E+02 -0.85662841114E+01  0.42304134359E+02  0.00000000000E+00 0.  1.
         -1    1    1    2    0  502  0.61182068985E+02  0.16510862710E+02  0.45683218218E+02  0.78120487579E+02  0.00000000000E+00 0.  1.
<scales pt_clust_5="13000.00000" pt_clust_6="13000.00000" pt_clust_7="13000.00000" pt_clust_8="13000.00000" pt_clust_9="63.37080"></scales>
<clustering>
<clus scale="   63.371">  2  9  1 -1</clus>
<clus scale="   79.891">  5  6 -1 -1</clus>
<clus scale="  103.293">  2  5  1 -1</clus>
<clus scale="  104.119">  7  8 -1 -1</clus>
<clus scale="   63.371">  2  5  1 -1</clus>
</clustering>
</event>
<event>
 9    1  0.4067873E-005  0.1388632E+03  0.7546771E-02  0.1215745E+00
          1   -1    0    0  502    0 -0.00000000000E+00  0.00000000000E+00  0.47791509680E+03  0.47791509680E+03  0.00000000000E+00 0. -1.
         21   -1    0    0  501  502  0.00000000000E+00 -0.00000000000E+00 -0.11456435676E+03  0.11456435676E+03  0.00000000000E+00 0. -1.
         23    2    1    2    0    0  0.89083698768E+02  0.56741738457E+02  0.37386890634E+03  0.39911722661E+03  0.91438893151E+02 0.  0.
        -24    2    1    2    0    0 -0.34018680614E+02 -0.78040431330E+02 -0.29989403240E+02  0.13119374932E+03  0.95209537344E+02 0.  0.
         11    1    4    4    0    0 -0.43993115921E+01 -0.93643247222E+02 -0.27134654951E+02  0.97594575628E+02  0.00000000000E+00 0. -1.
        -12    1    4    4    0    0 -0.29619369022E+02  0.15602815892E+02 -0.28547482889E+01  0.33599173692E+02  0.00000000000E+00 0.  1.
        -11    1    3    3    0    0  0.69418690096E+02  0.81161688225E+02  0.26183135980E+03  0.28277523786E+03  0.00000000000E+00 0. -1.
         11    1    3    3    0    0  0.19665008672E+02 -0.24419949768E+02  0.11203754653E+03  0.11634198875E+03  0.00000000000E+00 0.  1.
          2    1    1    2  501    0 -0.55065018154E+02  0.21298692872E+02  0.19471236949E+02  0.62168477629E+02  0.00000000000E+00 0. -1.
<scales pt_clust_5="13000.00000" pt_clust_6="13000.00000" pt_clust_7="13000.00000" pt_clust_8="13000.00000" pt_clust_9="59.04058"></scales>
<clustering>
<clus scale="   59.041">  2  9  1 -1</clus>
<clus scale="   91.439">  7  8 -1 -1</clus>
<clus scale="   95.210">  5  6 -1 -1</clus>
<clus scale="  136.306">  1  7  2 -1</clus>
<clus scale="   59.041">  2  5  1 -1</clus>
</clustering>
</event>
<event>
 9    1  0.4067873E-005  0.9871658E+02  0.7546771E-02  0.1289317E+00
         21   -1    0    0  501  502  0.00000000000E+00  0.00000000000E+00  0.72934128116E+02  0.72934128116E+02  0.00000000000E+00 0.  1.
          1   -1    0    0  502    0 -0.00000000000E+00 -0.00000000000E+00 -0.31710252253E+03  0.31710252253E+03  0.00000000000E+00 0. -1.
        -24    2    1    2    0    0 -0.32648577007E+02  0.21588032962E+02 -0.25176853078E+03  0.26709975679E+03  0.80143086031E+02 0.  0.
         23    2    1    2    0    0  0.14138857685E+02  0.10697668990E+01  0.91881114537E+01  0.93636599162E+02  0.92099617875E+02 0.  0.
         13    1    3    3    0    0 -0.48424448253E+02  0.39626094142E+02 -0.20791137401E+03  0.21712276244E+03  0.00000000000E+00 0. -1.
        -14    1    3    3    0    0  0.15775871245E+02 -0.18038061180E+02 -0.43857156773E+02  0.49976994356E+02  0.00000000000E+00 0.  1.
        -13    1    4    4    0    0 -0.27877094651E+02  0.30666885581E+02  0.91636340948E-01  0.41443922047E+02  0.00000000000E+00 0. -1.
         13    1    4    4    0    0  0.42015952335E+02 -0.29597118682E+02  0.90964751128E+01  0.52192677115E+02  0.00000000000E+00 0.  1.
          2    1    1    2  501    0  0.18509719323E+02 -0.22657799861E+02 -0.15879750811E+01  0.29300294688E+02  0.00000000000E+00 0. -1.
<scales pt_clust_5="13000.00000" pt_clust_6="13000.00000" pt_clust_7="13000.00000" pt_clust_8="13000.00000" pt_clust_9="29.25723"></scales>
<clustering>
<clus scale="   29.257">  1  9  2 -1</clus>
<clus scale="   80.143">  5  6 -1 -1</clus>
<clus scale="   87.667">  2  5  1 -1</clus>
<clus scale="   92.100">  7  8 -1 -1</clus>
<clus scale="   29.257">  1  5  2 -1</clus>
</clustering>
</event>
<event>
 9    1  0.4067873E-005  0.1252109E+03  0.7546771E-02  0.1237644E+00
         21   -1    0    0  501  502  0.00000000000E+00  0.00000000000E+00  0.31905467738E+02  0.31905467738E+02  0.00000000000E+00 0.  1.
          1   -1    0    0  502    0 -0.00000000000E+00 -0.00000000000E+00 -0.63300702330E+03  0.63300702330E+03  0.00000000000E+00 0. -1.
        -24    2    1    2    0    0  0.19693183296E+02  0.80884352000E+02 -0.32128837804E+03  0.34163289961E+03  0.80973553485E+02 0.  0.
         23    2    1    2    0    0  0.40561105359E+01 -0.91704258637E+02 -0.26035353613E+03  0.29072537542E+03  0.91165547494E+02 0.  0.
         13    1    3    3    0    0  0.34193792575E+02  0.89320763349E+02 -0.29770692600E+03  0.31269286530E+03  0.00000000000E+00 0. -1.
        -14    1    3    3    0    0 -0.14500609279E+02 -0.84364113484E+01 -0.23581452039E+02  0.28940034315E+02  0.00000000000E+00 0.  1.
        -11    1    4    4    0    0  0.36327213670E+02 -0.59715116080E+02 -0.87452179411E+02  0.11195287055E+03  0.00000000000E+00 0.  1.
         11    1    4    4    0    0 -0.32271103134E+02 -0.31989142556E+02 -0.17290135672E+03  0.17877250486E+03  0.00000000000E+00 0. -1.
          2    1    1    2  501    0 -0.23749293832E+02  0.10819906637E+02 -0.19459641386E+02  0.32554216010E+02  0.00000000000E+00 0. -1.
<scales pt_clust_5="13000.00000" pt_clust_6="13000.00000" pt_clust_7="13000.00000" pt_clust_8="13000.00000" pt_clust_9="26.09788"></scales>
<clustering>
<clus scale="   26.098">  1  9  2 -1</clus>
<clus scale="   80.974">  5  6 -1 -1</clus>
<clus scale="   91.166">  7  8 -1 -1</clus>
<clus scale="  117.997">  2  5  1 -1</clus>
<clus scale="   26.098">  1  5  2 -1</clus>
</clustering>
</event>
<event>
 9    1  0.4235723E-005  0.9392576E+02  0.7546771E-02  0.1301432E+00
          1   -1    0    0  502    0 -0.00000000000E+00  0.00000000000E+00  0.14923206814E+03  0.14923206814E+03  0.00000000000E+00 0. -1.
         21   -1    0    0  501  502  0.00000000000E+00 -0.00000000000E+00 -0.32516175276E+03  0.32516175276E+03  0.00000000000E+00 0. -1.
         23    2    1    2    0    0 -0.22214590751E+02  0.63521693739E+01  0.92760721691E+02  0.13066551092E+03  0.89079100561E+02 0.  0.
        -24    2    1    2    0    0  0.40557570072E+02 -0.34540740728E+02 -0.22427824534E+02  0.95179884867E+02  0.75618938830E+02 0.  0.
         13    1    4    4    0    0  0.54768082817E+02 -0.48066434479E+02 -0.18297565775E+02  0.75131391125E+02  0.00000000000E+00 0. -1.
        -14    1    4    4    0    0 -0.14210512745E+02  0.13525693751E+02 -0.41302587588E+01  0.20048493743E+02  0.00000000000E+00 0.  1.
        -11    1    3    3    0    0 -0.47484768432E+02  0.95895399469E+01  0.17993921327E+02  0.51677303666E+02  0.00000000000E+00 0.  1.
         11    1    3    3    0    0  0.25270177681E+02 -0.32373705729E+01  0.74766800364E+02  0.78988207253E+02  0.00000000000E+00 0. -1.
          2    1    1    2  501    0 -0.18342979321E+02  0.28188571354E+02 -0.24626258178E+03  0.24854842512E+03  0.00000000000E+00 0. -1.
<scales pt_clust_5="13000.00000" pt_clust_6="13000.00000" pt_clust_7="13000.00000" pt_clust_8="13000.00000" pt_clust_9="33.63124"></scales>
<clustering>
<clus scale="   33.631">  2  9  1 -1</clus>
<clus scale="   75.619">  5  6 -1 -1</clus>
<clus scale="   81.272">  2  5  1 -1</clus>
<clus scale="   89.079">  7  8 -1 -1</clus>
<clus scale="   33.631">  2  5  1 -1</clus>
</clustering>
</event>
<event>
 9    1  0.4067873E-005  0.9032395E+02  0.7546771E-02  0.1307477E+00
         21   -1    0    0  501  502  0.00000000000E+00  0.00000000000E+00  0.42654282338E+02  0.42654282338E+02  0.00000000000E+00 0. -1.
          3   -1    0    0  502    0 -0.00000000000E+00 -0.00000000000E+00 -0.40016672788E+03  0.40016672788E+03  0.00000000000E+00 0. -1.
         23    2    1    2    0    0  0.22915772434E+02  0.31495385662E+02 -0.21189992435E+03  0.23290957913E+03  0.88477127932E+02 0.  0.
        -24    2    1    2    0    0  0.25982679110E+02 -0.15122571439E+01 -0.12157300810E+03  0.14771862805E+03  0.79770986214E+02 0.  0.
         13    1    4    4    0    0  0.39403611803E+01  0.36648685240E+02 -0.36312261919E+02  0.51741984324E+02  0.00000000000E+00 0. -1.
        -14    1    4    4    0    0  0.22042317930E+02 -0.38160942384E+02 -0.85260746176E+02  0.95976643731E+02  0.00000000000E+00 0.  1.
        -11    1    3    3    0    0  0.52167763778E+02  0.16775822559E+02 -0.79747458229E+02  0.96760327067E+02  0.00000000000E+00 0. -1.
         11    1    3    3    0    0 -0.29251991345E+02  0.14719563103E+02 -0.13215246612E+03  0.13614925206E+03  0.00000000000E+00 0.  1.
          4    1    1    2  501    0 -0.48898451544E+02 -0.29983128518E+02 -0.24039513097E+02  0.62192803033E+02  0.00000000000E+00 0. -1.
<scales pt_clust_5="13000.00000" pt_clust_6="13000.00000" pt_clust_7="13000.00000" pt_clust_8="13000.00000" pt_clust_9="57.35893"></scales>
<clustering>
<clus scale="   57.359">  1  9  2 -1</clus>
<clus scale="   79.771">  5  6 -1 -1</clus>
<clus scale="   81.815">  1  5  2 -1</clus>
<clus scale="   88.477">  7  8 -1 -1</clus>
<clus scale="   57.359">  1  5  2 -1</clus>
</clustering>
</event>
<event>
 9    1  0.4067873E-005  0.1161654E+03  0.7546771E-02  0.1249866E+00
          3   -1    0    0  502    0 -0.00000000000E+00  0.00000000000E+00  0.49917144457E+03  0.49917144457E+03  0.00000000000E+00 0. -1.
         21   -1    0    0  501  502  0.00000000000E+00 -0.00000000000E+00 -0.58094678986E+02  0.58094678986E+02  0.00000000000E+00 0.  1.
         23    2    1    2    0    0  0.76654495473E+02 -0.10569163132E+02  0.38452759156E+03  0.40266617437E+03  0.91054711186E+02 0.  0.
        -24    2    1    2    0    0 -0.40490463575E+02  0.25479541225E+02  0.32257609764E+02  0.10855392142E+03  0.91949528588E+02 0.  0.
         13    1    4    4    0    0  0.14851181845E+02  0.27995737232E+02  0.41679785556E+02  0.52359559102E+02  0.00000000000E+00 0. -1.
        -14    1    4    4    0    0 -0.55341645421E+02 -0.25161960071E+01 -0.94221757923E+01  0.56194362323E+02  0.00000000000E+00 0.  1.
        -13    1    3    3    0    0 -0.30853339688E+01  0.29837527455E+02  0.10403672468E+03  0.10827482353E+03  0.00000000000E+00 0.  1.
         13    1    3    3    0    0  0.79739829442E+02 -0.40406690587E+02  0.28049086688E+03  0.29439135084E+03  0.00000000000E+00 0. -1.
          4    1    1    2  501    0 -0.36164031898E+02 -0.14910378093E+02  0.24291564261E+02  0.46046027757E+02  0.00000000000E+00 0. -1.
<scales pt_clust_5="13000.00000" pt_clust_6="13000.00000" pt_clust_7="13000.00000" pt_clust_8="13000.00000" pt_clust_9="39.11722"></scales>
<clustering>
<clus scale="   39.117">  2  9  1 -1</clus>
<clus scale="   91.055">  7  8 -1 -1</clus>
<clus scale="   91.950">  5  6 -1 -1</clus>
<clus scale="  115.458">  1  7  2 -1</clus>
<clus scale="   39.117">  2  5  1 -1</clus>
</clustering>
</event>
<event>
 9    1  0.4067873E-005  0.9442478E+02  0.7546771E-02  0.1297245E+00
         21   -1    0    0  501  502  0.00000000000E+00  0.00000000000E+00  0.82997754411E+02  0.82997754411E+02  0.00000000000E+00 0.  1.
          1   -1    0    0  502    0 -0.00000000000E+00 -0.00000000000E+00 -0.18320496211E+03  0.18320496211E+03  0.00000000000E+00 0. -1.
         23    2    1    2    0    0  0.28942219248E+02 -0.46068507342E+00 -0.11083759776E+03  0.14645591786E+03  0.91249649384E+02 0.  0.
        -24    2    1    2    0    0 -0.83120255201E+01 -0.57662398598E+01  0.31933984553E+02  0.89444610199E+02  0.82935032609E+02 0.  0.
         11    1    4    4    0    0  0.22429326014E+02 -0.25195727845E+02 -0.87770480703E+01  0.34855931201E+02  0.00000000000E+00 0. -1.
        -12    1    4    4    0    0 -0.30741351534E+02  0.19429487985E+02  0.40711032623E+02  0.54588678998E+02  0.00000000000E+00 0.  1.
        -13    1    3    3    0    0 -0.25514176262E+02  0.52412505060E+01 -0.39290830360E+01  0.26341632271E+02  0.00000000000E+00 0.  1.
         13    1    3    3    0    0  0.54456395511E+02 -0.57019355794E+01 -0.10690851473E+03  0.12011428559E+03  0.00000000000E+00 0. -1.
          2    1    1    2  501    0 -0.20630193728E+02  0.62269249332E+01 -0.21303594491E+02  0.30302188463E+02  0.00000000000E+00 0. -1.
<scales pt_clust_5="13000.00000" pt_clust_6="13000.00000" pt_clust_7="13000.00000" pt_clust_8="13000.00000" pt_clust_9="21.54948"></scales>
<clustering>
<clus scale="   21.549">  1  9  2 -1</clus>
<clus scale="   82.935">  5  6 -1 -1</clus>
<clus scale="   86.416">  1  5  2 -1</clus>
<clus scale="   91.250">  7  8 -1 -1</clus>
<clus scale="   21.549">  1  5  2 -1</clus>
</clustering>
</event>
<event>
 9    1  0.4067873E-005  0.1011005E+03  0.7546771E-02  0.1286050E+00
         -2   -1    0    0    0  501 -0.00000000000E+00  0.00000000000E+00  0.13428956090E+03  0.13428956090E+03  0.00000000000E+00 0.  1.
         21   -1    0    0  501  502  0.00000000000E+00 -0.00000000000E+00 -0.14760427728E+03  0.14760427728E+03  0.00000000000E+00 0. -1.
         23    2    1    2    0    0 -0.40582691797E+02  0.19892694870E+02  0.85040968550E+02  0.13316548174E+03  0.91969587433E+02 0.  0.
        -24    2    1    2    0    0  0.17269222727E+02 -0.26075355788E+02 -0.92894692662E+02  0.12399850458E+03  0.75947712148E+02 0.  0.
         11    1    4    4    0    0 -0.27499730544E+02  0.45766477936E+01 -0.31731718056E+02  0.42238404513E+02  0.00000000000E+00 0. -1.
        -12    1    4    4    0    0  0.44768953271E+02 -0.30652003581E+02 -0.61162974606E+02  0.81760100068E+02  0.00000000000E+00 0.  1.
        -13    1    3    3    0    0 -0.50191498956E+01 -0.35679138782E+02  0.36224014983E+02  0.51091800432E+02  0.00000000000E+00 0. -1.
         13    1    3    3    0    0 -0.35563541901E+02  0.55571833651E+02  0.48816953566E+02  0.82073681308E+02  0.00000000000E+00 0.  1.
         -1    1    1    2    0  502  0.23313469070E+02  0.61826609182E+01 -0.54609922665E+01  0.24729851852E+02  0.00000000000E+00 0.  1.
<scales pt_clust_5="13000.00000" pt_clust_6="13000.00000" pt_clust_7="13000.00000" pt_clust_8="13000.00000" pt_clust_9="24.11935"></scales>
<clustering>
<clus scale="   24.119">  2  9  1 -1</clus>
<clus scale="   75.948">  5  6 -1 -1</clus>
<clus scale="   86.781">  2  5  1 -1</clus>
<clus scale="   91.970">  7  8 -1 -1</clus>
<clus scale="   24.119">  2  5  1 -1</clus>
</clustering>
</event>
<event>
 9    1  0.4067873E-005  0.9360718E+02  0.7546771E-02  0.1300926E+00
         21   -1    0    0  501  502  0.00000000000E+00  0.00000000000E+00  0.19210409403E+03  0.19210409403E+03  0.00000000000E+00 0. -1.
          3   -1    0    0  502    0 -0.00000000000E+00 -0.00000000000E+00 -0.87390558860E+02  0.87390558860E+02  0.00000000000E+00 0. -1.
        -24    2    1    2    0    0  0.20253656132E+02 -0.21534783278E+02 -0.33201005306E+02  0.90844334293E+02  0.79223915848E+02 0.  0.
         23    2    1    2    0    0  0.71991771745E+01  0.15106389275E+02  0.71375428636E+02  0.11638389686E+03  0.90392081993E+02 0.  0.
         13    1    3    3    0    0  0.40257597009E+02 -0.24593784690E+02 -0.46809337722E+02  0.66457824674E+02  0.00000000000E+00 0. -1.
        -14    1    3    3    0    0 -0.20003940877E+02  0.30590014125E+01  0.13608332417E+02  0.24386509620E+02  0.00000000000E+00 0.  1.
        -13    1    4    4    0    0  0.32536621811E+02  0.25449613336E+02  0.77967352375E+02  0.88233908528E+02  0.00000000000E+00 0. -1.
         13    1    4    4    0    0 -0.25337444637E+02 -0.10343224061E+02 -0.65919237383E+01  0.28149988335E+02  0.00000000000E+00 0.  1.
          4    1    1    2  501    0 -0.27452833306E+02  0.64283940027E+01  0.66539111842E+02  0.72266421738E+02  0.00000000000E+00 0. -1.
<scales pt_clust_5="13000.00000" pt_clust_6="13000.00000" pt_clust_7="13000.00000" pt_clust_8="13000.00000" pt_clust_9="28.19543"></scales>
<clustering>
<clus scale="   28.195">  1  9  2 -1</clus>
<clus scale="   79.224">  5  6 -1 -1</clus>
<clus scale="   82.873">  2  5  1 -1</clus>
<clus scale="   90.392">  7  8 -1 -1</clus>
<clus scale="   28.195">  1  5  2 -1</clus>
</clustering>
</event>
<event>
 9    1  0.4067873E-005  0.1034299E+03  0.7546771E-02  0.1279624E+00
          3   -1    0    0  502    0 -0.00000000000E+00  0.00000000000E+00  0.91405369443E+02  0.91405369443E+02  0.00000000000E+00 0. -1.
         21   -1    0    0  501  502  0.00000000000E+00 -0.00000000000E+00 -0.23007430312E+03  0.23007430312E+03  0.00000000000E+00 0.  1.
         23    2    1    2    0    0 -0.15808540456E+02 -0.33213709118E+01 -0.45256139212E+02  0.10905722642E+03  0.97900046179E+02 0.  0.
        -24    2    1    2    0    0 -0.37938772951E+02  0.55367969156E+02 -0.25664714079E+02  0.11148967405E+03  0.85242638208E+02 0.  0.
         13    1    4    4    0    0 -0.13413548597E+02 -0.20519190527E+02 -0.19819143305E+02  0.31523941809E+02  0.00000000000E+00 0. -1.
        -14    1    4    4    0    0 -0.24525224354E+02  0.75887159683E+02 -0.58455707736E+01  0.79965732236E+02  0.00000000000E+00 0.  1.
        -13    1    3    3    0    0  0.24201944844E+02 -0.23746871146E+02 -0.53543792301E+02  0.63376539172E+02  0.00000000000E+00 0. -1.
         13    1    3    3    0    0 -0.40010485300E+02  0.20425500234E+02  0.82876530891E+01  0.45680687248E+02  0.00000000000E+00 0.  1.
          4    1    1    2  501    0  0.53747313406E+02 -0.52046598244E+02 -0.67748080384E+02  0.10093277210E+03  0.00000000000E+00 0. -1.
<scales pt_clust_5="13000.00000" pt_clust_6="13000.00000" pt_clust_7="13000.00000" pt_clust_8="13000.00000" pt_clust_9="74.81726"></scales>
<clustering>
<clus scale="   74.817">  2  9  1 -1</clus>
<clus scale="   85.243">  5  6 -1 -1</clus>
<clus scale="   91.540">  2  5  1 -1</clus>
<clus scale="   97.900">  7  8 -1 -1</clus>
<clus scale="   74.817">  2  5  1 -1</clus>
</clustering>
</event>
<event>
 9    1  0.4067873E-005  0.9333504E+02  0.7546771E-02  0.1301646E+00
          1   -1    0    0  502    0 -0.00000000000E+00  0.00000000000E+00  0.22858122942E+03  0.22858122942E+03  0.00000000000E+00 0. -1.
         21   -1    0    0  501  502  0.00000000000E+00 -0.00000000000E+00 -0.19792218810E+03  0.19792218810E+03  0.00000000000E+00 0. -1.
         23    2    1    2    0    0 -0.27846751235E+02  0.11950681133E+02  0.18031414686E+03  0.20369941062E+03  0.89788629555E+02 0.  0.
        -24    2    1    2    0    0  0.88616073671E+01  0.21448343454E+01 -0.82356057541E+01  0.79421322568E+02  0.78465233555E+02 0.  0.
         11    1    4    4    0    0  0.39930034484E+02  0.14552462788E+02  0.62668674115E+01  0.42958764580E+02  0.00000000000E+00 0. -1.
        -12    1    4    4    0    0 -0.31068427117E+02 -0.12407628443E+02 -0.14502473166E+02  0.36462557988E+02  0.00000000000E+00 0.  1.
        -13    1    3    3    0    0  0.18963430686E+02 -0.26673932132E+02  0.80291661753E+02  0.86705601352E+02  0.00000000000E+00 0.  1.
         13    1    3    3    0    0 -0.46810181921E+02  0.38624613265E+02  0.10002248510E+03  0.11699380927E+03  0.00000000000E+00 0. -1.
          2    1    1    2  501    0  0.18985143868E+02 -0.14095515478E+02 -0.14141949978E+03  0.14338268432E+03  0.00000000000E+00 0. -1.
<scales pt_clust_5="13000.00000" pt_clust_6="13000.00000" pt_clust_7="13000.00000" pt_clust_8="13000.00000" pt_clust_9="23.64570"></scales>
<clustering>
<clus scale="   23.646">  2  9  1 -1</clus>
<clus scale="   78.465">  5  6 -1 -1</clus>
<clus scale="   82.500">  2  5  1 -1</clus>
<clus scale="   89.789">  7  8 -1 -1</clus>
<clus scale="   23.646">  2  5  1 -1</clus>
</clustering>
</event>
<event>
 9    1  0.4067873E-005  0.2284683E+03  0.7546771E-02  0.1167706E+00
         21   -1    0    0  501  502  0.00000000000E+00  0.00000000000E+00  0.13422976203E+03  0.13422976203E+03  0.00000000000E+00 0.  1.
          1   -1    0    0  502    0 -0.00000000000E+00 -0.00000000000E+00 -0.55430104868E+03  0.55430104868E+03  0.00000000000E+00 0. -1.
        -24    2    1    2    0    0  0.27231645908E+02 -0.26879736265E+02 -0.12521780204E+03  0.15317512436E+03  0.79492377077E+02 0.  0.
         23    2    1    2    0    0 -0.13345814955E+03 -0.16057641081E+03 -0.11173591331E+03  0.25259090413E+03  0.87871435250E+02 0.  0.
         13    1    3    3    0    0 -0.26273027465E+02 -0.17627156309E+02 -0.63680065189E+02  0.71106534961E+02  0.00000000000E+00 0. -1.
        -14    1    3    3    0    0  0.53504673373E+02 -0.92525799565E+01 -0.61537736855E+02  0.82068589398E+02  0.00000000000E+00 0.  1.
        -13    1    4    4    0    0 -0.50590026965E+02 -0.74468998124E+02 -0.15503838035E+01  0.90041025093E+02  0.00000000000E+00 0.  1.
         13    1    4    4    0    0 -0.82868122587E+02 -0.86107412689E+02 -0.11018552951E+03  0.16254987903E+03  0.00000000000E+00 0. -1.
          2    1    1    2  501    0  0.10622650364E+03  0.18745614708E+03 -0.18311757129E+03  0.28276478223E+03  0.00000000000E+00 0. -1.
<scales pt_clust_5="13000.00000" pt_clust_6="13000.00000" pt_clust_7="13000.00000" pt_clust_8="13000.00000" pt_clust_9="210.89429"></scales>
<clustering>
<clus scale="   79.492">  5  6 -1 -1</clus>
<clus scale="   87.871">  7  8 -1 -1</clus>
<clus scale="   88.222">  2  5  1 -1</clus>
<clus scale="  210.894">  1  9  2 -1</clus>
<clus scale="  210.894">  1  5  2 -1</clus>
</clustering>
</event>
<event>
 9    1  0.4067873E-005  0.9375417E+02  0.7546771E-02  0.1299761E+00
          1   -1    0    0  502    0 -0.00000000000E+00  0.00000000000E+00  0.38994429444E+03  0.38994429444E+03  0.00000000000E+00 0. -1.
         21   -1    0    0  501  502  0.00000000000E+00 -0.00000000000E+00 -0.32410236219E+02  0.32410236219E+02  0.00000000000E+00 0. -1.
        -24    2    1    2    0    0  0.63994323245E+01 -0.84062916865E+01  0.24228151277E+03  0.25624606625E+03  0.82765310139E+02 0.  0.
         23    2    1    2    0    0 -0.12705236403E+02  0.29289622324E+02  0.95942460948E+02  0.13697504671E+03  0.92400771643E+02 0.  0.
         13    1    3    3    0    0  0.39335917290E+02  0.14434031076E+02  0.14755572374E+03  0.15338952784E+03  0.00000000000E+00 0. -1.
        -14    1    3    3    0    0 -0.32936484966E+02 -0.22840322762E+02  0.94725789031E+02  0.10285653841E+03  0.00000000000E+00 0.  1.
        -11    1    4    4    0    0  0.36575167157E+02  0.17940168583E+02  0.67810033786E+02  0.79106214569E+02  0.00000000000E+00 0.  1.
         11    1    4    4    0    0 -0.49280403560E+02  0.11349453741E+02  0.28132427162E+02  0.57868832140E+02  0.00000000000E+00 0. -1.
          2    1    1    2  501    0  0.63058040786E+01 -0.20883330637E+02  0.19310084499E+02  0.29133417701E+02  0.00000000000E+00 0. -1.
<scales pt_clust_5="13000.00000" pt_clust_6="13000.00000" pt_clust_7="13000.00000" pt_clust_8="13000.00000" pt_clust_9="21.81460"></scales>
<clustering>
<clus scale="   21.815">  2  9  1 -1</clus>
<clus scale="   82.765">  5  6 -1 -1</clus>
<clus scale="   84.274">  1  5  2 -1</clus>
<clus scale="   92.401">  7  8 -1 -1</clus>
<clus scale="   21.815">  2  5  1 -1</clus>
</clustering>
</event>
<event>
 9    1  0.4067873E-005  0.1187823E+03  0.7546771E-02  0.1249678E+00
         21   -1    0    0  501  502  0.00000000000E+00  0.00000000000E+00  0.15945356651E+03  0.15945356651E+03  0.00000000000E+00 0.  1.
          1   -1    0    0  502    0 -0.00000000000E+00 -0.00000000000E+00 -0.17134488063E+03  0.17134488063E+03  0.00000000000E+00 0. -1.
         23    2    1    2    0    0 -0.60296139006E+02  0.72093830050E+02 -0.76182977230E+02  0.15225591132E+03  0.92438475761E+02 0.  0.
        -24    2    1    2    0    0 -0.69643087488E+01 -0.46929553118E+02  0.52402164785E+02  0.10575126686E+03  0.78654046409E+02 0.  0.
         11    1    4    4    0    0  0.31092223543E+02 -0.40977650529E+02  0.19224112287E+02  0.54913210623E+02  0.00000000000E+00 0. -1.
        -12    1    4    4    0    0 -0.38056532292E+02 -0.59519025888E+01  0.33178052498E+02  0.50838056238E+02  0.00000000000E+00 0.  1.
        -13    1    3    3    0    0 -0.21216322218E+02  0.86989782761E+02 -0.45885160830E+02  0.10061213951E+03  0.00000000000E+00 0. -1.
         13    1    3    3    0    0 -0.39079816788E+02 -0.14895952711E+02 -0.30297816400E+02  0.51643771802E+02  0.00000000000E+00 0.  1.
          2    1    1    2  501    0  0.67260447755E+02 -0.25164276932E+02  0.11889498328E+02  0.72791268956E+02  0.00000000000E+00 0. -1.
<scales pt_clust_5="13000.00000" pt_clust_6="13000.00000" pt_clust_7="13000.00000" pt_clust_8="13000.00000" pt_clust_9="71.81371"></scales>
<clustering>
<clus scale="   71.814">  1  9  2 -1</clus>
<clus scale="   78.654">  5  6 -1 -1</clus>
<clus scale="   92.438">  7  8 -1 -1</clus>
<clus scale="  108.401">  1  5  2 -1</clus>
<clus scale="   71.814">  1  5  2 -1</clus>
</clustering>
</event>
<event>
 9    1  0.4067873E-005  0.9219912E+02  0.7546771E-02  0.1304237E+00
          1   -1    0    0  502    0 -0.00000000000E+00  0.00000000000E+00  0.35777804519E+02  0.35777804519E+02  0.00000000000E+00 0. -1.
         21   -1    0    0  501  502  0.00000000000E+00 -0.00000000000E+00 -0.34575675984E+03  0.34575675984E+03  0.00000000000E+00 0.  1.
         23    2    1    2    0    0  0.14550611163E+02 -0.32208692811E+02 -0.14556569389E+03  0.17531750700E+03  0.91091914258E+02 0.  0.
        -24    2    1    2    0    0  0.22104997052E+01 -0.41187688342E+01 -0.13252376582E+03  0.15505496947E+03  0.80359470414E+02 0.  0.
         13    1    4    4    0    0  0.15850865508E+02 -0.23386067339E+02 -0.95293542698E+01  0.29815544197E+02  0.00000000000E+00 0. -1.
        -14    1    4    4    0    0 -0.13640365803E+02  0.19267298505E+02 -0.12299441155E+03  0.12523942527E+03  0.00000000000E+00 0.  1.
        -11    1    3    3    0    0  0.86204101074E-01 -0.62901728346E+02 -0.10535327487E+03  0.12270267880E+03  0.00000000000E+00 0.  1.
         11    1    3    3    0    0  0.14464407062E+02  0.30693035535E+02 -0.40212419027E+02  0.52614828196E+02  0.00000000000E+00 0. -1.
          2    1    1    2  501    0 -0.16761110869E+02  0.36327461646E+02 -0.31889495608E+02  0.51162087891E+02  0.00000000000E+00 0. -1.
<scales pt_clust_5="13000.00000" pt_clust_6="13000.00000" pt_clust_7="13000.00000" pt_clust_8="13000.00000" pt_clust_9="40.00776"></scales>
<clustering>
<clus scale="   40.008">  2  9  1 -1</clus>
<clus scale="   80.359">  5  6 -1 -1</clus>
<clus scale="   81.612">  2  5  1 -1</clus>
<clus scale="   91.092">  7  8 -1 -1</clus>
<clus scale="   40.008">  2  5  1 -1</clus>
</clustering>
</event>
<event>
 9    1  0.4067873E-005  0.1356117E+03  0.7546771E-02  0.1221610E+00
         21   -1    0    0  501  502  0.00000000000E+00  0.00000000000E+00  0.42924132386E+02  0.42924132386E+02  0.00000000000E+00 0.  1.
          1   -1    0    0  502    0 -0.00000000000E+00 -0.00000000000E+00 -0.57297444363E+03  0.57297444363E+03  0.00000000000E+00 0. -1.
         23    2    1    2    0    0 -0.84834283952E+02 -0.49432897659E+02 -0.31113415132E+03  0.33850025685E+03  0.90208074273E+02 0.  0.
        -24    2    1    2    0    0  0.10294760756E+03  0.30533176651E+02 -0.21097583502E+03  0.25004250250E+03  0.80498231747E+02 0.  0.
         13    1    4    4    0    0  0.86240165707E+02  0.18493184002E+02 -0.21180133312E+03  0.22943227486E+03  0.00000000000E+00 0. -1.
        -14    1    4    4    0    0  0.16707441848E+02  0.12039992649E+02  0.82549810059E+00  0.20610227636E+02  0.00000000000E+00 0.  1.
        -13    1    3    3    0    0 -0.12027218049E+02  0.25685352385E+02 -0.56640493660E+02  0.63344587955E+02  0.00000000000E+00 0.  1.
         13    1    3    3    0    0 -0.72807065903E+02 -0.75118250043E+02 -0.25449365766E+03  0.27515566889E+03  0.00000000000E+00 0. -1.
          2    1    1    2  501    0 -0.18113323603E+02  0.18899721008E+02 -0.79403249025E+01  0.27355816671E+02  0.00000000000E+00 0. -1.
<scales pt_clust_5="13000.00000" pt_clust_6="13000.00000" pt_clust_7="13000.00000" pt_clust_8="13000.00000" pt_clust_9="26.17808"></scales>
<clustering>
<clus scale="   26.178">  1  9  2 -1</clus>
<clus scale="   80.498">  5  6 -1 -1</clus>
<clus scale="   90.208">  7  8 -1 -1</clus>
<clus scale="  129.356">  1  5  2 -1</clus>
<clus scale="   26.178">  1  5  2 -1</clus>
</clustering>
</event>
<event>
 9    1  0.4067873E-005  0.1309083E+03  0.7546771E-02  0.1228926E+00
         21   -1    0    0  501  502  0.00000000000E+00  0.00000000000E+00  0.61796386560E+02  0.61796386560E+02  0.00000000000E+00 0. -1.
          3   -1    0    0  502    0 -0.00000000000E+00 -0.00000000000E+00 -0.54941715730E+03  0.54941715730E+03  0.00000000000E+00 0. -1.
        -24    2    1    2    0    0  0.86396666213E+02 -0.31095203275E+02 -0.24844186745E+03  0.27616593048E+03  0.78185446573E+02 0.  0.
         23    2    1    2    0    0 -0.60927287476E+02  0.10821895737E+03 -0.14728283820E+03  0.21240321083E+03  0.89439434521E+02 0.  0.
         11    1    3    3    0    0  0.82792064424E+02 -0.60010210289E+01 -0.23081682220E+03  0.24528950976E+03  0.00000000000E+00 0. -1.
        -12    1    3    3    0    0  0.36046017885E+01 -0.25094182246E+02 -0.17625045247E+02  0.30876420722E+02  0.00000000000E+00 0.  1.
        -13    1    4    4    0    0  0.17994421914E+02  0.11721886872E+02 -0.49532800106E+02  0.53987962901E+02  0.00000000000E+00 0.  1.
         13    1    4    4    0    0 -0.78921709391E+02  0.96497070497E+02 -0.97750038096E+02  0.15841524793E+03  0.00000000000E+00 0. -1.
          4    1    1    2  501    0 -0.25469378737E+02 -0.77123754094E+02 -0.91896065086E+02  0.12264440255E+03  0.00000000000E+00 0. -1.
<scales pt_clust_5="13000.00000" pt_clust_6="13000.00000" pt_clust_7="13000.00000" pt_clust_8="13000.00000" pt_clust_9="81.22046"></scales>
<clustering>
<clus scale="   78.185">  5  6 -1 -1</clus>
<clus scale="   81.220">  1  9  2 -1</clus>
<clus scale="   89.439">  7  8 -1 -1</clus>
<clus scale="  123.493">  2  5  1 -1</clus>
<clus scale="   81.220">  1  5  2 -1</clus>
</clustering>
</event>
<event>
 9    1  0.4067873E-005  0.1465252E+03  0.7546771E-02  0.1206707E+00
         21   -1    0    0  501  502  0.00000000000E+00  0.00000000000E+00  0.69377861780E+02  0.69377861780E+02  0.00000000000E+00 0.  1.
         -4   -1    0    0    0  501 -0.00000000000E+00 -0.00000000000E+00 -0.34668638334E+03  0.34668638334E+03  0.00000000000E+00 0.  1.
        -24    2    1    2    0    0  0.12059526441E+03 -0.89343457342E+01 -0.13665891536E+03  0.19967807996E+03  0.81071796195E+02 0.  0.
         23    2    1    2    0    0 -0.10634053559E+03  0.24539624089E+02 -0.11241669270E+03  0.18111834114E+03  0.90861642290E+02 0.  0.
         11    1    3    3    0    0  0.62664503694E+02 -0.39729497807E+02 -0.10001098537E+03  0.12452899347E+03  0.00000000000E+00 0. -1.
        -12    1    3    3    0    0  0.57930760715E+02  0.30795152073E+02 -0.36647929985E+02  0.75149086491E+02  0.00000000000E+00 0.  1.
        -11    1    4    4    0    0 -0.31952045554E+02  0.24578882016E+02 -0.97146918725E+02  0.10517879289E+03  0.00000000000E+00 0. -1.
         11    1    4    4    0    0 -0.74388490036E+02 -0.39257926359E-01 -0.15269773975E+02  0.75939548249E+02  0.00000000000E+00 0.  1.
         -3    1    1    2    0  502 -0.14254728819E+02 -0.15605278355E+02 -0.28232913505E+02  0.35267824022E+02  0.00000000000E+00 0.  1.
<scales pt_clust_5="13000.00000" pt_clust_6="13000.00000" pt_clust_7="13000.00000" pt_clust_8="13000.00000" pt_clust_9="21.13581"></scales>
<clustering>
<clus scale="   21.136">  1  9  2 -1</clus>
<clus scale="   81.072">  5  6 -1 -1</clus>
<clus scale="   90.862">  7  8 -1 -1</clus>
<clus scale="  140.664">  2  5  1 -1</clus>
<clus scale="   21.136">  1  5  2 -1</clus>
</clustering>
</event>
<event>
 9    1  0.4067873E-005  0.9960731E+02  0.7546771E-02  0.1287878E+00
         21   -1    0    0  501  502  0.00000000000E+00  0.00000000000E+00  0.31150850869E+03  0.31150850869E+03  0.00000000000E+00 0.  1.
         -2   -1    0    0    0  501 -0.00000000000E+00 -0.00000000000E+00 -0.61910352712E+02  0.61910352712E+02  0.00000000000E+00 0.  1.
         23    2    1    2    0    0  0.14405631187E+02  0.68460461107E+02  0.68428419302E+02  0.13506318385E+03  0.93087368200E+02 0.  0.
        -24    2    1    2    0    0  0.14081492399E+02 -0.84517267384E+00  0.91061306882E+02  0.12215381629E+03  0.80189715544E+02 0.  0.
         13    1    4    4    0    0 -0.15105570962E+02  0.20648889095E+02  0.80397765808E+02  0.84370348120E+02  0.00000000000E+00 0. -1.
        -14    1    4    4    0    0  0.29187063361E+02 -0.21494061769E+02  0.10663541074E+02  0.37783468174E+02  0.00000000000E+00 0.  1.
        -11    1    3    3    0    0 -0.35876903189E+02  0.24381917904E+02  0.63840751367E+01  0.43845028436E+02  0.00000000000E+00 0. -1.
         11    1    3    3    0    0  0.50282534376E+02  0.44078543203E+02  0.62044344165E+02  0.91218155414E+02  0.00000000000E+00 0.  1.
         -1    1    1    2    0  502 -0.28487123586E+02 -0.67615288434E+02  0.90108429798E+02  0.11620186126E+03  0.00000000000E+00 0.  1.
<scales pt_clust_5="13000.00000" pt_clust_6="13000.00000" pt_clust_7="13000.00000" pt_clust_8="13000.00000" pt_clust_9="73.37127"></scales>
<clustering>
<clus scale="   73.371">  1  9  2 -1</clus>
<clus scale="   80.190">  5  6 -1 -1</clus>
<clus scale="   87.674">  1  5  2 -1</clus>
<clus scale="   93.087">  7  8 -1 -1</clus>
<clus scale="   73.371">  1  5  2 -1</clus>
</clustering>
</event>
<event>
 9    1  0.4067873E-005  0.1112754E+03  0.7546771E-02  0.1263198E+00
          1   -1    0    0  502    0 -0.00000000000E+00  0.00000000000E+00  0.52645440860E+03  0.52645440860E+03  0.00000000000E+00 0. -1.
         21   -1    0    0  501  502  0.00000000000E+00 -0.00000000000E+00 -0.38239051777E+02  0.38239051777E+02  0.00000000000E+00 0. -1.
         23    2    1    2    0    0 -0.65186170958E+01  0.42324148847E+02  0.12641205667E+03  0.16184060080E+03  0.91534398183E+02 0.  0.
        -24    2    1    2    0    0 -0.31246111008E+02 -0.80133093680E+02  0.18961640150E+03  0.22256414926E+03  0.78630710700E+02 0.  0.
         11    1    4    4    0    0 -0.47726919191E+02 -0.22303618943E+02  0.61097948281E+02  0.80673846552E+02  0.00000000000E+00 0. -1.
        -12    1    4    4    0    0  0.16480808183E+02 -0.57829474736E+02  0.12851845322E+03  0.14189030271E+03  0.00000000000E+00 0.  1.
        -13    1    3    3    0    0 -0.30775407399E+02  0.52003045389E+02  0.12088347495E+03  0.13514531788E+03  0.00000000000E+00 0.  1.
         13    1    3    3    0    0  0.24256790303E+02 -0.96788965428E+01  0.55285817225E+01  0.26695282916E+02  0.00000000000E+00 0. -1.
          2    1    1    2  501    0  0.37764728104E+02  0.37808944833E+02  0.17218689866E+03  0.18028871032E+03  0.00000000000E+00 0. -1.
<scales pt_clust_5="13000.00000" pt_clust_6="13000.00000" pt_clust_7="13000.00000" pt_clust_8="13000.00000" pt_clust_9="53.43869"></scales>
<clustering>
<clus scale="   53.439">  2  9  1 -1</clus>
<clus scale="   78.631">  5  6 -1 -1</clus>
<clus scale="   91.534">  7  8 -1 -1</clus>
<clus scale="  100.928">  2  5  1 -1</clus>
<clus scale="   53.439">  2  5  1 -1</clus>
</clustering>
</event>
<event>
 9    1  0.4067873E-005  0.2105260E+03  0.7546771E-02  0.1152451E+00
          1   -1    0    0  502    0 -0.00000000000E+00  0.00000000000E+00  0.15963851495E+04  0.15963851495E+04  0.00000000000E+00 0. -1.
         21   -1    0    0  501  502  0.00000000000E+00 -0.00000000000E+00 -0.56061739720E+02  0.56061739720E+02  0.00000000000E+00 0. -1.
         23    2    1    2    0    0  0.13397314659E+03 -0.48836778426E+01  0.35240787341E+03  0.38736978218E+03  0.88833465460E+02 0.  0.
        -24    2    1    2    0    0  0.69050673466E+02  0.12775536227E+03  0.74142932839E+03  0.75944279624E+03  0.77113446751E+02 0.  0.
         11    1    4    4    0    0  0.59908800229E+02  0.74222126612E+02  0.30289392354E+03  0.31755742369E+03  0.00000000000E+00 0. -1.
        -12    1    4    4    0    0  0.91418732367E+01  0.53533235654E+02  0.43853540485E+03  0.44188537254E+03  0.00000000000E+00 0.  1.
        -11    1    3    3    0    0  0.94550923140E+02  0.81388958386E+01  0.12905780520E+03  0.16019374449E+03  0.00000000000E+00 0. -1.
         11    1    3    3    0    0  0.39422223448E+02 -0.13022573681E+02  0.22335006822E+03  0.22717603769E+03  0.00000000000E+00 0.  1.
          2    1    1    2  501    0 -0.20302382005E+03 -0.12287168442E+03  0.44648620795E+03  0.50563431077E+03  0.00000000000E+00 0. -1.
<scales pt_clust_5="13000.00000" pt_clust_6="13000.00000" pt_clust_7="13000.00000" pt_clust_8="13000.00000" pt_clust_9="195.89461"></scales>
<clustering>
<clus scale="   77.113">  5  6 -1 -1</clus>
<clus scale="   88.833">  7  8 -1 -1</clus>
<clus scale="  160.823">  1  7  2 -1</clus>
<clus scale="  195.895">  2  9  1 -1</clus>
<clus scale="  195.895">  2  5  1 -1</clus>
</clustering>
</event>
<event>
 9    1  0.4067873E-005  0.1741056E+03  0.7546771E-02  0.1201468E+00
         21   -1    0    0  501  502  0.00000000000E+00  0.00000000000E+00  0.48480071536E+02  0.48480071536E+02  0.00000000000E+00 0.  1.
          1   -1    0    0  502    0 -0.00000000000E+00 -0.00000000000E+00 -0.97894013363E+03  0.97894013363E+03  0.00000000000E+00 0. -1.
        -24    2    1    2    0    0  0.41847858972E+01 -0.53230995947E+02 -0.15560481793E+03  0.18173009980E+03  0.77213460289E+02 0.  0.
         23    2    1    2    0    0 -0.14325745179E+03  0.65691383313E+02 -0.30198541000E+03  0.35263600315E+03  0.91208045296E+02 0.  0.
         13    1    3    3    0    0 -0.35323011933E+02 -0.32083819684E+02 -0.64846708456E+02  0.80512000690E+02  0.00000000000E+00 0. -1.
        -14    1    3    3    0    0  0.39507797830E+02 -0.21147176262E+02 -0.90758109473E+02  0.10121809911E+03  0.00000000000E+00 0.  1.
        -13    1    4    4    0    0 -0.12965565488E+03  0.45280597418E+02 -0.17074249242E+03  0.21912078875E+03  0.00000000000E+00 0.  1.
         13    1    4    4    0    0 -0.13601796908E+02  0.20410785895E+02 -0.13124291758E+03  0.13351521439E+03  0.00000000000E+00 0. -1.
          2    1    1    2  501    0  0.13907266589E+03 -0.12460387366E+02 -0.47286983416E+03  0.49305410221E+03  0.00000000000E+00 0. -1.
<scales pt_clust_5="13000.00000" pt_clust_6="13000.00000" pt_clust_7="13000.00000" pt_clust_8="13000.00000" pt_clust_9="148.30332"></scales>
<clustering>
<clus scale="   77.213">  5  6 -1 -1</clus>
<clus scale="   91.208">  7  8 -1 -1</clus>
<clus scale="   93.877">  2  5  1 -1</clus>
<clus scale="  148.303">  1  9  2 -1</clus>
<clus scale="  148.303">  1  5  2 -1</clus>
</clustering>
</event>
<event>
 9    1  0.4067873E-005  0.1108540E+03  0.7546771E-02  0.1260794E+00
         21   -1    0    0  501  502  0.00000000000E+00  0.00000000000E+00  0.16255798584E+03  0.16255798584E+03  0.00000000000E+00 0. -1.
          1   -1    0    0  502    0 -0.00000000000E+00 -0.00000000000E+00 -0.17056452264E+03  0.17056452264E+03  0.00000000000E+00 0. -1.
         23    2    1    2    0    0 -0.65174719384E+02  0.38213384358E+02 -0.82737850093E+02  0.14455590719E+03  0.91339212136E+02 0.  0.
        -24    2    1    2    0    0 -0.40287411756E+01 -0.51578563744E+02  0.56997772727E+02  0.11588768114E+03  0.86629264973E+02 0.  0.
         11    1    4    4    0    0 -0.42309408452E+02 -0.17938814297E+02  0.43245395171E+02  0.63103496777E+02  0.00000000000E+00 0. -1.
        -12    1    4    4    0    0  0.38280667276E+02 -0.33639749447E+02  0.13752377556E+02  0.52784184359E+02  0.00000000000E+00 0.  1.
        -13    1    3    3    0    0  0.18108089101E+02  0.85051843831E+01 -0.43376709413E+02  0.47767980613E+02  0.00000000000E+00 0.  1.
         13    1    3    3    0    0 -0.83282808485E+02  0.29708199975E+02 -0.39361140680E+02  0.96787926574E+02  0.00000000000E+00 0. -1.
          2    1    1    2  501    0  0.69203460559E+02  0.13365179386E+02  0.17733540570E+02  0.72678920153E+02  0.00000000000E+00 0. -1.
<scales pt_clust_5="13000.00000" pt_clust_6="13000.00000" pt_clust_7="13000.00000" pt_clust_8="13000.00000" pt_clust_9="70.48225"></scales>
<clustering>
<clus scale="   70.482">  1  9  2 -1</clus>
<clus scale="   86.629">  5  6 -1 -1</clus>
<clus scale="   91.339">  7  8 -1 -1</clus>
<clus scale="  107.006">  1  5  2 -1</clus>
<clus scale="   70.482">  1  5  2 -1</clus>
</clustering>
</event>
<event>
 9    1  0.4067873E-005  0.1031952E+03  0.7546771E-02  0.1276569E+00
         -4   -1    0    0    0  501 -0.00000000000E+00  0.00000000000E+00  0.16639420245E+03  0.16639420245E+03  0.00000000000E+00 0.  1.
         21   -1    0    0  501  502  0.00000000000E+00 -0.00000000000E+00 -0.12591063517E+03  0.12591063517E+03  0.00000000000E+00 0.  1.
        -24    2    1    2    0    0 -0.57050237994E+02  0.24780329268E+02  0.16023164206E+02  0.10672648036E+03  0.85235001296E+02 0.  0.
         23    2    1    2    0    0 -0.33712224639E+01 -0.50792314012E+02 -0.19458301306E+02  0.10648203100E+03  0.91479905617E+02 0.  0.
         11    1    3    3    0    0  0.20540711988E+02 -0.68701918367E+01  0.47455800091E+01  0.22172977122E+02  0.00000000000E+00 0. -1.
        -12    1    3    3    0    0 -0.77590949982E+02  0.31650521104E+02  0.11277584197E+02  0.84553503242E+02  0.00000000000E+00 0.  1.
        -11    1    4    4    0    0  0.33937447273E+02  0.59343367525E+01  0.39184389262E+01  0.34674498464E+02  0.00000000000E+00 0. -1.
         11    1    4    4    0    0 -0.37308669737E+02 -0.56726650764E+02 -0.23376740232E+02  0.71807532532E+02  0.00000000000E+00 0.  1.
         -3    1    1    2    0  502  0.60421460458E+02  0.26011984744E+02  0.43918704377E+02  0.79096326263E+02  0.00000000000E+00 0.  1.
<scales pt_clust_5="13000.00000" pt_clust_6="13000.00000" pt_clust_7="13000.00000" pt_clust_8="13000.00000" pt_clust_9="65.78283"></scales>
<clustering>
<clus scale="   65.783">  2  9  1 -1</clus>
<clus scale="   85.235">  5  6 -1 -1</clus>
<clus scale="   91.480">  7  8 -1 -1</clus>
<clus scale="   97.702">  1  5  2 -1</clus>
<clus scale="   65.783">  2  5  1 -1</clus>
</clustering>
</event>
<event>
 9    1  0.4067873E-005  0.1046639E+03  0.7546771E-02  0.1278834E+00
          3   -1    0    0  502    0 -0.00000000000E+00  0.00000000000E+00  0.67785040476E+03  0.67785040476E+03  0.00000000000E+00 0. -1.
         21   -1    0    0  501  502  0.00000000000E+00 -0.00000000000E+00 -0.20975140345E+02  0.20975140345E+02  0.00000000000E+00 0. -1.
        -24    2    1    2    0    0  0.22695191351E+02  0.24370672519E+02  0.33320554260E+03  0.34434279088E+03  0.80231057729E+02 0.  0.
         23    2    1    2    0    0 -0.52452221535E+02 -0.25370417643E+02  0.23028361600E+03  0.25646517879E+03  0.96689971014E+02 0.  0.
         11    1    3    3    0    0  0.51922743885E+02  0.60586082364E+01  0.20885669530E+03  0.21529932011E+03  0.00000000000E+00 0. -1.
        -12    1    3    3    0    0 -0.29227552534E+02  0.18312064283E+02  0.12434884730E+03  0.12904347078E+03  0.00000000000E+00 0.  1.
        -11    1    4    4    0    0 -0.53113326593E+02 -0.55693500737E+02  0.12402229036E+03  0.14595999449E+03  0.00000000000E+00 0. -1.
         11    1    4    4    0    0  0.66110505837E+00  0.30323083094E+02  0.10626132564E+03  0.11050518429E+03  0.00000000000E+00 0.  1.
          4    1    1    2  501    0  0.29757030184E+02  0.99974512358E+00  0.93386105809E+02  0.98017575433E+02  0.00000000000E+00 0. -1.
<scales pt_clust_5="13000.00000" pt_clust_6="13000.00000" pt_clust_7="13000.00000" pt_clust_8="13000.00000" pt_clust_9="29.77383"></scales>
<clustering>
<clus scale="   29.774">  2  9  1 -1</clus>
<clus scale="   80.231">  5  6 -1 -1</clus>
<clus scale="   89.681">  1  5  2 -1</clus>
<clus scale="   96.690">  7  8 -1 -1</clus>
<clus scale="   29.774">  2  5  1 -1</clus>
</clustering>
</event>
<event>
 9    1  0.4067873E-005  0.1462004E+03  0.7546771E-02  0.1207326E+00
          1   -1    0    0  502    0 -0.00000000000E+00  0.00000000000E+00  0.10923406829E+03  0.10923406829E+03  0.00000000000E+00 0. -1.
         21   -1    0    0  501  502  0.00000000000E+00 -0.00000000000E+00 -0.30371908449E+03  0.30371908449E+03  0.00000000000E+00 0.  1.
         23    2    1    2    0    0  0.58739812732E+02  0.11765548207E+03 -0.31356553859E+02  0.16306139348E+03  0.91173496771E+02 0.  0.
        -24    2    1    2    0    0 -0.60046100504E+02 -0.76808959896E+02 -0.61881833144E+02  0.14070831420E+03  0.80400981987E+02 0.  0.
         13    1    4    4    0    0 -0.24534518201E+02 -0.85773520012E+02 -0.49622601838E+02  0.10208546386E+03  0.00000000000E+00 0. -1.
        -14    1    4    4    0    0 -0.35511582303E+02  0.89645601164E+01 -0.12259231306E+02  0.38622850334E+02  0.00000000000E+00 0.  1.
        -13    1    3    3    0    0  0.20235357540E+02 -0.72067354378E+01  0.12958921605E+02  0.25086657402E+02  0.00000000000E+00 0. -1.
         13    1    3    3    0    0  0.38504455192E+02  0.12486221751E+03 -0.44315475464E+02  0.13797473608E+03  0.00000000000E+00 0.  1.
          2    1    1    2  501    0  0.13062877720E+01 -0.40846522176E+02 -0.10124662919E+03  0.10918344510E+03  0.00000000000E+00 0. -1.
<scales pt_clust_5="13000.00000" pt_clust_6="13000.00000" pt_clust_7="13000.00000" pt_clust_8="13000.00000" pt_clust_9="40.86740"></scales>
<clustering>
<clus scale="   40.867">  2  9  1 -1</clus>
<clus scale="   80.401">  5  6 -1 -1</clus>
<clus scale="   91.173">  7  8 -1 -1</clus>
<clus scale="  139.736">  2  5  1 -1</clus>
<clus scale="   40.867">  2  5  1 -1</clus>
</clustering>
</event>
<event>
 9    1  0.4067873E-005  0.1718916E+03  0.7546771E-02  0.1177583E+00
          1   -1    0    0  502    0 -0.00000000000E+00  0.00000000000E+00  0.45875952710E+03  0.45875952710E+03  0.00000000000E+00 0. -1.
         21   -1    0    0  501  502  0.00000000000E+00 -0.00000000000E+00 -0.11107842427E+03  0.11107842427E+03  0.00000000000E+00 0. -1.
         23    2    1    2    0    0  0.10874228840E+03 -0.11221889445E+03  0.34088483717E+03  0.38621336311E+03  0.92413873811E+02 0.  0.
        -24    2    1    2    0    0 -0.83155325651E+02  0.73494659188E+02 -0.29641661189E+00  0.13667179068E+03  0.79767270169E+02 0.  0.
         11    1    4    4    0    0 -0.21553701382E+02  0.57353155923E+02 -0.27829103767E+02  0.67293428758E+02  0.00000000000E+00 0. -1.
        -12    1    4    4    0    0 -0.61601624270E+02  0.16141503265E+02  0.27532687155E+02  0.69378361917E+02  0.00000000000E+00 0.  1.
        -13    1    3    3    0    0  0.48533114578E+02 -0.12896745205E+00  0.55364096997E+02  0.73625152492E+02  0.00000000000E+00 0.  1.
         13    1    3    3    0    0  0.60209173820E+02 -0.11208992700E+03  0.28552074018E+03  0.31258821062E+03  0.00000000000E+00 0. -1.
          2    1    1    2  501    0 -0.25586962747E+02  0.38724235261E+02  0.70926822749E+01  0.46952797584E+02  0.00000000000E+00 0. -1.
<scales pt_clust_5="13000.00000" pt_clust_6="13000.00000" pt_clust_7="13000.00000" pt_clust_8="13000.00000" pt_clust_9="46.41400"></scales>
<clustering>
<clus scale="   46.414">  2  9  1 -1</clus>
<clus scale="   79.767">  5  6 -1 -1</clus>
<clus scale="   92.414">  7  8 -1 -1</clus>
<clus scale="  165.436">  2  5  1 -1</clus>
<clus scale="   46.414">  2  5  1 -1</clus>
</clustering>
</event>
<event>
 9    1  0.4067873E-005  0.2715264E+03  0.7546771E-02  0.1129022E+00
         -2   -1    0    0    0  501 -0.00000000000E+00  0.00000000000E+00  0.10024761897E+04  0.10024761897E+04  0.00000000000E+00 0.  1.
         21   -1    0    0  501  502  0.00000000000E+00 -0.00000000000E+00 -0.31961998300E+03  0.31961998300E+03  0.00000000000E+00 0.  1.
         23    2    1    2    0    0  0.76907991491E+02  0.55122255884E+02  0.96257020758E+02  0.16322087656E+03  0.91773298145E+02 0.  0.
        -24    2    1    2    0    0  0.12587444317E+03  0.11813236083E+03  0.79690349134E+03  0.81921991366E+03  0.79160989853E+02 0.  0.
         13    1    4    4    0    0  0.22467310722E+02 -0.72408558015E+01  0.57300620702E+02  0.61972342030E+02  0.00000000000E+00 0. -1.
        -14    1    4    4    0    0  0.10340713245E+03  0.12537321663E+03  0.73960287063E+03  0.75724757163E+03  0.00000000000E+00 0.  1.
        -11    1    3    3    0    0  0.74770844311E+02  0.27731651306E+01  0.77095641883E+02  0.10743420126E+03  0.00000000000E+00 0.  1.
         11    1    3    3    0    0  0.21371471807E+01  0.52349090753E+02  0.19161378874E+02  0.55786675301E+02  0.00000000000E+00 0. -1.
         -1    1    1    2    0  502 -0.20278243466E+03 -0.17325461671E+03 -0.21030430535E+03  0.33965538251E+03  0.00000000000E+00 0.  1.
<scales pt_clust_5="13000.00000" pt_clust_6="13000.00000" pt_clust_7="13000.00000" pt_clust_8="13000.00000" pt_clust_9="259.73085"></scales>
<clustering>
<clus scale="   79.161">  5  6 -1 -1</clus>
<clus scale="   91.773">  7  8 -1 -1</clus>
<clus scale="  131.817">  1  7  2 -1</clus>
<clus scale="  259.731">  2  9  1 -1</clus>
<clus scale="  259.731">  2  5  1 -1</clus>
</clustering>
</event>
<event>
 9    1  0.4067873E-005  0.9342546E+02  0.7546771E-02  0.1303216E+00
         21   -1    0    0  501  502  0.00000000000E+00  0.00000000000E+00  0.26810151446E+03  0.26810151446E+03  0.00000000000E+00 0.  1.
          3   -1    0    0  502    0 -0.00000000000E+00 -0.00000000000E+00 -0.38669765950E+02  0.38669765950E+02  0.00000000000E+00 0. -1.
         23    2    1    2    0    0 -0.28775868979E+00  0.10822238530E+01  0.77078098443E+02  0.12080003125E+03  0.93007313035E+02 0.  0.
        -24    2    1    2    0    0  0.18059510249E+02  0.12825612771E+02  0.13165463910E+03  0.15534916353E+03  0.79434100736E+02 0.  0.
         11    1    4    4    0    0 -0.27344085760E+02  0.11015606992E+02  0.22407671023E+02  0.37028993290E+02  0.00000000000E+00 0. -1.
        -12    1    4    4    0    0  0.45403596009E+02  0.18100057796E+01  0.10924696808E+03  0.11832017024E+03  0.00000000000E+00 0.  1.
        -11    1    3    3    0    0 -0.21479258618E+02  0.39701439001E+02  0.56109249390E+02  0.72012573046E+02  0.00000000000E+00 0. -1.
         11    1    3    3    0    0  0.21191499928E+02 -0.38619215148E+02  0.20968849053E+02  0.48787458209E+02  0.00000000000E+00 0.  1.
          4    1    1    2  501    0 -0.17771751560E+02 -0.13907836624E+02  0.20699010963E+02  0.30622085623E+02  0.00000000000E+00 0. -1.
<scales pt_clust_5="13000.00000" pt_clust_6="13000.00000" pt_clust_7="13000.00000" pt_clust_8="13000.00000" pt_clust_9="22.56687"></scales>
<clustering>
<clus scale="   22.567">  1  9  2 -1</clus>
<clus scale="   79.434">  5  6 -1 -1</clus>
<clus scale="   79.923">  1  5  2 -1</clus>
<clus scale="   93.007">  7  8 -1 -1</clus>
<clus scale="   22.567">  1  5  2 -1</clus>
</clustering>
</event>
<event>
 9    1  0.4067873E-005  0.2443634E+03  0.7546771E-02  0.1116920E+00
         -2   -1    0    0    0  501 -0.00000000000E+00  0.00000000000E+00  0.73457820422E+03  0.73457820422E+03  0.00000000000E+00 0.  1.
         21   -1    0    0  501  502  0.00000000000E+00 -0.00000000000E+00 -0.85897976903E+02  0.85897976903E+02  0.00000000000E+00 0.  1.
        -24    2    1    2    0    0 -0.84014037433E+02  0.12404569652E+02  0.45045122934E+03  0.46486325113E+03  0.77325936178E+02 0.  0.
         23    2    1    2    0    0 -0.61126829819E+02  0.91195848656E+01  0.17555056716E+03  0.20714248917E+03  0.90941481379E+02 0.  0.
         13    1    3    3    0    0 -0.33904562105E+02 -0.29728792085E+02  0.12480568098E+03  0.13270184028E+03  0.00000000000E+00 0. -1.
        -14    1    3    3    0    0 -0.50109475328E+02  0.42133361738E+02  0.32564554836E+03  0.33216141085E+03  0.00000000000E+00 0.  1.
        -13    1    4    4    0    0 -0.45476487638E+02 -0.86771803551E+01  0.17742815504E+03  0.18336890301E+03  0.00000000000E+00 0.  1.
         13    1    4    4    0    0 -0.15650342181E+02  0.17796765221E+02 -0.18775878829E+01  0.23773586161E+02  0.00000000000E+00 0. -1.
         -1    1    1    2    0  502  0.14514086725E+03 -0.21524154518E+02  0.22678430815E+02  0.14847044082E+03  0.00000000000E+00 0.  1.
<scales pt_clust_5="13000.00000" pt_clust_6="13000.00000" pt_clust_7="13000.00000" pt_clust_8="13000.00000" pt_clust_9="146.72819"></scales>
<clustering>
<clus scale="   77.326">  5  6 -1 -1</clus>
<clus scale="   90.941">  7  8 -1 -1</clus>
<clus scale="  109.081">  5  7 -1 -1</clus>
<clus scale="  146.728">  2  9  1 -1</clus>
<clus scale="  146.728">  2  5  1 -1</clus>
</clustering>
</event>
<event>
 9    1  0.4067873E-005  0.1297686E+03  0.7546771E-02  0.1243697E+00
         -4   -1    0    0    0  501 -0.00000000000E+00  0.00000000000E+00  0.41386627403E+03  0.41386627403E+03  0.00000000000E+00 0.  1.
         21   -1    0    0  501  502  0.00000000000E+00 -0.00000000000E+00 -0.69990722184E+02  0.69990722184E+02  0.00000000000E+00 0. -1.
        -24    2    1    2    0    0  0.24254530779E+00  0.47423292743E+02  0.37496582641E+02  0.10096708307E+03  0.80866127832E+02 0.  0.
         23    2    1    2    0    0  0.43156823469E+02  0.46525415507E+02  0.22324845511E+03  0.25014750332E+03  0.93310101332E+02 0.  0.
         13    1    3    3    0    0 -0.16212236687E+02  0.64546664561E+02  0.14927083279E+02  0.68205031630E+02  0.00000000000E+00 0. -1.
        -14    1    3    3    0    0  0.16454781995E+02 -0.17123371819E+02  0.22569499362E+02  0.32762051437E+02  0.00000000000E+00 0.  1.
        -11    1    4    4    0    0  0.17462938684E+02  0.66615081057E+02  0.19567070146E+03  0.20743564462E+03  0.00000000000E+00 0.  1.
         11    1    4    4    0    0  0.25693884784E+02 -0.20089665550E+02  0.27577753654E+02  0.42711858702E+02  0.00000000000E+00 0. -1.
         -3    1    1    2    0  502 -0.43399368776E+02 -0.93948708250E+02  0.83130514098E+02  0.13274240983E+03  0.00000000000E+00 0.  1.
<scales pt_clust_5="13000.00000" pt_clust_6="13000.00000" pt_clust_7="13000.00000" pt_clust_8="13000.00000" pt_clust_9="90.18381"></scales>
<clustering>
<clus scale="   80.866">  5  6 -1 -1</clus>
<clus scale="   93.310">  7  8 -1 -1</clus>
<clus scale="   93.746">  1  5  2 -1</clus>
<clus scale="   90.184">  2  9  1 -1</clus>
<clus scale="   90.184">  2  5  1 -1</clus>
</clustering>
</event>
<event>
 9    1  0.4067873E-005  0.1265380E+03  0.7546771E-02  0.1240826E+00
          3   -1    0    0  502    0 -0.00000000000E+00  0.00000000000E+00  0.31532295096E+03  0.31532295096E+03  0.00000000000E+00 0. -1.
         21   -1    0    0  501  502  0.00000000000E+00 -0.00000000000E+00 -0.14972421242E+03  0.14972421242E+03  0.00000000000E+00 0. -1.
        -24    2    1    2    0    0  0.43197732099E+02  0.51900391205E+02  0.12917084344E+02  0.10793406627E+03  0.83205870757E+02 0.  0.
         23    2    1    2    0    0 -0.98773582032E+01  0.79050244007E+02 -0.35183942934E+02  0.12570048128E+03  0.90643245033E+02 0.  0.
         13    1    3    3    0    0  0.65677892507E+02  0.24686092823E+02 -0.51637143510E+00  0.70165913252E+02  0.00000000000E+00 0. -1.
        -14    1    3    3    0    0 -0.22480160408E+02  0.27214298382E+02  0.13433455779E+02  0.37768153020E+02  0.00000000000E+00 0.  1.
        -11    1    4    4    0    0  0.40041922267E+02  0.34352460763E+02 -0.23186814531E+02  0.57628772912E+02  0.00000000000E+00 0.  1.
         11    1    4    4    0    0 -0.49919280470E+02  0.44697783245E+02 -0.11997128404E+02  0.68071708364E+02  0.00000000000E+00 0. -1.
          4    1    1    2  501    0 -0.33320373896E+02 -0.13095063521E+03  0.18786559714E+03  0.23141261583E+03  0.00000000000E+00 0. -1.
<scales pt_clust_5="13000.00000" pt_clust_6="13000.00000" pt_clust_7="13000.00000" pt_clust_8="13000.00000" pt_clust_9="88.29305"></scales>
<clustering>
<clus scale="   83.206">  5  6 -1 -1</clus>
<clus scale="   90.643">  7  8 -1 -1</clus>
<clus scale="  107.158">  1  5  2 -1</clus>
<clus scale="   88.293">  2  9  1 -1</clus>
<clus scale="   88.293">  2  5  1 -1</clus>
</clustering>
</event>
<event>
 9    1  0.4067873E-005  0.8905451E+02  0.7546771E-02  0.1307322E+00
          1   -1    0    0  502    0 -0.00000000000E+00  0.00000000000E+00  0.46624233348E+03  0.46624233348E+03  0.00000000000E+00 0. -1.
         21   -1    0    0  501  502  0.00000000000E+00 -0.00000000000E+00 -0.56670839221E+02  0.56670839221E+02  0.00000000000E+00 0.  1.
        -24    2    1    2    0    0  0.21271601296E+02  0.14486069711E+02  0.35041544859E+03  0.36069706229E+03  0.81541749417E+02 0.  0.
         23    2    1    2    0    0 -0.39048032333E+02  0.16639484437E+02  0.76789606142E+02  0.12226934489E+03  0.85155903001E+02 0.  0.
         11    1    3    3    0    0 -0.22566903937E+02  0.19695695881E+02  0.61257406666E+02  0.68188382156E+02  0.00000000000E+00 0. -1.
        -12    1    3    3    0    0  0.43838505232E+02 -0.52096261699E+01  0.28915804192E+03  0.29250868013E+03  0.00000000000E+00 0.  1.
        -13    1    4    4    0    0 -0.31996737096E+02 -0.31510936394E+02  0.47976633225E+02  0.65715200927E+02  0.00000000000E+00 0. -1.
         13    1    4    4    0    0 -0.70512952369E+01  0.48150420831E+02  0.28812972917E+02  0.56554143959E+02  0.00000000000E+00 0.  1.
          2    1    1    2  501    0  0.17776431037E+02 -0.31125554148E+02 -0.17633560468E+02  0.39946765529E+02  0.00000000000E+00 0. -1.
<scales pt_clust_5="13000.00000" pt_clust_6="13000.00000" pt_clust_7="13000.00000" pt_clust_8="13000.00000" pt_clust_9="35.84413"></scales>
<clustering>
<clus scale="   35.844">  2  9  1 -1</clus>
<clus scale="   81.542">  5  6 -1 -1</clus>
<clus scale="   85.156">  7  8 -1 -1</clus>
<clus scale="   85.605">  1  5  2 -1</clus>
<clus scale="   35.844">  2  5  1 -1</clus>
</clustering>
</event>
<event>
 9    1  0.4067873E-005  0.1363305E+03  0.7546771E-02  0.1220518E+00
         21   -1    0    0  501  502  0.00000000000E+00  0.00000000000E+00  0.48004806361E+03  0.48004806361E+03  0.00000000000E+00 0.  1.
         -4   -1    0    0    0  501 -0.00000000000E+00 -0.00000000000E+00 -0.68679128514E+03  0.68679128514E+03  0.00000000000E+00 0.  1.
        -24    2    1    2    0    0 -0.54613405837E+02  0.90227041835E+02 -0.64871166414E+03  0.66217366577E+03  0.80768789037E+02 0.  0.
         23    2    1    2    0    0 -0.14219537323E+02 -0.63706864128E+02  0.84832144421E+02  0.13999099318E+03  0.90223199158E+02 0.  0.
         11    1    3    3    0    0 -0.40648797646E+02  0.58437577792E+02 -0.20314238533E+03  0.21525358061E+03  0.00000000000E+00 0. -1.
        -12    1    3    3    0    0 -0.13964608191E+02  0.31789464043E+02 -0.44556927881E+03  0.44692008516E+03  0.00000000000E+00 0.  1.
        -11    1    4    4    0    0 -0.21217499530E+02 -0.28614291826E+02 -0.11334796018E+02  0.37382316458E+02  0.00000000000E+00 0.  1.
         11    1    4    4    0    0  0.69979622064E+01 -0.35092572303E+02  0.96166940439E+02  0.10260867672E+03  0.00000000000E+00 0. -1.
         -3    1    1    2    0  502  0.68832943160E+02 -0.26520177706E+02  0.35713629818E+03  0.36467468979E+03  0.00000000000E+00 0.  1.
<scales pt_clust_5="13000.00000" pt_clust_6="13000.00000" pt_clust_7="13000.00000" pt_clust_8="13000.00000" pt_clust_9="73.76513"></scales>
<clustering>
<clus scale="   73.765">  1  9  2 -1</clus>
<clus scale="   80.769">  5  6 -1 -1</clus>
<clus scale="   90.223">  7  8 -1 -1</clus>
<clus scale="  130.267">  2  5  1 -1</clus>
<clus scale="   73.765">  1  5  2 -1</clus>
</clustering>
</event>
<event>
 9    1  0.4067873E-005  0.1864079E+03  0.7546771E-02  0.1193118E+00
         21   -1    0    0  501  502  0.00000000000E+00  0.00000000000E+00  0.10097771801E+03  0.10097771801E+03  0.00000000000E+00 0. -1.
          1   -1    0    0  502    0 -0.00000000000E+00 -0.00000000000E+00 -0.62482382662E+03  0.62482382662E+03  0.00000000000E+00 0. -1.
        -24    2    1    2    0    0  0.20621350765E+02 -0.39665557530E+02 -0.26657461021E+03  0.28193063250E+03  0.80151495104E+02 0.  0.
         23    2    1    2    0    0 -0.16950237021E+03  0.38746349177E+02 -0.79275556778E+02  0.21181712930E+03  0.91375868141E+02 0.  0.
         11    1    3    3    0    0 -0.16617161576E+02 -0.49511039258E+02 -0.17382292102E+03  0.18149898330E+03  0.00000000000E+00 0. -1.
        -12    1    3    3    0    0  0.37238512340E+02  0.98454817278E+01 -0.92751689195E+02  0.10043164920E+03  0.00000000000E+00 0.  1.
        -11    1    4    4    0    0 -0.12517577071E+03 -0.47136459615E+01 -0.21661571682E+02  0.12712362376E+03  0.00000000000E+00 0. -1.
         11    1    4    4    0    0 -0.44326599506E+02  0.43459995138E+02 -0.57613985096E+02  0.84693505535E+02  0.00000000000E+00 0.  1.
          2    1    1    2  501    0  0.14888101945E+03  0.91920835339E+00 -0.17799594162E+03  0.23205378284E+03  0.00000000000E+00 0. -1.
<scales pt_clust_5="13000.00000" pt_clust_6="13000.00000" pt_clust_7="13000.00000" pt_clust_8="13000.00000" pt_clust_9="162.47574"></scales>
<clustering>
<clus scale="   80.151">  5  6 -1 -1</clus>
<clus scale="   91.376">  7  8 -1 -1</clus>
<clus scale="   91.776">  2  5  1 -1</clus>
<clus scale="  162.476">  1  9  2 -1</clus>
<clus scale="  162.476">  1  5  2 -1</clus>
</clustering>
</event>
<event>
 9    1  0.4067873E-005  0.1799125E+03  0.7546771E-02  0.1187188E+00
         21   -1    0    0  501  502  0.00000000000E+00  0.00000000000E+00  0.98516740169E+02  0.98516740169E+02  0.00000000000E+00 0.  1.
         -2   -1    0    0    0  501 -0.00000000000E+00 -0.00000000000E+00 -0.66061450782E+03  0.66061450782E+03  0.00000000000E+00 0.  1.
         23    2    1    2    0    0 -0.75433538769E+02  0.34448052424E+01 -0.19571149015E+03  0.22769305392E+03  0.88538432168E+02 0.  0.
        -24    2    1    2    0    0 -0.26043234156E+02 -0.15419494369E+03 -0.29015693018E+03  0.33437461784E+03  0.56222862072E+02 0.  0.
         13    1    4    4    0    0  0.73656708774E+01 -0.30535909382E+02 -0.25912772049E+02  0.40720592144E+02  0.00000000000E+00 0. -1.
        -14    1    4    4    0    0 -0.33408905033E+02 -0.12365903431E+03 -0.26424415813E+03  0.29365402570E+03  0.00000000000E+00 0.  1.
        -11    1    3    3    0    0 -0.25866273287E+02 -0.40701905504E+02 -0.10233095297E+03  0.11312529841E+03  0.00000000000E+00 0. -1.
         11    1    3    3    0    0 -0.49567265481E+02  0.44146710746E+02 -0.93380537187E+02  0.11456775551E+03  0.00000000000E+00 0.  1.
         -1    1    1    2    0  502  0.10147677292E+03  0.15075013845E+03 -0.76229347319E+02  0.19706357623E+03  0.00000000000E+00 0.  1.
<scales pt_clust_5="13000.00000" pt_clust_6="13000.00000" pt_clust_7="13000.00000" pt_clust_8="13000.00000" pt_clust_9="170.90199"></scales>
<clustering>
<clus scale="   56.223">  5  6 -1 -1</clus>
<clus scale="   88.538">  7  8 -1 -1</clus>
<clus scale="  116.366">  2  7  1 -1</clus>
<clus scale="  170.902">  1  9  2 -1</clus>
<clus scale="  170.902">  1  5  2 -1</clus>
</clustering>
</event>
<event>
 9    1  0.4067873E-005  0.1006445E+03  0.7546771E-02  0.1282991E+00
         21   -1    0    0  501  502  0.00000000000E+00  0.00000000000E+00  0.34856071634E+02  0.34856071634E+02  0.00000000000E+00 0.  1.
         -4   -1    0    0    0  501 -0.00000000000E+00 -0.00000000000E+00 -0.64729029882E+03  0.64729029882E+03  0.00000000000E+00 0.  1.
        -24    2    1    2    0    0 -0.43060797730E+02  0.14091719099E+02 -0.14565980532E+03  0.17306912499E+03  0.81751662326E+02 0.  0.
         23    2    1    2    0    0  0.44870279596E+02  0.40963326739E+02 -0.13777769754E+03  0.17550090200E+03  0.90147304645E+02 0.  0.
         11    1    3    3    0    0 -0.45963709627E+01 -0.28932895906E+02 -0.22102675110E+02  0.36698328825E+02  0.00000000000E+00 0. -1.
        -12    1    3    3    0    0 -0.38464426767E+02  0.43024615005E+02 -0.12355713021E+03  0.13637079617E+03  0.00000000000E+00 0.  1.
        -11    1    4    4    0    0  0.22263910863E+02  0.66233391505E+02 -0.65997472783E+02  0.96115608986E+02  0.00000000000E+00 0.  1.
         11    1    4    4    0    0  0.22606368734E+02 -0.25270064765E+02 -0.71780224759E+02  0.79385293015E+02  0.00000000000E+00 0. -1.
         -3    1    1    2    0  502 -0.18094818666E+01 -0.55055045838E+02 -0.32899672433E+03  0.33357634346E+03  0.00000000000E+00 0.  1.
<scales pt_clust_5="13000.00000" pt_clust_6="13000.00000" pt_clust_7="13000.00000" pt_clust_8="13000.00000" pt_clust_9="55.08480"></scales>
<clustering>
<clus scale="   55.085">  1  9  2 -1</clus>
<clus scale="   81.752">  5  6 -1 -1</clus>
<clus scale="   90.147">  7  8 -1 -1</clus>
<clus scale="   93.199">  2  5  1 -1</clus>
<clus scale="   55.085">  1  5  2 -1</clus>
</clustering>
</event>
<event>
 9    1  0.4067873E-005  0.9685870E+02  0.7546771E-02  0.1293370E+00
         -2   -1    0    0    0  501 -0.00000000000E+00  0.00000000000E+00  0.32917004806E+03  0.32917004806E+03  0.00000000000E+00 0.  1.
         21   -1    0    0  501  502  0.00000000000E+00 -0.00000000000E+00 -0.28566395748E+03  0.28566395748E+03  0.00000000000E+00 0. -1.
        -24    2    1    2    0    0  0.39367677936E+01 -0.29982891350E+02  0.29046016938E+03  0.30286791418E+03  0.80295650770E+02 0.  0.
         23    2    1    2    0    0 -0.23585719846E+02  0.56904445688E+02 -0.25478083916E+03  0.27773000539E+03  0.91794758969E+02 0.  0.
         11    1    3    3    0    0 -0.18044931514E+02 -0.15580075542E+02  0.19956069605E+02  0.31090239969E+02  0.00000000000E+00 0. -1.
        -12    1    3    3    0    0  0.21981699308E+02 -0.14402815807E+02  0.27050409977E+03  0.27177767422E+03  0.00000000000E+00 0.  1.
        -11    1    4    4    0    0  0.34547093201E+02  0.15284257566E+02 -0.10900310439E+03  0.11536371590E+03  0.00000000000E+00 0.  1.
         11    1    4    4    0    0 -0.58132813047E+02  0.41620188122E+02 -0.14577773476E+03  0.16236628950E+03  0.00000000000E+00 0. -1.
         -1    1    1    2    0  502  0.19648952053E+02 -0.26921554338E+02  0.78267603566E+01  0.34236085969E+02  0.00000000000E+00 0.  1.
<scales pt_clust_5="13000.00000" pt_clust_6="13000.00000" pt_clust_7="13000.00000" pt_clust_8="13000.00000" pt_clust_9="33.32945"></scales>
<clustering>
<clus scale="   33.329">  2  9  1 -1</clus>
<clus scale="   80.296">  5  6 -1 -1</clus>
<clus scale="   86.039">  1  5  2 -1</clus>
<clus scale="   91.795">  7  8 -1 -1</clus>
<clus scale="   33.329">  2  5  1 -1</clus>
</clustering>
</event>
<event>
 9    1  0.4067873E-005  0.1544075E+03  0.7546771E-02  0.1196666E+00
          1   -1    0    0  502    0 -0.00000000000E+00  0.00000000000E+00  0.36660493804E+03  0.36660493804E+03  0.00000000000E+00 0. -1.
         21   -1    0    0  501  502  0.00000000000E+00 -0.00000000000E+00 -0.50831160208E+03  0.50831160208E+03  0.00000000000E+00 0. -1.
         23    2    1    2    0    0 -0.11281739804E+03 -0.43528962611E+02  0.26385345896E+03  0.30408293542E+03  0.90693152566E+02 0.  0.
        -24    2    1    2    0    0  0.11477026020E+03  0.94903883029E+02 -0.81861263153E+01  0.17014758129E+03  0.81879344869E+02 0.  0.
         11    1    4    4    0    0 -0.86047824243E+01  0.23639089752E+02  0.88201648057E+01  0.26657909747E+02  0.00000000000E+00 0. -1.
        -12    1    4    4    0    0  0.12337504262E+03  0.71264793277E+02 -0.17006291121E+02  0.14348967155E+03  0.00000000000E+00 0.  1.
        -13    1    3    3    0    0  0.78978569612E+01 -0.24790920457E+02  0.26502602691E+02  0.37139653082E+02  0.00000000000E+00 0.  1.
         13    1    3    3    0    0 -0.12071525501E+03 -0.18738042154E+02  0.23735085627E+03  0.26694328234E+03  0.00000000000E+00 0. -1.
          2    1    1    2  501    0 -0.19528621556E+01 -0.51374920418E+02 -0.39737399668E+03  0.40068602341E+03  0.00000000000E+00 0. -1.
<scales pt_clust_5="13000.00000" pt_clust_6="13000.00000" pt_clust_7="13000.00000" pt_clust_8="13000.00000" pt_clust_9="51.41202"></scales>
<clustering>
<clus scale="   51.412">  2  9  1 -1</clus>
<clus scale="   81.879">  5  6 -1 -1</clus>
<clus scale="   90.693">  7  8 -1 -1</clus>
<clus scale="  149.401">  2  5  1 -1</clus>
<clus scale="   51.412">  2  5  1 -1</clus>
</clustering>
</event>
<event>
 9    1  0.4067873E-005  0.1381757E+03  0.7546771E-02  0.1218106E+00
         21   -1    0    0  501  502  0.00000000000E+00  0.00000000000E+00  0.26926604841E+03  0.26926604841E+03  0.00000000000E+00 0.  1.
         -2   -1    0    0    0  501 -0.00000000000E+00 -0.00000000000E+00 -0.15804455680E+03  0.15804455680E+03  0.00000000000E+00 0.  1.
        -24    2    1    2    0    0 -0.70078284794E+02  0.83345356828E+02  0.10756037171E+02  0.13595232267E+03  0.80684119877E+02 0.  0.
         23    2    1    2    0    0  0.12324439013E+03  0.46258297103E+01  0.85951654705E+01  0.15349706821E+03  0.90977442708E+02 0.  0.
         13    1    3    3    0    0 -0.21625449935E+02  0.84211980256E+01  0.36351284218E+02  0.43127630649E+02  0.00000000000E+00 0. -1.
        -14    1    3    3    0    0 -0.48452834859E+02  0.74924158803E+02 -0.25595247047E+02  0.92824692025E+02  0.00000000000E+00 0.  1.
        -11    1    4    4    0    0  0.27773122692E+02 -0.23710420052E+02 -0.29426248762E+02  0.46898128740E+02  0.00000000000E+00 0. -1.
         11    1    4    4    0    0  0.95471267438E+02  0.28336249762E+02  0.38021414232E+02  0.10659893947E+03  0.00000000000E+00 0.  1.
         -1    1    1    2    0  502 -0.53166105336E+02 -0.87971186538E+02  0.91870288977E+02  0.13786121432E+03  0.00000000000E+00 0.  1.
<scales pt_clust_5="13000.00000" pt_clust_6="13000.00000" pt_clust_7="13000.00000" pt_clust_8="13000.00000" pt_clust_9="102.78893"></scales>
<clustering>
<clus scale="   80.684">  5  6 -1 -1</clus>
<clus scale="   90.977">  7  8 -1 -1</clus>
<clus scale="  102.789">  1  9  2 -1</clus>
<clus scale="  131.627">  2  5  1 -1</clus>
<clus scale="  102.789">  1  5  2 -1</clus>
</clustering>
</event>
<event>
 9    1  0.4067873E-005  0.1277421E+03  0.7546771E-02  0.1234119E+00
         -4   -1    0    0    0  501 -0.00000000000E+00  0.00000000000E+00  0.39842640634E+03  0.39842640634E+03  0.00000000000E+00 0.  1.
         21   -1    0    0  501  502  0.00000000000E+00 -0.00000000000E+00 -0.81031987901E+02  0.81031987901E+02  0.00000000000E+00 0. -1.
         23    2    1    2    0    0 -0.57880653724E+02 -0.29157994847E+01  0.53636456142E+02  0.12155343621E+03  0.92410478113E+02 0.  0.
        -24    2    1    2    0    0  0.11750243948E+03 -0.45193403590E+02  0.10818822230E+03  0.18449447173E+03  0.80524851079E+02 0.  0.
         13    1    4    4    0    0  0.59384000486E+02 -0.60305209804E+02  0.39933721142E+02  0.93583545175E+02  0.00000000000E+00 0. -1.
        -14    1    4    4    0    0  0.58118438994E+02  0.15111806213E+02  0.68254501159E+02  0.90910926553E+02  0.00000000000E+00 0.  1.
        -11    1    3    3    0    0 -0.48277181238E+02 -0.39815884652E+02  0.55124879583E+02  0.83395103261E+02  0.00000000000E+00 0.  1.
         11    1    3    3    0    0 -0.96034724862E+01  0.36900085167E+02 -0.14884234415E+01  0.38158332950E+02  0.00000000000E+00 0. -1.
         -3    1    1    2    0  502 -0.59621785757E+02  0.48109203075E+02  0.15556974000E+03  0.17341048631E+03  0.00000000000E+00 0.  1.
<scales pt_clust_5="13000.00000" pt_clust_6="13000.00000" pt_clust_7="13000.00000" pt_clust_8="13000.00000" pt_clust_9="76.61109"></scales>
<clustering>
<clus scale="   76.611">  2  9  1 -1</clus>
<clus scale="   80.525">  5  6 -1 -1</clus>
<clus scale="   92.410">  7  8 -1 -1</clus>
<clus scale="  119.426">  2  5  1 -1</clus>
<clus scale="   76.611">  2  5  1 -1</clus>
</clustering>
</event>
<event>
 9    1  0.4067873E-005  0.1063631E+03  0.7546771E-02  0.1270878E+00
         -4   -1    0    0    0  501 -0.00000000000E+00  0.00000000000E+00  0.10389191427E+03  0.10389191427E+03  0.00000000000E+00 0.  1.
         21   -1    0    0  501  502  0.00000000000E+00 -0.00000000000E+00 -0.17291022521E+03  0.17291022521E+03  0.00000000000E+00 0.  1.
        -24    2    1    2    0    0 -0.33927458389E+02 -0.42320759572E+02 -0.15237217016E+02  0.10100689595E+03  0.83833770784E+02 0.  0.
         23    2    1    2    0    0  0.66041512679E+02  0.29744700141E-01 -0.26841031577E+02  0.11625022375E+03  0.91826963708E+02 0.  0.
         11    1    3    3    0    0  0.92130567653E+01  0.19161989962E+02 -0.14785567389E+02  0.25897399045E+02  0.00000000000E+00 0. -1.
        -12    1    3    3    0    0 -0.43140515154E+02 -0.61482749535E+02 -0.45164962696E+00  0.75109496906E+02  0.00000000000E+00 0.  1.
        -11    1    4    4    0    0  0.84719791194E+02  0.13229421620E+02 -0.71045349663E+01  0.86040310515E+02  0.00000000000E+00 0.  1.
         11    1    4    4    0    0 -0.18678278516E+02 -0.13199676920E+02 -0.19736496611E+02  0.30209913233E+02  0.00000000000E+00 0. -1.
         -3    1    1    2    0  502 -0.32114054289E+02  0.42291014872E+02 -0.26940062338E+02  0.59545019780E+02  0.00000000000E+00 0.  1.
<scales pt_clust_5="13000.00000" pt_clust_6="13000.00000" pt_clust_7="13000.00000" pt_clust_8="13000.00000" pt_clust_9="53.10219"></scales>
<clustering>
<clus scale="   53.102">  2  9  1 -1</clus>
<clus scale="   83.834">  5  6 -1 -1</clus>
<clus scale="   91.827">  7  8 -1 -1</clus>
<clus scale="   99.544">  1  5  2 -1</clus>
<clus scale="   53.102">  2  5  1 -1</clus>
</clustering>
</event>
<event>
 9    1  0.4067873E-005  0.1004725E+03  0.7546771E-02  0.1280932E+00
          1   -1    0    0  502    0 -0.00000000000E+00  0.00000000000E+00  0.89259017099E+02  0.89259017099E+02  0.00000000000E+00 0. -1.
         21   -1    0    0  501  502  0.00000000000E+00 -0.00000000000E+00 -0.40277794229E+03  0.40277794229E+03  0.00000000000E+00 0.  1.
         23    2    1    2    0    0  0.55466228807E+02 -0.14170224205E+02  0.56997845702E+01  0.10339101714E+03  0.85906443819E+02 0.  0.
        -24    2    1    2    0    0  0.55063660396E+01  0.81542386069E+02 -0.24591989900E+03  0.27190100156E+03  0.82304781961E+02 0.  0.
         13    1    4    4    0    0  0.25962407116E+02  0.37990034286E+02 -0.41729893630E+02  0.62118220441E+02  0.00000000000E+00 0. -1.
        -14    1    4    4    0    0 -0.20456041077E+02  0.43552351783E+02 -0.20419000537E+03  0.20978278112E+03  0.00000000000E+00 0.  1.
        -13    1    3    3    0    0  0.23273159846E+02  0.47799017803E+01  0.43927706996E+02  0.49941274235E+02  0.00000000000E+00 0.  1.
         13    1    3    3    0    0  0.32193068962E+02 -0.18950125986E+02 -0.38227922426E+02  0.53449742909E+02  0.00000000000E+00 0. -1.
          2    1    1    2  501    0 -0.60972594847E+02 -0.67372161864E+02 -0.73298810767E+02  0.11674494069E+03  0.00000000000E+00 0. -1.
<scales pt_clust_5="13000.00000" pt_clust_6="13000.00000" pt_clust_7="13000.00000" pt_clust_8="13000.00000" pt_clust_9="90.86624"></scales>
<clustering>
<clus scale="   82.305">  5  6 -1 -1</clus>
<clus scale="   85.906">  7  8 -1 -1</clus>
<clus scale="   90.866">  2  9  1 -1</clus>
<clus scale="   97.411">  2  5  1 -1</clus>
<clus scale="   90.866">  2  5  1 -1</clus>
</clustering>
</event>
<event>
 9    1  0.4067873E-005  0.1096916E+03  0.7546771E-02  0.1266707E+00
         21   -1    0    0  501  502  0.00000000000E+00  0.00000000000E+00  0.25472724637E+03  0.25472724637E+03  0.00000000000E+00 0. -1.
          3   -1    0    0  502    0 -0.00000000000E+00 -0.00000000000E+00 -0.14894641330E+03  0.14894641330E+03  0.00000000000E+00 0. -1.
         23    2    1    2    0    0  0.39005592113E+02  0.26970771620E+02 -0.36849064664E+02  0.10890357852E+03  0.90847548730E+02 0.  0.
        -24    2    1    2    0    0 -0.66540370303E+01 -0.10977321712E+03  0.92391639130E+01  0.13447049922E+03  0.76827843938E+02 0.  0.
         11    1    4    4    0    0  0.28167618727E+02 -0.70989727787E+02 -0.13580754331E+02  0.77571857553E+02  0.00000000000E+00 0. -1.
        -12    1    4    4    0    0 -0.34821655758E+02 -0.38783489334E+02  0.22819918244E+02  0.56898641664E+02  0.00000000000E+00 0.  1.
        -11    1    3    3    0    0  0.49695269280E+02 -0.21972278545E+01  0.11853832192E+02  0.51136688754E+02  0.00000000000E+00 0.  1.
         11    1    3    3    0    0 -0.10689677167E+02  0.29167999474E+02 -0.48702896855E+02  0.57766889767E+02  0.00000000000E+00 0. -1.
          4    1    1    2  501    0 -0.32351555083E+02  0.82802445501E+02  0.13339073382E+03  0.16029958193E+03  0.00000000000E+00 0. -1.
<scales pt_clust_5="13000.00000" pt_clust_6="13000.00000" pt_clust_7="13000.00000" pt_clust_8="13000.00000" pt_clust_9="88.89808"></scales>
<clustering>
<clus scale="   76.828">  5  6 -1 -1</clus>
<clus scale="   88.898">  1  9  2 -1</clus>
<clus scale="   90.848">  7  8 -1 -1</clus>
<clus scale="   98.395">  1  5  2 -1</clus>
<clus scale="   88.898">  1  5  2 -1</clus>
</clustering>
</event>
<event>
 9    1  0.4067873E-005  0.1155414E+03  0.7546771E-02  0.1255999E+00
          3   -1    0    0  502    0 -0.00000000000E+00  0.00000000000E+00  0.85908749202E+02  0.85908749202E+02  0.00000000000E+00 0. -1.
         21   -1    0    0  501  502  0.00000000000E+00 -0.00000000000E+00 -0.36478150007E+03  0.36478150007E+03  0.00000000000E+00 0. -1.
         23    2    1    2    0    0 -0.67641380905E+02 -0.12356536032E+02 -0.26346318131E+02  0.12053616427E+03  0.95429544817E+02 0.  0.
        -24    2    1    2    0    0  0.56135535164E+02 -0.63896559933E+02 -0.21369302609E+03  0.24381201761E+03  0.80905017470E+02 0.  0.
         11    1    4    4    0    0  0.51674241912E+02 -0.76106913894E+02 -0.13082314146E+03  0.15992868398E+03  0.00000000000E+00 0. -1.
        -12    1    4    4    0    0  0.44612932523E+01  0.12210353961E+02 -0.82869884629E+02  0.83883333623E+02  0.00000000000E+00 0.  1.
        -11    1    3    3    0    0 -0.33596002774E+02 -0.27806173604E+02 -0.57293277913E+02  0.72002738746E+02  0.00000000000E+00 0.  1.
         11    1    3    3    0    0 -0.34045378131E+02  0.15449637572E+02  0.30946959782E+02  0.48533425522E+02  0.00000000000E+00 0. -1.
          4    1    1    2  501    0  0.11505845741E+02  0.76253095965E+02 -0.38833406651E+02  0.86342067398E+02  0.00000000000E+00 0. -1.
<scales pt_clust_5="13000.00000" pt_clust_6="13000.00000" pt_clust_7="13000.00000" pt_clust_8="13000.00000" pt_clust_9="77.11631"></scales>
<clustering>
<clus scale="   77.116">  2  9  1 -1</clus>
<clus scale="   80.905">  5  6 -1 -1</clus>
<clus scale="   95.430">  7  8 -1 -1</clus>
<clus scale="  103.868">  2  5  1 -1</clus>
<clus scale="   77.116">  2  5  1 -1</clus>
</clustering>
</event>
