<event>
10    2  0.1898324E-006  0.2921048E+03  0.7546771E-02  0.1089309E+00
          4   -1    0    0  502    0  0.00000000000E+00  0.00000000000E+00  0.41485255169E+03  0.41485255169E+03  0.00000000000E+00 0. -1.
         -4   -1    0    0    0  501 -0.00000000000E+00 -0.00000000000E+00 -0.32683909010E+03  0.32683909010E+03  0.00000000000E+00 0.  1.
         23    2    1    2    0    0  0.28280655200E+03 -0.13445402384E+03 -0.45339805511E+02  0.32924920662E+03  0.91059934741E+02 0.  0.
         23    2    1    2    0    0 -0.21133507701E+03  0.11658718550E+03  0.31271234831E+02  0.25938501917E+03  0.89708480315E+02 0.  0.
        -11    1    4    4    0    0  0.27554945286E+01  0.23253733029E+02  0.76904915871E+01  0.24646957434E+02  0.00000000000E+00 0.  1.
         11    1    4    4    0    0 -0.21409057154E+03  0.93333452468E+02  0.23580743244E+02  0.23473806173E+03  0.00000000000E+00 0. -1.
        -13    1    3    3    0    0  0.19811800928E+03 -0.13781820379E+03 -0.32039380877E+02  0.24345661795E+03  0.00000000000E+00 0.  1.
         13    1    3    3    0    0  0.84688542723E+02  0.33641799530E+01 -0.13300424634E+02  0.85792588670E+02  0.00000000000E+00 0. -1.
         21    1    1    2  502  503 -0.25267131514E+02  0.50210982714E+02  0.63049954560E+02  0.84468144825E+02  0.00000000000E+00 0. -1.
         21    1    1    2  503  501 -0.46204343475E+02 -0.32344144373E+02  0.39032077707E+02  0.68589271182E+02  0.00000000000E+00 0.  1.
<scales pt_clust_5="13000.00000" pt_clust_6="13000.00000" pt_clust_7="13000.00000" pt_clust_8="13000.00000" pt_clust_9="56.21006" pt_clust_10="55.81721"></scales>
<clustering>
<clus scale="   56.210">  1  9  2 -1</clus>
<clus scale="   55.817">  1 10  2 -1</clus>
<clus scale="   89.708">  5  6 -1 -1</clus>
<clus scale="   91.060">  7  8 -1 -1</clus>
<clus scale="  291.686">  1  5  2 -1</clus>
<clus scale="   56.210">  1  5  2 -1</clus>
</clustering>
</event>
<event>
10    2  0.1898324E-006  0.1569070E+03  0.7546771E-02  0.1192290E+00
          1   -1    0    0  502    0  0.00000000000E+00  0.00000000000E+00  0.31052715747E+03  0.31052715747E+03  0.00000000000E+00 0. -1.
         -1   -1    0    0    0  501 -0.00000000000E+00 -0.00000000000E+00 -0.44036084789E+03  0.44036084789E+03  0.00000000000E+00 0.  1.
         23    2    1    2    0    0 -0.75813632001E+02 -0.21904723418E+02 -0.18178556655E+02  0.12325994321E+03  0.92924861974E+02 0.  0.
         23    2    1    2    0    0  0.15380265413E+03  0.69779544869E+02  0.86980613890E+02  0.21162779819E+03  0.93253720962E+02 0.  0.
        -11    1    4    4    0    0  0.13777264963E+03  0.46457695282E+02  0.10385692115E+03  0.17867814782E+03  0.00000000000E+00 0. -1.
         11    1    4    4    0    0  0.16030004505E+02  0.23321849588E+02 -0.16876307264E+02  0.32949650370E+02  0.00000000000E+00 0.  1.
        -13    1    3    3    0    0 -0.18240050793E+02 -0.48559205894E+02 -0.28179840998E+02  0.59032189259E+02  0.00000000000E+00 0. -1.
         13    1    3    3    0    0 -0.57573581208E+02  0.26654482476E+02  0.10001284342E+02  0.64227753951E+02  0.00000000000E+00 0.  1.
         21    1    1    2  502  503 -0.15570189669E+02  0.31440071671E+02  0.97244003546E+02  0.10337942319E+03  0.00000000000E+00 0. -1.
         21    1    1    2  503  501 -0.62418832463E+02 -0.79314893122E+02 -0.29587975119E+03  0.31262084077E+03  0.00000000000E+00 0.  1.
<scales pt_clust_5="13000.00000" pt_clust_6="13000.00000" pt_clust_7="13000.00000" pt_clust_8="13000.00000" pt_clust_9="35.08431" pt_clust_10="100.33804"></scales>
<clustering>
<clus scale="   35.084">  1  9  2 -1</clus>
<clus scale="   92.925">  7  8 -1 -1</clus>
<clus scale="   93.254">  5  6 -1 -1</clus>
<clus scale="  100.338">  2 10  1 -1</clus>
<clus scale="  156.712">  2  7  1 -1</clus>
<clus scale="   35.084">  1  5  2 -1</clus>
</clustering>
</event>
<event>
10    2  0.1898324E-006  0.1019535E+03  0.7546771E-02  0.1276873E+00
         -2   -1    0    0    0  501 -0.00000000000E+00  0.00000000000E+00  0.40232528807E+02  0.40232528807E+02  0.00000000000E+00 0.  1.
          2   -1    0    0  503    0  0.00000000000E+00 -0.00000000000E+00 -0.42053416082E+03  0.42053416082E+03  0.00000000000E+00 0. -1.
         23    2    1    2    0    0 -0.43001164692E+02  0.68275437121E+01 -0.14040127312E+03  0.17206882925E+03  0.89439638796E+02 0.  0.
         23    2    1    2    0    0  0.32734591302E+02 -0.45859794092E+02 -0.17600360672E+03  0.20591234563E+03  0.90818226825E+02 0.  0.
        -13    1    3    3    0    0 -0.70723209465E+02  0.60937920887E+01 -0.11003547302E+03  0.13094545423E+03  0.00000000000E+00 0.  1.
         13    1    3    3    0    0  0.27722044773E+02  0.73375162338E+00 -0.30365800091E+02  0.41123375020E+02  0.00000000000E+00 0. -1.
        -13    1    4    4    0    0 -0.20197350517E+02  0.15546945189E+02 -0.35600526110E+02  0.43783991731E+02  0.00000000000E+00 0.  1.
         13    1    4    4    0    0  0.52931941819E+02 -0.61406739282E+02 -0.14040308061E+03  0.16212835390E+03  0.00000000000E+00 0. -1.
         21    1    1    2  502  501 -0.12076966584E+02  0.17182928802E+02 -0.30664567779E+02  0.37167484192E+02  0.00000000000E+00 0. -1.
         21    1    1    2  503  502  0.22343539973E+02  0.21849321578E+02 -0.33232184398E+02  0.45618030556E+02  0.00000000000E+00 0.  1.
<scales pt_clust_5="13000.00000" pt_clust_6="13000.00000" pt_clust_7="13000.00000" pt_clust_8="13000.00000" pt_clust_9="21.00253" pt_clust_10="32.00566"></scales>
<clustering>
<clus scale="   21.003">  1  9  2 -1</clus>
<clus scale="   32.006">  1 10  2 -1</clus>
<clus scale="   89.440">  5  6 -1 -1</clus>
<clus scale="   90.818">  7  8 -1 -1</clus>
<clus scale="  100.727">  1  5  2 -1</clus>
<clus scale="  101.953">  2  5  1 -1</clus>
</clustering>
</event>
<event>
10    2  0.1898324E-006  0.1226196E+03  0.7546771E-02  0.1239845E+00
          1   -1    0    0  502    0  0.00000000000E+00  0.00000000000E+00  0.25767552507E+03  0.25767552507E+03  0.00000000000E+00 0. -1.
         -1   -1    0    0    0  501 -0.00000000000E+00 -0.00000000000E+00 -0.10716203163E+03  0.10716203163E+03  0.00000000000E+00 0.  1.
         23    2    1    2    0    0 -0.35838446672E+02 -0.78156856292E+02  0.61353017794E+02  0.13789141112E+03  0.88639494720E+02 0.  0.
         23    2    1    2    0    0  0.24324638929E+01  0.82294075488E+02  0.57216931416E+02  0.13606177143E+03  0.91982588913E+02 0.  0.
        -13    1    4    4    0    0  0.41064098483E+02  0.70226341879E+02  0.48331627002E+02  0.94625289677E+02  0.00000000000E+00 0.  1.
         13    1    4    4    0    0 -0.38631634590E+02  0.12067733609E+02  0.88853044142E+01  0.41436481753E+02  0.00000000000E+00 0. -1.
        -13    1    3    3    0    0 -0.58330238492E+02 -0.70924514241E+02  0.66910061559E+02  0.11362068377E+03  0.00000000000E+00 0. -1.
         13    1    3    3    0    0  0.22491791821E+02 -0.72323420506E+01 -0.55570437646E+01  0.24270727353E+02  0.00000000000E+00 0.  1.
         21    1    1    2  502  503  0.50325616409E+01 -0.29848840727E+02  0.41550462514E+02  0.51407401263E+02  0.00000000000E+00 0. -1.
         21    1    1    2  503  501  0.28373421138E+02  0.25711621531E+02 -0.96069182926E+01  0.39476972882E+02  0.00000000000E+00 0.  1.
<scales pt_clust_5="13000.00000" pt_clust_6="13000.00000" pt_clust_7="13000.00000" pt_clust_8="13000.00000" pt_clust_9="30.27012" pt_clust_10="37.18026"></scales>
<clustering>
<clus scale="   30.270">  1  9  2 -1</clus>
<clus scale="   37.180">  2 10  1 -1</clus>
<clus scale="   88.639">  7  8 -1 -1</clus>
<clus scale="   91.983">  5  6 -1 -1</clus>
<clus scale="  120.132">  2  7  1 -1</clus>
<clus scale="   30.270">  1  5  2 -1</clus>
</clustering>
</event>
<event>
10    2  0.1898324E-006  0.1376841E+03  0.7546771E-02  0.1218135E+00
          2   -1    0    0  502    0  0.00000000000E+00  0.00000000000E+00  0.49522763227E+03  0.49522763227E+03  0.00000000000E+00 0. -1.
         -2   -1    0    0    0  501 -0.00000000000E+00 -0.00000000000E+00 -0.95637741937E+02  0.95637741937E+02  0.00000000000E+00 0.  1.
         23    2    1    2    0    0 -0.10901896673E+03 -0.11199343260E+03  0.93402004605E+02  0.20328817371E+03  0.90412847843E+02 0.  0.
         23    2    1    2    0    0  0.55300869904E+02  0.66969811004E+02  0.19623400208E+03  0.23010108114E+03  0.83039642169E+02 0.  0.
        -11    1    4    4    0    0  0.76310890283E+02  0.61830612318E+02  0.15406535499E+03  0.18270881260E+03  0.00000000000E+00 0.  1.
         11    1    4    4    0    0 -0.21010020379E+02  0.51391986860E+01  0.42168647093E+02  0.47392268537E+02  0.00000000000E+00 0. -1.
        -13    1    3    3    0    0 -0.27108439650E+02  0.13400710797E+02  0.21787018545E+02  0.37270909932E+02  0.00000000000E+00 0. -1.
         13    1    3    3    0    0 -0.81910527076E+02 -0.12539414340E+03  0.71614986061E+02  0.16601726378E+03  0.00000000000E+00 0.  1.
         21    1    1    2  502  503  0.19044517263E+02 -0.19828823605E+02  0.66735973937E+02  0.72177324006E+02  0.00000000000E+00 0.  1.
         21    1    1    2  503  501  0.34673579558E+02  0.64852445203E+02  0.43217909710E+02  0.85298795348E+02  0.00000000000E+00 0. -1.
<scales pt_clust_5="13000.00000" pt_clust_6="13000.00000" pt_clust_7="13000.00000" pt_clust_8="13000.00000" pt_clust_9="27.49320" pt_clust_10="72.36351"></scales>
<clustering>
<clus scale="   27.493">  1  9  2 -1</clus>
<clus scale="   72.364">  2 10  1 -1</clus>
<clus scale="   83.040">  5  6 -1 -1</clus>
<clus scale="   90.413">  7  8 -1 -1</clus>
<clus scale="  132.959">  1  5  2 -1</clus>
<clus scale="   27.493">  1  5  2 -1</clus>
</clustering>
</event>
<event>
10    2  0.1898324E-006  0.1200370E+03  0.7546771E-02  0.1243125E+00
         -1   -1    0    0    0  501 -0.00000000000E+00  0.00000000000E+00  0.10136141505E+03  0.10136141505E+03  0.00000000000E+00 0.  1.
          1   -1    0    0  502    0  0.00000000000E+00 -0.00000000000E+00 -0.10049323163E+04  0.10049323163E+04  0.00000000000E+00 0. -1.
         23    2    1    2    0    0  0.16444844944E+02 -0.41858855642E+02 -0.32041701943E+02  0.10718441889E+03  0.91865294143E+02 0.  0.
         23    2    1    2    0    0 -0.14022537937E+03  0.54227870743E+02 -0.19455277426E+03  0.26257449115E+03  0.92145333264E+02 0.  0.
        -11    1    3    3    0    0 -0.51179472512E+01 -0.43282621861E+02  0.22116207135E+02  0.48874383446E+02  0.00000000000E+00 0.  1.
         11    1    3    3    0    0  0.21562792195E+02  0.14237662188E+01 -0.54157909078E+02  0.58310035441E+02  0.00000000000E+00 0. -1.
        -13    1    4    4    0    0 -0.10256534501E+03 -0.69410556021E+01 -0.96269700689E+02  0.14083921159E+03  0.00000000000E+00 0.  1.
         13    1    4    4    0    0 -0.37660034362E+02  0.61168926345E+02 -0.98283073573E+02  0.12173527956E+03  0.00000000000E+00 0. -1.
         21    1    1    2  502  503  0.94396765066E+02  0.39347446930E+00 -0.69390839934E+03  0.70029977206E+03  0.00000000000E+00 0. -1.
         21    1    1    2  503  501  0.29383769361E+02 -0.12762489570E+02  0.16931974282E+02  0.36235049261E+02  0.00000000000E+00 0. -1.
<scales pt_clust_5="13000.00000" pt_clust_6="13000.00000" pt_clust_7="13000.00000" pt_clust_8="13000.00000" pt_clust_9="95.65262" pt_clust_10="32.03572"></scales>
<clustering>
<clus scale="   32.036">  1 10  2 -1</clus>
<clus scale="   91.865">  5  6 -1 -1</clus>
<clus scale="   92.145">  7  8 -1 -1</clus>
<clus scale="   95.653">  2  9  1 -1</clus>
<clus scale="  119.822">  1  5  2 -1</clus>
<clus scale="   95.653">  2  5  1 -1</clus>
</clustering>
</event>
<event>
10    2  0.1898324E-006  0.1049387E+03  0.7546771E-02  0.1271606E+00
          2   -1    0    0  502    0  0.00000000000E+00  0.00000000000E+00  0.58080002964E+03  0.58080002964E+03  0.00000000000E+00 0. -1.
         -2   -1    0    0    0  501 -0.00000000000E+00 -0.00000000000E+00 -0.64581768274E+02  0.64581768274E+02  0.00000000000E+00 0.  1.
         23    2    1    2    0    0 -0.26323166699E+02 -0.31139184816E+02  0.11031010086E+03  0.14916269180E+03  0.91753105318E+02 0.  0.
         23    2    1    2    0    0  0.49432324329E+02 -0.25355780453E+02  0.25302175162E+03  0.27584573026E+03  0.94786021236E+02 0.  0.
        -11    1    3    3    0    0 -0.32099495048E+01 -0.37553563204E+02  0.14789544544E+01  0.37719506775E+02  0.00000000000E+00 0.  1.
         11    1    3    3    0    0 -0.23113217194E+02  0.64143783873E+01  0.10883114641E+03  0.11144318502E+03  0.00000000000E+00 0. -1.
        -13    1    4    4    0    0  0.60617174277E+02 -0.52061375165E+02  0.20116589311E+03  0.21645448749E+03  0.00000000000E+00 0. -1.
         13    1    4    4    0    0 -0.11184849948E+02  0.26705594711E+02  0.51855858503E+02  0.59391242774E+02  0.00000000000E+00 0.  1.
         21    1    1    2  502  503  0.20891088024E+02 -0.81166103867E+01  0.13922541437E+03  0.14101784614E+03  0.00000000000E+00 0. -1.
         21    1    1    2  503  501 -0.44000245653E+02  0.64611575656E+02  0.13660994523E+02  0.79355529724E+02  0.00000000000E+00 0.  1.
<scales pt_clust_5="13000.00000" pt_clust_6="13000.00000" pt_clust_7="13000.00000" pt_clust_8="13000.00000" pt_clust_9="22.41243" pt_clust_10="76.23355"></scales>
<clustering>
<clus scale="   22.412">  1  9  2 -1</clus>
<clus scale="   76.234">  2 10  1 -1</clus>
<clus scale="   91.753">  5  6 -1 -1</clus>
<clus scale="   94.786">  7  8 -1 -1</clus>
<clus scale="  102.208">  2  5  1 -1</clus>
<clus scale="   22.412">  1  5  2 -1</clus>
</clustering>
</event>
<event>
10    2  0.1898324E-006  0.1670553E+03  0.7546771E-02  0.1181423E+00
          1   -1    0    0  502    0  0.00000000000E+00  0.00000000000E+00  0.64184167474E+03  0.64184167474E+03  0.00000000000E+00 0. -1.
         -1   -1    0    0    0  501 -0.00000000000E+00 -0.00000000000E+00 -0.83072124548E+02  0.83072124548E+02  0.00000000000E+00 0.  1.
         23    2    1    2    0    0 -0.34615632605E+02  0.11686596324E+03  0.77214652775E+02  0.17009692645E+03  0.90083108292E+02 0.  0.
         23    2    1    2    0    0  0.15548765149E+02 -0.16634696038E+03  0.42607368674E+03  0.46706281116E+03  0.93251314814E+02 0.  0.
        -11    1    3    3    0    0  0.30256091317E+02  0.26539532646E+02  0.23367598539E+02  0.46538398300E+02  0.00000000000E+00 0. -1.
         11    1    3    3    0    0 -0.64871723922E+02  0.90326430589E+02  0.53847054237E+02  0.12355852815E+03  0.00000000000E+00 0.  1.
        -11    1    4    4    0    0  0.70519077188E+01 -0.97181354245E+02  0.35253020094E+03  0.36574784701E+03  0.00000000000E+00 0.  1.
         11    1    4    4    0    0  0.84968574299E+01 -0.69165606137E+02  0.73543485796E+02  0.10131496415E+03  0.00000000000E+00 0. -1.
         21    1    1    2  502  503  0.59909991743E+00  0.31563719694E+02  0.53278106473E+02  0.61928862019E+02  0.00000000000E+00 0.  1.
         21    1    1    2  503  501  0.18467767539E+02  0.17917277452E+02  0.22031042014E+01  0.25825199656E+02  0.00000000000E+00 0.  1.
<scales pt_clust_5="13000.00000" pt_clust_6="13000.00000" pt_clust_7="13000.00000" pt_clust_8="13000.00000" pt_clust_9="32.69653" pt_clust_10="25.73106"></scales>
<clustering>
<clus scale="   25.731">  2 10  1 -1</clus>
<clus scale="   32.697">  1  9  2 -1</clus>
<clus scale="   90.083">  5  6 -1 -1</clus>
<clus scale="   93.251">  7  8 -1 -1</clus>
<clus scale="  165.308">  2  5  1 -1</clus>
<clus scale="   32.697">  1  5  2 -1</clus>
</clustering>
</event>
<event>
10    2  0.1898324E-006  0.4224809E+03  0.7546771E-02  0.1078736E+00
         -1   -1    0    0    0  501 -0.00000000000E+00  0.00000000000E+00  0.56829754397E+03  0.56829754397E+03  0.00000000000E+00 0.  1.
          1   -1    0    0  502    0  0.00000000000E+00 -0.00000000000E+00 -0.12974697630E+04  0.12974697630E+04  0.00000000000E+00 0. -1.
         23    2    1    2    0    0  0.44843705643E+03 -0.14917507608E+03  0.37810315168E+02  0.48296702021E+03  0.92078910565E+02 0.  0.
         23    2    1    2    0    0 -0.70712508834E+02  0.46387783904E+02 -0.23724047596E+03  0.26807514331E+03  0.91810422206E+02 0.  0.
        -11    1    3    3    0    0  0.42604374329E+03 -0.14270084290E+03  0.56823314483E+02  0.45288595787E+03  0.00000000000E+00 0.  1.
         11    1    3    3    0    0  0.22393313136E+02 -0.64742331752E+01 -0.19012999315E+02  0.30081062338E+02  0.00000000000E+00 0. -1.
        -13    1    4    4    0    0 -0.52958184379E+02 -0.15348874576E+02 -0.14941271438E+03  0.15926178594E+03  0.00000000000E+00 0. -1.
         13    1    4    4    0    0 -0.17754324455E+02  0.61736658480E+02 -0.87827761581E+02  0.10881335737E+03  0.00000000000E+00 0.  1.
         21    1    1    2  502  503 -0.34911558279E+03 -0.16160406611E+02 -0.76972833308E+03  0.84535469221E+03  0.00000000000E+00 0. -1.
         21    1    1    2  503  501 -0.28608964811E+02  0.11894769879E+03  0.23998627483E+03  0.26937045127E+03  0.00000000000E+00 0.  1.
<scales pt_clust_5="13000.00000" pt_clust_6="13000.00000" pt_clust_7="13000.00000" pt_clust_8="13000.00000" pt_clust_9="412.32461" pt_clust_10="122.33981"></scales>
<clustering>
<clus scale="   91.810">  7  8 -1 -1</clus>
<clus scale="   92.079">  5  6 -1 -1</clus>
<clus scale="  122.340">  1 10  2 -1</clus>
<clus scale="  127.902">  2  7  1 -1</clus>
<clus scale="  412.325">  2  9  1 -1</clus>
<clus scale="  127.902">  2  5  1 -1</clus>
</clustering>
</event>
<event>
10    2  0.1898324E-006  0.9957961E+02  0.7546771E-02  0.1281244E+00
          1   -1    0    0  502    0  0.00000000000E+00  0.00000000000E+00  0.27404447330E+03  0.27404447330E+03  0.00000000000E+00 0. -1.
         -1   -1    0    0    0  501 -0.00000000000E+00 -0.00000000000E+00 -0.14574919495E+03  0.14574919495E+03  0.00000000000E+00 0.  1.
         23    2    1    2    0    0 -0.21209970791E+02 -0.52910172192E+02 -0.51082427047E+02  0.12003790042E+03  0.92468016098E+02 0.  0.
         23    2    1    2    0    0  0.19841369637E+02  0.13720160002E+02  0.10597543972E+03  0.14278082675E+03  0.92593995073E+02 0.  0.
        -11    1    4    4    0    0  0.16212988794E+02  0.46468975108E+02  0.96775588701E+02  0.10857136465E+03  0.00000000000E+00 0. -1.
         11    1    4    4    0    0  0.36283808436E+01 -0.32748815106E+02  0.91998510194E+01  0.34209462100E+02  0.00000000000E+00 0.  1.
        -13    1    3    3    0    0  0.75588458469E+01 -0.20282619944E+02 -0.69505541926E+02  0.72797947641E+02  0.00000000000E+00 0.  1.
         13    1    3    3    0    0 -0.28768816638E+02 -0.32627552247E+02  0.18423114879E+02  0.47239952776E+02  0.00000000000E+00 0. -1.
         21    1    1    2  502  503 -0.61689617847E+01  0.19462406735E+02  0.11153314853E+03  0.11338643916E+03  0.00000000000E+00 0. -1.
         21    1    1    2  503  501  0.75375629384E+01  0.19727605455E+02 -0.38130882861E+02  0.43588501922E+02  0.00000000000E+00 0.  1.
<scales pt_clust_5="13000.00000" pt_clust_6="13000.00000" pt_clust_7="13000.00000" pt_clust_8="13000.00000" pt_clust_9="20.41669" pt_clust_10="21.38948"></scales>
<clustering>
<clus scale="   20.417">  1  9  2 -1</clus>
<clus scale="   21.389">  2 10  1 -1</clus>
<clus scale="   92.468">  7  8 -1 -1</clus>
<clus scale="   92.594">  5  6 -1 -1</clus>
<clus scale="   99.462">  2  7  1 -1</clus>
<clus scale="   20.417">  1  5  2 -1</clus>
</clustering>
</event>
<event>
10    2  0.1898324E-006  0.1276705E+03  0.7546771E-02  0.1231056E+00
         -2   -1    0    0    0  501 -0.00000000000E+00  0.00000000000E+00  0.29356548626E+03  0.29356548626E+03  0.00000000000E+00 0.  1.
          2   -1    0    0  502    0  0.00000000000E+00 -0.00000000000E+00 -0.37940211351E+03  0.37940211351E+03  0.00000000000E+00 0. -1.
         23    2    1    2    0    0 -0.43923731595E+02 -0.54095067713E+01  0.11261099145E+03  0.15189248519E+03  0.91823388644E+02 0.  0.
         23    2    1    2    0    0  0.11727577084E+03  0.23396785261E+02 -0.20287553515E+03  0.25263084410E+03  0.91448590151E+02 0.  0.
        -11    1    4    4    0    0  0.11756427501E+03  0.44166657432E+02 -0.14886423659E+03  0.19476296702E+03  0.00000000000E+00 0. -1.
         11    1    4    4    0    0 -0.28850417845E+00 -0.20769872171E+02 -0.54011298562E+02  0.57867877074E+02  0.00000000000E+00 0.  1.
        -13    1    3    3    0    0 -0.19007175774E+02 -0.15010364782E+02  0.12139119823E+03  0.12378370971E+03  0.00000000000E+00 0.  1.
         13    1    3    3    0    0 -0.24916555821E+02  0.96008580102E+01 -0.87802067731E+01  0.28108775489E+02  0.00000000000E+00 0. -1.
         21    1    1    2  502  503 -0.32123974216E+02  0.15921829623E+02 -0.12415114405E+03  0.12922445955E+03  0.00000000000E+00 0. -1.
         21    1    1    2  503  501 -0.41228065024E+02 -0.33909108113E+02  0.12857906049E+03  0.13921981093E+03  0.00000000000E+00 0.  1.
<scales pt_clust_5="13000.00000" pt_clust_6="13000.00000" pt_clust_7="13000.00000" pt_clust_8="13000.00000" pt_clust_9="35.85323" pt_clust_10="53.69528"></scales>
<clustering>
<clus scale="   35.853">  2  9  1 -1</clus>
<clus scale="   53.695">  1 10  2 -1</clus>
<clus scale="   91.449">  5  6 -1 -1</clus>
<clus scale="   91.823">  7  8 -1 -1</clus>
<clus scale="  127.401">  2  5  1 -1</clus>
<clus scale="   35.853">  2  5  1 -1</clus>
</clustering>
</event>
<event>
10    2  0.1898324E-006  0.9941401E+02  0.7546771E-02  0.1282320E+00
         -1   -1    0    0    0  501 -0.00000000000E+00  0.00000000000E+00  0.85370531834E+02  0.85370531834E+02  0.00000000000E+00 0.  1.
          1   -1    0    0  502    0  0.00000000000E+00 -0.00000000000E+00 -0.26001990491E+03  0.26001990491E+03  0.00000000000E+00 0. -1.
         23    2    1    2    0    0 -0.23266337239E+02  0.49122684717E+01 -0.70274247076E+02  0.11778292070E+03  0.91481658138E+02 0.  0.
         23    2    1    2    0    0  0.31502602443E+02  0.64197465283E+02 -0.87264389870E+02  0.14424568339E+03  0.89877777724E+02 0.  0.
        -11    1    3    3    0    0 -0.51307054377E+02  0.27198504661E+02 -0.36741419656E+02  0.68717569827E+02  0.00000000000E+00 0. -1.
         11    1    3    3    0    0  0.28040717138E+02 -0.22286236190E+02 -0.33532827421E+02  0.49065350869E+02  0.00000000000E+00 0.  1.
        -13    1    4    4    0    0  0.33204800669E+02  0.31634457525E+02 -0.99386680010E+02  0.10945779942E+03  0.00000000000E+00 0. -1.
         13    1    4    4    0    0 -0.17021982267E+01  0.32563007759E+02  0.12122290140E+02  0.34787883973E+02  0.00000000000E+00 0.  1.
         21    1    1    2  502  503  0.11510500437E+01 -0.44657390894E+02 -0.30356784002E+02  0.54010571304E+02  0.00000000000E+00 0.  1.
         21    1    1    2  503  501 -0.93873152468E+01 -0.24452342861E+02  0.13246047869E+02  0.29351261354E+02  0.00000000000E+00 0.  1.
<scales pt_clust_5="13000.00000" pt_clust_6="13000.00000" pt_clust_7="13000.00000" pt_clust_8="13000.00000" pt_clust_9="49.17444" pt_clust_10="26.19234"></scales>
<clustering>
<clus scale="   26.192">  1 10  2 -1</clus>
<clus scale="   49.174">  2  9  1 -1</clus>
<clus scale="   89.878">  7  8 -1 -1</clus>
<clus scale="   91.482">  5  6 -1 -1</clus>
<clus scale="   97.940">  2  7  1 -1</clus>
<clus scale="   49.174">  2  5  1 -1</clus>
</clustering>
</event>
<event>
10    2  0.1898324E-006  0.2101217E+03  0.7546771E-02  0.1141633E+00
         -2   -1    0    0    0  501 -0.00000000000E+00  0.00000000000E+00  0.73548002178E+03  0.73548002178E+03  0.00000000000E+00 0.  1.
          2   -1    0    0  502    0  0.00000000000E+00 -0.00000000000E+00 -0.20986468820E+03  0.20986468820E+03  0.00000000000E+00 0. -1.
         23    2    1    2    0    0  0.15134794256E+03 -0.97853187497E+02  0.49511820485E+03  0.53493127653E+03  0.92347105074E+02 0.  0.
         23    2    1    2    0    0 -0.21369871227E+03  0.11142230831E+03 -0.15001658577E+02  0.25919437866E+03  0.94205125953E+02 0.  0.
        -11    1    3    3    0    0  0.54296331824E+02 -0.60009086660E+02  0.11380337347E+03  0.13964379665E+03  0.00000000000E+00 0. -1.
         11    1    3    3    0    0  0.97051610737E+02 -0.37844100837E+02  0.38131483138E+03  0.39528747987E+03  0.00000000000E+00 0.  1.
        -13    1    4    4    0    0 -0.30469713104E+02  0.42833619013E+02 -0.34039739063E+02  0.62624485385E+02  0.00000000000E+00 0.  1.
         13    1    4    4    0    0 -0.18322899916E+03  0.68588689297E+02  0.19038080486E+02  0.19656989327E+03  0.00000000000E+00 0. -1.
         21    1    1    2  502  503 -0.10106488292E+02  0.32244157938E+02 -0.23513029722E+02  0.41166605319E+02  0.00000000000E+00 0.  1.
         21    1    1    2  503  501  0.72457257996E+02 -0.45813278752E+02  0.69011817027E+02  0.11005244948E+03  0.00000000000E+00 0.  1.
<scales pt_clust_5="13000.00000" pt_clust_6="13000.00000" pt_clust_7="13000.00000" pt_clust_8="13000.00000" pt_clust_9="33.79093" pt_clust_10="82.78508"></scales>
<clustering>
<clus scale="   33.791">  2  9  1 -1</clus>
<clus scale="   82.785">  2 10  1 -1</clus>
<clus scale="   92.347">  5  6 -1 -1</clus>
<clus scale="   94.205">  7  8 -1 -1</clus>
<clus scale="  209.295">  1  5  2 -1</clus>
<clus scale="   33.791">  2  5  1 -1</clus>
</clustering>
</event>
<event>
10    2  0.1898324E-006  0.1970918E+03  0.7546771E-02  0.1171341E+00
         -2   -1    0    0    0  501 -0.00000000000E+00  0.00000000000E+00  0.26308553793E+03  0.26308553793E+03  0.00000000000E+00 0.  1.
          2   -1    0    0  502    0  0.00000000000E+00 -0.00000000000E+00 -0.57391996513E+03  0.57391996513E+03  0.00000000000E+00 0. -1.
         23    2    1    2    0    0 -0.78748658897E+02  0.38563680611E+02  0.13838229488E+03  0.18878763393E+03  0.93822185272E+02 0.  0.
         23    2    1    2    0    0  0.73937462939E+02  0.12464570742E+03 -0.17927650306E+03  0.24830430989E+03  0.92258684988E+02 0.  0.
        -11    1    4    4    0    0  0.43749464621E+02  0.88437903503E+01 -0.84817281454E+02  0.95844663470E+02  0.00000000000E+00 0.  1.
         11    1    4    4    0    0  0.30187998317E+02  0.11580191707E+03 -0.94459221606E+02  0.15245964642E+03  0.00000000000E+00 0. -1.
        -13    1    3    3    0    0 -0.42263677777E+02  0.51634178704E+02  0.29023237858E+02  0.72764381433E+02  0.00000000000E+00 0. -1.
         13    1    3    3    0    0 -0.36484981120E+02 -0.13070498093E+02  0.10935905702E+03  0.11602325250E+03  0.00000000000E+00 0.  1.
         21    1    1    2  502  503  0.68370857978E+02  0.27363415470E+02 -0.14692804908E+03  0.16435079048E+03  0.00000000000E+00 0. -1.
         21    1    1    2  503  501 -0.63559662020E+02 -0.19057280350E+03 -0.12301216995E+03  0.23556276876E+03  0.00000000000E+00 0.  1.
<scales pt_clust_5="13000.00000" pt_clust_6="13000.00000" pt_clust_7="13000.00000" pt_clust_8="13000.00000" pt_clust_9="73.64327" pt_clust_10="174.16518"></scales>
<clustering>
<clus scale="   73.643">  2  9  1 -1</clus>
<clus scale="   92.259">  5  6 -1 -1</clus>
<clus scale="   93.822">  7  8 -1 -1</clus>
<clus scale="  126.448">  1  7  2 -1</clus>
<clus scale="  174.165">  1 10  2 -1</clus>
<clus scale="   73.643">  2  5  1 -1</clus>
</clustering>
</event>
<event>
10    2  0.1898324E-006  0.2247227E+03  0.7546771E-02  0.1130459E+00
         -2   -1    0    0    0  501 -0.00000000000E+00  0.00000000000E+00  0.95760745793E+02  0.95760745793E+02  0.00000000000E+00 0.  1.
          2   -1    0    0  502    0  0.00000000000E+00 -0.00000000000E+00 -0.10222401034E+04  0.10222401034E+04  0.00000000000E+00 0. -1.
         23    2    1    2    0    0 -0.54006480300E+02 -0.18521537368E+03 -0.99388230948E+02  0.23558040818E+03  0.91644278073E+02 0.  0.
         23    2    1    2    0    0  0.55652132186E+02  0.21887203686E+03 -0.60420532838E+03  0.65141651981E+03  0.90979531225E+02 0.  0.
        -11    1    3    3    0    0  0.18200888905E+02 -0.89246703195E+02 -0.25554658732E+02  0.94600671092E+02  0.00000000000E+00 0.  1.
         11    1    3    3    0    0 -0.72207369206E+02 -0.95968670489E+02 -0.73833572216E+02  0.14097973709E+03  0.00000000000E+00 0. -1.
        -13    1    4    4    0    0 -0.19915625069E+02  0.34844349328E+02 -0.15534601557E+03  0.16044670566E+03  0.00000000000E+00 0.  1.
         13    1    4    4    0    0  0.75567757254E+02  0.18402768753E+03 -0.44885931281E+03  0.49096981415E+03  0.00000000000E+00 0. -1.
         21    1    1    2  502  503 -0.17172739261E+02 -0.20795438204E+02 -0.19347623835E+03  0.19534689153E+03  0.00000000000E+00 0.  1.
         21    1    1    2  503  501  0.15527087376E+02 -0.12861224972E+02 -0.29409559942E+02  0.35657029687E+02  0.00000000000E+00 0.  1.
<scales pt_clust_5="13000.00000" pt_clust_6="13000.00000" pt_clust_7="13000.00000" pt_clust_8="13000.00000" pt_clust_9="26.97056" pt_clust_10="20.16188"></scales>
<clustering>
<clus scale="   20.162">  1 10  2 -1</clus>
<clus scale="   26.971">  2  9  1 -1</clus>
<clus scale="   90.980">  7  8 -1 -1</clus>
<clus scale="   91.644">  5  6 -1 -1</clus>
<clus scale="  224.452">  2  7  1 -1</clus>
<clus scale="   26.971">  2  5  1 -1</clus>
</clustering>
</event>
<event>
10    2  0.1898324E-006  0.2107216E+03  0.7546771E-02  0.1141028E+00
          1   -1    0    0  502    0  0.00000000000E+00  0.00000000000E+00  0.12818460128E+04  0.12818460128E+04  0.00000000000E+00 0. -1.
         -1   -1    0    0    0  501 -0.00000000000E+00 -0.00000000000E+00 -0.12895248594E+03  0.12895248594E+03  0.00000000000E+00 0.  1.
         23    2    1    2    0    0  0.15660902185E+03  0.20087236862E+02  0.27845277789E+03  0.33293068303E+03  0.91525992917E+02 0.  0.
         23    2    1    2    0    0 -0.18897384958E+03 -0.12063356087E+03  0.64172201873E+03  0.68594238164E+03  0.91903371905E+02 0.  0.
        -11    1    3    3    0    0  0.56919574194E+02  0.32072897949E+02  0.46540407587E+02  0.80215448934E+02  0.00000000000E+00 0.  1.
         11    1    3    3    0    0  0.99689447657E+02 -0.11985661087E+02  0.23191237030E+03  0.25271523410E+03  0.00000000000E+00 0. -1.
        -13    1    4    4    0    0 -0.50467930978E+02 -0.44332724770E+01  0.70664953570E+02  0.86949419924E+02  0.00000000000E+00 0.  1.
         13    1    4    4    0    0 -0.13850591860E+03 -0.11620028840E+03  0.57105706516E+03  0.59899296171E+03  0.00000000000E+00 0. -1.
         21    1    1    2  502  503 -0.14271996420E+02  0.41091523798E+02  0.29241101671E+03  0.29562883131E+03  0.00000000000E+00 0. -1.
         21    1    1    2  503  501  0.46636824145E+02  0.59454800215E+02 -0.59692286482E+02  0.96296602746E+02  0.00000000000E+00 0.  1.
<scales pt_clust_5="13000.00000" pt_clust_6="13000.00000" pt_clust_7="13000.00000" pt_clust_8="13000.00000" pt_clust_9="43.49946" pt_clust_10="76.00251"></scales>
<clustering>
<clus scale="   43.499">  1  9  2 -1</clus>
<clus scale="   76.003">  2 10  1 -1</clus>
<clus scale="   91.526">  5  6 -1 -1</clus>
<clus scale="   91.903">  7  8 -1 -1</clus>
<clus scale="  210.557">  2  5  1 -1</clus>
<clus scale="   43.499">  1  5  2 -1</clus>
</clustering>
</event>
<event>
10    2  0.1898324E-006  0.3435571E+03  0.7546771E-02  0.1065479E+00
         -1   -1    0    0    0  501 -0.00000000000E+00  0.00000000000E+00  0.26488112907E+03  0.26488112907E+03  0.00000000000E+00 0.  1.
          1   -1    0    0  502    0  0.00000000000E+00 -0.00000000000E+00 -0.99367782453E+03  0.99367782453E+03  0.00000000000E+00 0. -1.
         23    2    1    2    0    0 -0.13191929151E+03 -0.34104151507E+03 -0.48150977854E+02  0.37981089901E+03  0.90696129250E+02 0.  0.
         23    2    1    2    0    0  0.12928153567E+03  0.27876203387E+03 -0.69054616685E+03  0.76205113243E+03  0.97190189248E+02 0.  0.
        -11    1    4    4    0    0 -0.15947960925E+02  0.26175888620E+02 -0.56990715375E+02  0.64710557421E+02  0.00000000000E+00 0.  1.
         11    1    4    4    0    0  0.14522949660E+03  0.25258614525E+03 -0.63355545148E+03  0.69734057501E+03  0.00000000000E+00 0. -1.
        -13    1    3    3    0    0 -0.12335081598E+02 -0.14211113327E+03 -0.37342495490E+02  0.14745233266E+03  0.00000000000E+00 0.  1.
         13    1    3    3    0    0 -0.11958420991E+03 -0.19893038180E+03 -0.10808482364E+02  0.23235856635E+03  0.00000000000E+00 0. -1.
         21    1    1    2  502  503 -0.38240072660E+01  0.22018394926E+02 -0.43857898821E+02  0.49223450059E+02  0.00000000000E+00 0.  1.
         21    1    1    2  503  501  0.64617631032E+01  0.40261086274E+02  0.53758348070E+02  0.67473472103E+02  0.00000000000E+00 0. -1.
<scales pt_clust_5="13000.00000" pt_clust_6="13000.00000" pt_clust_7="13000.00000" pt_clust_8="13000.00000" pt_clust_9="22.34799" pt_clust_10="40.92939"></scales>
<clustering>
<clus scale="   22.348">  2  9  1 -1</clus>
<clus scale="   40.929">  1 10  2 -1</clus>
<clus scale="   90.696">  7  8 -1 -1</clus>
<clus scale="   97.190">  5  6 -1 -1</clus>
<clus scale="  341.777">  1  7  2 -1</clus>
<clus scale="   22.348">  2  5  1 -1</clus>
</clustering>
</event>
<event>
10    2  0.1898324E-006  0.1065416E+03  0.7546771E-02  0.1267640E+00
         -1   -1    0    0    0  501 -0.00000000000E+00  0.00000000000E+00  0.14480499923E+03  0.14480499923E+03  0.00000000000E+00 0.  1.
          1   -1    0    0  502    0  0.00000000000E+00 -0.00000000000E+00 -0.28269664266E+03  0.28269664266E+03  0.00000000000E+00 0. -1.
         23    2    1    2    0    0  0.42977357752E+02 -0.65739028490E+02 -0.17297040666E+02  0.12205778544E+03  0.91816350527E+02 0.  0.
         23    2    1    2    0    0  0.48927883987E+02  0.43138284141E+02 -0.15926003432E+02  0.11272995671E+03  0.90551400677E+02 0.  0.
        -11    1    3    3    0    0  0.29547490759E+02 -0.19075885508E+02  0.35744987432E+02  0.50146263516E+02  0.00000000000E+00 0.  1.
         11    1    3    3    0    0  0.13429866993E+02 -0.46663142982E+02 -0.53042028098E+02  0.71911521922E+02  0.00000000000E+00 0. -1.
        -13    1    4    4    0    0  0.68745237293E+02  0.56188755621E+01 -0.13074622024E+02  0.70202743210E+02  0.00000000000E+00 0.  1.
         13    1    4    4    0    0 -0.19817353306E+02  0.37519408579E+02 -0.28513814080E+01  0.42527213501E+02  0.00000000000E+00 0. -1.
         21    1    1    2  502  503 -0.39923966465E+02 -0.21988517338E+01 -0.12530851052E+03  0.13153319298E+03  0.00000000000E+00 0. -1.
         21    1    1    2  503  501 -0.51981275274E+02  0.24799596082E+02  0.20639911187E+02  0.61180706753E+02  0.00000000000E+00 0. -1.
<scales pt_clust_5="13000.00000" pt_clust_6="13000.00000" pt_clust_7="13000.00000" pt_clust_8="13000.00000" pt_clust_9="39.98447" pt_clust_10="62.25507"></scales>
<clustering>
<clus scale="   39.984">  2  9  1 -1</clus>
<clus scale="   62.255">  1 10  2 -1</clus>
<clus scale="   90.551">  7  8 -1 -1</clus>
<clus scale="   91.816">  5  6 -1 -1</clus>
<clus scale="  105.453">  2  7  1 -1</clus>
<clus scale="   39.984">  2  5  1 -1</clus>
</clustering>
</event>
<event>
10    2  0.1898324E-006  0.1083232E+03  0.7546771E-02  0.1265102E+00
         -1   -1    0    0    0  501 -0.00000000000E+00  0.00000000000E+00  0.19420681442E+03  0.19420681442E+03  0.00000000000E+00 0.  1.
          1   -1    0    0  502    0  0.00000000000E+00 -0.00000000000E+00 -0.16659981559E+03  0.16659981559E+03  0.00000000000E+00 0. -1.
         23    2    1    2    0    0  0.75720467501E+02 -0.36149427442E+02  0.69126571681E+02  0.14365449762E+03  0.93902936438E+02 0.  0.
         23    2    1    2    0    0 -0.36182793099E+02  0.42927333024E+02 -0.65193469863E+02  0.12489196189E+03  0.90531006812E+02 0.  0.
        -13    1    4    4    0    0  0.26932665331E+02  0.56041994406E+01 -0.37506854365E+02  0.46513865004E+02  0.00000000000E+00 0.  1.
         13    1    4    4    0    0 -0.63115458431E+02  0.37323133584E+02 -0.27686615498E+02  0.78378096884E+02  0.00000000000E+00 0. -1.
        -13    1    3    3    0    0  0.74880213262E+02  0.11263227760E+02  0.27517735077E+02  0.80567564078E+02  0.00000000000E+00 0.  1.
         13    1    3    3    0    0  0.84025423910E+00 -0.47412655202E+02  0.41608836603E+02  0.63086933544E+02  0.00000000000E+00 0. -1.
         21    1    1    2  502  503  0.10021464059E+01 -0.22990274248E+02 -0.20011846425E+02  0.30496409702E+02  0.00000000000E+00 0.  1.
         21    1    1    2  503  501 -0.40539820808E+02  0.16212368666E+02  0.43685743428E+02  0.61763760797E+02  0.00000000000E+00 0. -1.
<scales pt_clust_5="13000.00000" pt_clust_6="13000.00000" pt_clust_7="13000.00000" pt_clust_8="13000.00000" pt_clust_9="23.01211" pt_clust_10="43.07686"></scales>
<clustering>
<clus scale="   23.012">  2  9  1 -1</clus>
<clus scale="   43.077">  1 10  2 -1</clus>
<clus scale="   90.531">  5  6 -1 -1</clus>
<clus scale="   93.903">  7  8 -1 -1</clus>
<clus scale="  105.414">  2  5  1 -1</clus>
<clus scale="   23.012">  2  5  1 -1</clus>
</clustering>
</event>
<event>
10    2  0.1898324E-006  0.1419249E+03  0.7546771E-02  0.1213007E+00
         -2   -1    0    0    0  501 -0.00000000000E+00  0.00000000000E+00  0.25298925951E+03  0.25298925951E+03  0.00000000000E+00 0.  1.
          2   -1    0    0  502    0  0.00000000000E+00 -0.00000000000E+00 -0.30292266206E+03  0.30292266206E+03  0.00000000000E+00 0. -1.
         23    2    1    2    0    0  0.95210946195E+02  0.31586019151E+02  0.60444279059E+02  0.14651716045E+03  0.88039573796E+02 0.  0.
         23    2    1    2    0    0 -0.89738000565E+02 -0.45023115798E+02 -0.93701872140E+02  0.16866292308E+03  0.97913998381E+02 0.  0.
        -13    1    4    4    0    0 -0.18027733352E+02 -0.17611346781E+02  0.19512972597E+02  0.31873418467E+02  0.00000000000E+00 0.  1.
         13    1    4    4    0    0 -0.71710267213E+02 -0.27411769018E+02 -0.11321484474E+03  0.13678950462E+03  0.00000000000E+00 0. -1.
        -13    1    3    3    0    0  0.66592912273E+01 -0.26075854462E+02  0.19305690808E+02  0.33121081552E+02  0.00000000000E+00 0.  1.
         13    1    3    3    0    0  0.88551654967E+02  0.57661873613E+02  0.41138588251E+02  0.11339607890E+03  0.00000000000E+00 0. -1.
         21    1    1    2  502  503 -0.21848996593E+02  0.49914562301E+02 -0.11899550215E+03  0.13087693347E+03  0.00000000000E+00 0. -1.
         21    1    1    2  503  501  0.16376050964E+02 -0.36477465653E+02  0.10231969269E+03  0.10985490457E+03  0.00000000000E+00 0.  1.
<scales pt_clust_5="13000.00000" pt_clust_6="13000.00000" pt_clust_7="13000.00000" pt_clust_8="13000.00000" pt_clust_9="52.87017" pt_clust_10="39.98475"></scales>
<clustering>
<clus scale="   39.985">  1 10  2 -1</clus>
<clus scale="   52.870">  2  9  1 -1</clus>
<clus scale="   88.040">  7  8 -1 -1</clus>
<clus scale="   97.914">  5  6 -1 -1</clus>
<clus scale="  135.301">  1  7  2 -1</clus>
<clus scale="   52.870">  2  5  1 -1</clus>
</clustering>
</event>
<event>
10    2  0.1898324E-006  0.3086129E+03  0.7546771E-02  0.1081587E+00
          1   -1    0    0  502    0  0.00000000000E+00  0.00000000000E+00  0.37450044512E+03  0.37450044512E+03  0.00000000000E+00 0. -1.
         -1   -1    0    0    0  501 -0.00000000000E+00 -0.00000000000E+00 -0.80074459516E+03  0.80074459516E+03  0.00000000000E+00 0.  1.
         23    2    1    2    0    0 -0.20417532593E+03  0.21941810640E+03 -0.56191325169E+03  0.64346886249E+03  0.92053274954E+02 0.  0.
         23    2    1    2    0    0  0.28213979776E+03 -0.70008560370E+02  0.64337723364E+02  0.31624606362E+03  0.10662160241E+03 0.  0.
        -13    1    3    3    0    0 -0.63772514076E+02  0.81377194138E+02 -0.11236882715E+03  0.15269556180E+03  0.00000000000E+00 0. -1.
         13    1    3    3    0    0 -0.14040281186E+03  0.13804091226E+03 -0.44954442454E+03  0.49077330069E+03  0.00000000000E+00 0.  1.
        -13    1    4    4    0    0  0.13345369879E+03  0.82074695326E+00  0.71486179516E+02  0.15139629192E+03  0.00000000000E+00 0.  1.
         13    1    4    4    0    0  0.14868609897E+03 -0.70829307323E+02 -0.71484561513E+01  0.16484977169E+03  0.00000000000E+00 0. -1.
         21    1    1    2  502  503 -0.63031321080E+02 -0.12857108588E+03  0.10181603208E+03  0.17569853713E+03  0.00000000000E+00 0. -1.
         21    1    1    2  503  501 -0.14933150744E+02 -0.20838460155E+02 -0.30484653798E+02  0.39831577046E+02  0.00000000000E+00 0.  1.
<scales pt_clust_5="13000.00000" pt_clust_6="13000.00000" pt_clust_7="13000.00000" pt_clust_8="13000.00000" pt_clust_9="144.41051" pt_clust_10="25.63670"></scales>
<clustering>
<clus scale="   25.637">  2 10  1 -1</clus>
<clus scale="   92.053">  5  6 -1 -1</clus>
<clus scale="  106.622">  7  8 -1 -1</clus>
<clus scale="  144.411">  1  9  2 -1</clus>
<clus scale="  303.887">  2  5  1 -1</clus>
<clus scale="  144.411">  1  5  2 -1</clus>
</clustering>
</event>
<event>
10    2  0.1898324E-006  0.1289006E+03  0.7546771E-02  0.1229764E+00
         -1   -1    0    0    0  501 -0.00000000000E+00  0.00000000000E+00  0.70456799931E+03  0.70456799931E+03  0.00000000000E+00 0.  1.
          1   -1    0    0  502    0  0.00000000000E+00 -0.00000000000E+00 -0.54207390678E+02  0.54207390678E+02  0.00000000000E+00 0. -1.
         23    2    1    2    0    0  0.32857554523E+02  0.99966847205E+02  0.37954432381E+03  0.40487655297E+03  0.93798400734E+02 0.  0.
         23    2    1    2    0    0  0.41260538418E+01 -0.77615586590E+02  0.96097853304E+02  0.15369389341E+03  0.91355415056E+02 0.  0.
        -11    1    3    3    0    0  0.13910783722E+02  0.43475672143E+02  0.41727158485E+02  0.61844965254E+02  0.00000000000E+00 0. -1.
         11    1    3    3    0    0  0.18946770801E+02  0.56491175062E+02  0.33781716533E+03  0.34303158772E+03  0.00000000000E+00 0.  1.
        -11    1    4    4    0    0 -0.31845076161E+02 -0.42690887823E+01  0.51282609639E+02  0.60516444427E+02  0.00000000000E+00 0.  1.
         11    1    4    4    0    0  0.35971130003E+02 -0.73346497808E+02  0.44815243665E+02  0.93177448984E+02  0.00000000000E+00 0. -1.
         21    1    1    2  502  503 -0.20236917559E+02 -0.84534252955E+01 -0.21187880479E+01  0.22033667291E+02  0.00000000000E+00 0.  1.
         21    1    1    2  503  501 -0.16746690806E+02 -0.13897835319E+02  0.17683721956E+03  0.17817127631E+03  0.00000000000E+00 0.  1.
<scales pt_clust_5="13000.00000" pt_clust_6="13000.00000" pt_clust_7="13000.00000" pt_clust_8="13000.00000" pt_clust_9="22.32502" pt_clust_10="21.76239"></scales>
<clustering>
<clus scale="   21.762">  1 10  2 -1</clus>
<clus scale="   22.325">  2  9  1 -1</clus>
<clus scale="   91.355">  7  8 -1 -1</clus>
<clus scale="   93.798">  5  6 -1 -1</clus>
<clus scale="  127.134">  2  7  1 -1</clus>
<clus scale="   22.325">  2  5  1 -1</clus>
</clustering>
</event>
<event>
10    2  0.1898324E-006  0.1264397E+03  0.7546771E-02  0.1233007E+00
          1   -1    0    0  502    0  0.00000000000E+00  0.00000000000E+00  0.44211368913E+03  0.44211368913E+03  0.00000000000E+00 0. -1.
         -1   -1    0    0    0  501 -0.00000000000E+00 -0.00000000000E+00 -0.11531090992E+03  0.11531090992E+03  0.00000000000E+00 0.  1.
         23    2    1    2    0    0 -0.29954582192E+02  0.99585052705E+02 -0.38106994647E+02  0.14336346571E+03  0.91030107895E+02 0.  0.
         23    2    1    2    0    0  0.17120563799E+02 -0.18885149948E+02  0.18806082733E+03  0.21074833675E+03  0.91641824912E+02 0.  0.
        -11    1    4    4    0    0  0.43051660782E+02 -0.57110606648E+01  0.37423484640E+02  0.57328691880E+02  0.00000000000E+00 0.  1.
         11    1    4    4    0    0 -0.25931096983E+02 -0.13174089283E+02  0.15063734269E+03  0.15341964487E+03  0.00000000000E+00 0. -1.
        -13    1    3    3    0    0  0.29940093729E+02  0.54686421568E+02 -0.25936241043E+02  0.67525569348E+02  0.00000000000E+00 0.  1.
         13    1    3    3    0    0 -0.59894675920E+02  0.44898631137E+02 -0.12170753604E+02  0.75837896364E+02  0.00000000000E+00 0. -1.
         21    1    1    2  502  503 -0.15039056693E+02 -0.22668878549E+02  0.97008022158E+02  0.10075022404E+03  0.00000000000E+00 0. -1.
         21    1    1    2  503  501  0.27873075086E+02 -0.58031024208E+02  0.79840924367E+02  0.10256257256E+03  0.00000000000E+00 0.  1.
<scales pt_clust_5="13000.00000" pt_clust_6="13000.00000" pt_clust_7="13000.00000" pt_clust_8="13000.00000" pt_clust_9="27.20388" pt_clust_10="68.35994"></scales>
<clustering>
<clus scale="   27.204">  1  9  2 -1</clus>
<clus scale="   68.360">  1 10  2 -1</clus>
<clus scale="   91.030">  7  8 -1 -1</clus>
<clus scale="   91.642">  5  6 -1 -1</clus>
<clus scale="  125.997">  2  7  1 -1</clus>
<clus scale="   27.204">  1  5  2 -1</clus>
</clustering>
</event>
<event>
10    2  0.1898324E-006  0.9784607E+02  0.7546771E-02  0.1286994E+00
         -4   -1    0    0    0  501 -0.00000000000E+00  0.00000000000E+00  0.43565258471E+02  0.43565258471E+02  0.00000000000E+00 0.  1.
          4   -1    0    0  502    0  0.00000000000E+00 -0.00000000000E+00 -0.42325870794E+03  0.42325870794E+03  0.00000000000E+00 0. -1.
         23    2    1    2    0    0 -0.44593546582E+01 -0.30977210680E+01 -0.56946521720E+02  0.10996619396E+03  0.93915790782E+02 0.  0.
         23    2    1    2    0    0  0.36567355127E+01 -0.15227938125E+02 -0.17384998614E+03  0.20004662309E+03  0.97721911137E+02 0.  0.
        -11    1    3    3    0    0  0.41866708739E+01  0.45002647136E+02 -0.27892162735E+02  0.53110631744E+02  0.00000000000E+00 0.  1.
         11    1    3    3    0    0 -0.86460255322E+01 -0.48100368204E+02 -0.29054358985E+02  0.56855562216E+02  0.00000000000E+00 0. -1.
        -13    1    4    4    0    0  0.35411035896E+02 -0.34096551578E+02 -0.47309780445E+02  0.68225593574E+02  0.00000000000E+00 0.  1.
         13    1    4    4    0    0 -0.31754300384E+02  0.18868613453E+02 -0.12654020569E+03  0.13182102952E+03  0.00000000000E+00 0. -1.
         21    1    1    2  502  503  0.20626448366E+02  0.37578210261E+01 -0.98796478152E+02  0.10099661225E+03  0.00000000000E+00 0.  1.
         21    1    1    2  503  501 -0.19823829220E+02  0.14567838167E+02 -0.50100463462E+02  0.55814537111E+02  0.00000000000E+00 0. -1.
<scales pt_clust_5="13000.00000" pt_clust_6="13000.00000" pt_clust_7="13000.00000" pt_clust_8="13000.00000" pt_clust_9="20.96596" pt_clust_10="22.38294"></scales>
<clustering>
<clus scale="   20.966">  2  9  1 -1</clus>
<clus scale="   22.383">  2 10  1 -1</clus>
<clus scale="   93.916">  5  6 -1 -1</clus>
<clus scale="   94.045">  1  5  2 -1</clus>
<clus scale="   97.722">  7  8 -1 -1</clus>
<clus scale="   20.966">  2  5  1 -1</clus>
</clustering>
</event>
<event>
10    2  0.1898324E-006  0.1726690E+03  0.7546771E-02  0.1176516E+00
         -3   -1    0    0    0  501 -0.00000000000E+00  0.00000000000E+00  0.11160276262E+03  0.11160276262E+03  0.00000000000E+00 0.  1.
          3   -1    0    0  502    0  0.00000000000E+00 -0.00000000000E+00 -0.10288425265E+04  0.10288425265E+04  0.00000000000E+00 0. -1.
         23    2    1    2    0    0 -0.72640050962E+02  0.11677643524E+03 -0.23931173437E+03  0.29108968687E+03  0.92465057001E+02 0.  0.
         23    2    1    2    0    0 -0.32026347985E+02 -0.15052646818E+03 -0.64523485352E+03  0.66835643641E+03  0.81782671206E+02 0.  0.
        -11    1    3    3    0    0  0.19730157394E+01  0.76404862550E+02 -0.80274588528E+02  0.11084045009E+03  0.00000000000E+00 0.  1.
         11    1    3    3    0    0 -0.74613066702E+02  0.40371572686E+02 -0.15903714584E+03  0.18024923679E+03  0.00000000000E+00 0. -1.
        -11    1    4    4    0    0 -0.49716349849E+02 -0.14102832559E+03 -0.60725970086E+03  0.62539991073E+03  0.00000000000E+00 0. -1.
         11    1    4    4    0    0  0.17690001864E+02 -0.94981425915E+01 -0.37975152661E+02  0.42956525678E+02  0.00000000000E+00 0.  1.
         21    1    1    2  502  503  0.53527526208E+01 -0.23003551402E+02 -0.59065363303E+02  0.63612361062E+02  0.00000000000E+00 0. -1.
         21    1    1    2  503  501  0.99313646326E+02  0.56753584345E+02  0.26372187273E+02  0.11738680481E+03  0.00000000000E+00 0.  1.
<scales pt_clust_5="13000.00000" pt_clust_6="13000.00000" pt_clust_7="13000.00000" pt_clust_8="13000.00000" pt_clust_9="23.61811" pt_clust_10="114.07278"></scales>
<clustering>
<clus scale="   23.618">  2  9  1 -1</clus>
<clus scale="   81.783">  7  8 -1 -1</clus>
<clus scale="   92.465">  5  6 -1 -1</clus>
<clus scale="  114.073">  1 10  2 -1</clus>
<clus scale="  167.192">  2  7  1 -1</clus>
<clus scale="   23.618">  2  5  1 -1</clus>
</clustering>
</event>
<event>
10    2  0.1898324E-006  0.1373392E+03  0.7546771E-02  0.1217209E+00
         -2   -1    0    0    0  501 -0.00000000000E+00  0.00000000000E+00  0.21342259020E+03  0.21342259020E+03  0.00000000000E+00 0.  1.
          2   -1    0    0  502    0  0.00000000000E+00 -0.00000000000E+00 -0.58476164616E+03  0.58476164616E+03  0.00000000000E+00 0. -1.
         23    2    1    2    0    0  0.43661964323E+02  0.58400980559E+02  0.85300938666E+02  0.14441616041E+03  0.90899590714E+02 0.  0.
         23    2    1    2    0    0 -0.13825941406E+03  0.57796473169E+02 -0.19362464463E+03  0.26078290882E+03  0.89783766013E+02 0.  0.
        -13    1    3    3    0    0 -0.49371247067E+01  0.48652675666E+02  0.38309900412E+01  0.49052365229E+02  0.00000000000E+00 0. -1.
         13    1    3    3    0    0  0.48599089030E+02  0.97483048928E+01  0.81469948624E+02  0.95363795183E+02  0.00000000000E+00 0.  1.
        -13    1    4    4    0    0 -0.47242616523E+02 -0.17363974032E+02 -0.28607970710E+02  0.57894631861E+02  0.00000000000E+00 0.  1.
         13    1    4    4    0    0 -0.91016797535E+02  0.75160447201E+02 -0.16501667392E+03  0.20288827696E+03  0.00000000000E+00 0. -1.
         21    1    1    2  502  503  0.26494956951E+02 -0.57086749326E+02 -0.29165556275E+03  0.29836864275E+03  0.00000000000E+00 0. -1.
         21    1    1    2  503  501  0.68102492784E+02 -0.59110704402E+02  0.28640212749E+02  0.94616524374E+02  0.00000000000E+00 0.  1.
<scales pt_clust_5="13000.00000" pt_clust_6="13000.00000" pt_clust_7="13000.00000" pt_clust_8="13000.00000" pt_clust_9="62.93552" pt_clust_10="96.76046"></scales>
<clustering>
<clus scale="   62.936">  2  9  1 -1</clus>
<clus scale="   89.784">  7  8 -1 -1</clus>
<clus scale="   90.900">  5  6 -1 -1</clus>
<clus scale="   96.760">  1 10  2 -1</clus>
<clus scale="  136.603">  2  7  1 -1</clus>
<clus scale="   62.936">  2  5  1 -1</clus>
</clustering>
</event>
<event>
10    2  0.1898324E-006  0.1175256E+03  0.7546771E-02  0.1247699E+00
         -1   -1    0    0    0  501 -0.00000000000E+00  0.00000000000E+00  0.53043027234E+02  0.53043027234E+02  0.00000000000E+00 0.  1.
          1   -1    0    0  502    0  0.00000000000E+00 -0.00000000000E+00 -0.81135808888E+03  0.81135808888E+03  0.00000000000E+00 0. -1.
         23    2    1    2    0    0 -0.74434772823E+02  0.28601262320E+02 -0.13488713021E+03  0.18176761321E+03  0.92121439984E+02 0.  0.
         23    2    1    2    0    0  0.52914164995E+02  0.42235217963E+02 -0.28832720997E+03  0.31057531036E+03  0.93491822631E+02 0.  0.
        -13    1    4    4    0    0 -0.16137965753E+02  0.41784249190E+02 -0.89202771417E+02  0.99817292327E+02  0.00000000000E+00 0.  1.
         13    1    4    4    0    0  0.69052130748E+02  0.45096877260E+00 -0.19912443856E+03  0.21075801803E+03  0.00000000000E+00 0. -1.
        -13    1    3    3    0    0 -0.81878120781E+02 -0.95932400306E+01 -0.83845971139E+02  0.11758487910E+03  0.00000000000E+00 0.  1.
         13    1    3    3    0    0  0.74433479577E+01  0.38194502350E+02 -0.51041159068E+02  0.64182734109E+02  0.00000000000E+00 0. -1.
         21    1    1    2  502  503  0.41097373369E+02 -0.53555397818E+02 -0.33899962850E+03  0.34565578667E+03  0.00000000000E+00 0. -1.
         21    1    1    2  503  501 -0.19576765541E+02 -0.17281082464E+02  0.38989070364E+01  0.26402405880E+02  0.00000000000E+00 0.  1.
<scales pt_clust_5="13000.00000" pt_clust_6="13000.00000" pt_clust_7="13000.00000" pt_clust_8="13000.00000" pt_clust_9="67.70288" pt_clust_10="26.11294"></scales>
<clustering>
<clus scale="   26.113">  1 10  2 -1</clus>
<clus scale="   67.703">  2  9  1 -1</clus>
<clus scale="   92.121">  7  8 -1 -1</clus>
<clus scale="   93.492">  5  6 -1 -1</clus>
<clus scale="  116.438">  1  7  2 -1</clus>
<clus scale="   67.703">  2  5  1 -1</clus>
</clustering>
</event>
<event>
10    2  0.1898324E-006  0.1911957E+03  0.7546771E-02  0.1157481E+00
          1   -1    0    0  502    0  0.00000000000E+00  0.00000000000E+00  0.38127655237E+03  0.38127655237E+03  0.00000000000E+00 0. -1.
         -1   -1    0    0    0  501 -0.00000000000E+00 -0.00000000000E+00 -0.30273019346E+03  0.30273019346E+03  0.00000000000E+00 0.  1.
         23    2    1    2    0    0  0.60649357891E+02  0.16361028757E+03 -0.16914855866E+03  0.25940752736E+03  0.90743371919E+02 0.  0.
         23    2    1    2    0    0 -0.81572275570E+02 -0.12546182103E+03  0.23591773647E+03  0.29401623312E+03  0.91616932271E+02 0.  0.
        -11    1    4    4    0    0  0.14441253778E+02 -0.40256810229E+02  0.33504108875E+02  0.54329420133E+02  0.00000000000E+00 0.  1.
         11    1    4    4    0    0 -0.96013529348E+02 -0.85205010804E+02  0.20241362759E+03  0.23968681299E+03  0.00000000000E+00 0. -1.
        -13    1    3    3    0    0  0.54035233861E+02  0.14004891006E+03 -0.17848267914E+03  0.23321571658E+03  0.00000000000E+00 0.  1.
         13    1    3    3    0    0  0.66141240303E+01  0.23561377509E+02  0.93341204860E+01  0.26191810782E+02  0.00000000000E+00 0. -1.
         21    1    1    2  502  503 -0.20114828094E+01 -0.23559851912E+02  0.65902431799E+02  0.70016021039E+02  0.00000000000E+00 0.  1.
         21    1    1    2  503  501  0.22934400488E+02 -0.14588614622E+02 -0.54125250699E+02  0.60566964309E+02  0.00000000000E+00 0.  1.
<scales pt_clust_5="13000.00000" pt_clust_6="13000.00000" pt_clust_7="13000.00000" pt_clust_8="13000.00000" pt_clust_9="23.64556" pt_clust_10="27.29453"></scales>
<clustering>
<clus scale="   23.646">  1  9  2 -1</clus>
<clus scale="   27.295">  2 10  1 -1</clus>
<clus scale="   90.743">  7  8 -1 -1</clus>
<clus scale="   91.617">  5  6 -1 -1</clus>
<clus scale="  190.779">  2  7  1 -1</clus>
<clus scale="   23.646">  1  5  2 -1</clus>
</clustering>
</event>
<event>
10    2  0.1898324E-006  0.9448558E+02  0.7546771E-02  0.1292662E+00
         -1   -1    0    0    0  501 -0.00000000000E+00  0.00000000000E+00  0.10727471085E+03  0.10727471085E+03  0.00000000000E+00 0.  1.
          1   -1    0    0  502    0  0.00000000000E+00 -0.00000000000E+00 -0.37423997057E+03  0.37423997057E+03  0.00000000000E+00 0. -1.
         23    2    1    2    0    0 -0.44433437141E+01  0.66968802795E+01 -0.28823407490E+02  0.95529718978E+02  0.90722361520E+02 0.  0.
         23    2    1    2    0    0 -0.53157943574E+01 -0.21585567320E+02 -0.19947291716E+03  0.22050188752E+03  0.91309601525E+02 0.  0.
        -11    1    4    4    0    0 -0.26994172004E+02 -0.20648462310E+02 -0.19551298946E+03  0.19844488748E+03  0.00000000000E+00 0. -1.
         11    1    4    4    0    0  0.21678377647E+02 -0.93710501023E+00 -0.39599276987E+01  0.22057000036E+02  0.00000000000E+00 0.  1.
        -11    1    3    3    0    0 -0.41123975853E+01  0.38184876512E+02  0.15283852054E+02  0.41335127213E+02  0.00000000000E+00 0.  1.
         11    1    3    3    0    0 -0.33094612879E+00 -0.31487996232E+02 -0.44107259544E+02  0.54194591765E+02  0.00000000000E+00 0. -1.
         21    1    1    2  502  503  0.23904786852E+02 -0.10330010950E+02 -0.96969804862E+02  0.10040563239E+03  0.00000000000E+00 0.  1.
         21    1    1    2  503  501 -0.14145648780E+02  0.25218697991E+02  0.58300869799E+02  0.65077442536E+02  0.00000000000E+00 0.  1.
<scales pt_clust_5="13000.00000" pt_clust_6="13000.00000" pt_clust_7="13000.00000" pt_clust_8="13000.00000" pt_clust_9="26.04127" pt_clust_10="28.66116"></scales>
<clustering>
<clus scale="   26.041">  2  9  1 -1</clus>
<clus scale="   28.661">  1 10  2 -1</clus>
<clus scale="   90.722">  7  8 -1 -1</clus>
<clus scale="   91.310">  5  6 -1 -1</clus>
<clus scale="   93.918">  1  7  2 -1</clus>
<clus scale="   26.041">  2  5  1 -1</clus>
</clustering>
</event>
<event>
10    2  0.1898324E-006  0.1937793E+03  0.7546771E-02  0.1155548E+00
          1   -1    0    0  502    0  0.00000000000E+00  0.00000000000E+00  0.20017505562E+03  0.20017505562E+03  0.00000000000E+00 0. -1.
         -1   -1    0    0    0  501 -0.00000000000E+00 -0.00000000000E+00 -0.36512179085E+03  0.36512179085E+03  0.00000000000E+00 0.  1.
         23    2    1    2    0    0  0.12310205054E+03 -0.63549248286E+02 -0.73848085690E+02  0.18439745358E+03  0.96727758810E+02 0.  0.
         23    2    1    2    0    0 -0.20961122830E+03  0.20853074278E+02 -0.11734637812E+03  0.25828125453E+03  0.92559798222E+02 0.  0.
        -13    1    4    4    0    0 -0.24648820816E+02  0.10212330015E+02  0.14990122356E+02  0.30603264861E+02  0.00000000000E+00 0.  1.
         13    1    4    4    0    0 -0.18496240749E+03  0.10640744263E+02 -0.13233650048E+03  0.22767798967E+03  0.00000000000E+00 0. -1.
        -13    1    3    3    0    0  0.62820582915E+02 -0.65134508687E+02 -0.83734743833E+02  0.12329005306E+03  0.00000000000E+00 0.  1.
         13    1    3    3    0    0  0.60281467622E+02  0.15852604011E+01  0.98866581432E+01  0.61107400521E+02  0.00000000000E+00 0. -1.
         21    1    1    2  502  503  0.77105355142E+02  0.12965276150E+02  0.40815998798E+02  0.88200226389E+02  0.00000000000E+00 0.  1.
         21    1    1    2  503  501  0.94038226227E+01  0.29730897858E+02 -0.14568270217E+02  0.34417911971E+02  0.00000000000E+00 0.  1.
<scales pt_clust_5="13000.00000" pt_clust_6="13000.00000" pt_clust_7="13000.00000" pt_clust_8="13000.00000" pt_clust_9="79.19928" pt_clust_10="31.18266"></scales>
<clustering>
<clus scale="   31.183">  2 10  1 -1</clus>
<clus scale="   79.199">  1  9  2 -1</clus>
<clus scale="   92.560">  5  6 -1 -1</clus>
<clus scale="   96.728">  7  8 -1 -1</clus>
<clus scale="  191.733">  1  5  2 -1</clus>
<clus scale="   79.199">  1  5  2 -1</clus>
</clustering>
</event>
<event>
10    2  0.1898324E-006  0.3977420E+03  0.7546771E-02  0.1044586E+00
          1   -1    0    0  502    0  0.00000000000E+00  0.00000000000E+00  0.32143218240E+03  0.32143218240E+03  0.00000000000E+00 0. -1.
         -1   -1    0    0    0  501 -0.00000000000E+00 -0.00000000000E+00 -0.11401267720E+04  0.11401267720E+04  0.00000000000E+00 0.  1.
         23    2    1    2    0    0  0.35980284236E+03 -0.47048823591E+02 -0.68267851127E+03  0.77849930569E+03  0.91321093085E+02 0.  0.
         23    2    1    2    0    0 -0.43069423984E+03 -0.43991251119E+01  0.44812947568E+02  0.44278816378E+03  0.92391975761E+02 0.  0.
        -11    1    4    4    0    0 -0.10269224921E+03  0.38546560661E+02  0.91290400518E+01  0.11006759177E+03  0.00000000000E+00 0. -1.
         11    1    4    4    0    0 -0.32800199063E+03 -0.42945685773E+02  0.35683907516E+02  0.33272057201E+03  0.00000000000E+00 0.  1.
        -11    1    3    3    0    0  0.50780785443E+02 -0.20136460968E+02 -0.17723805224E+03  0.18546560973E+03  0.00000000000E+00 0.  1.
         11    1    3    3    0    0  0.30902205691E+03 -0.26912362623E+02 -0.50544045903E+03  0.59303369596E+03  0.00000000000E+00 0. -1.
         21    1    1    2  502  503  0.49740571744E+02  0.55717465957E+02 -0.19078284603E+02  0.77087881236E+02  0.00000000000E+00 0.  1.
         21    1    1    2  503  501  0.21150825736E+02 -0.42695172539E+01 -0.16175074127E+03  0.16318360368E+03  0.00000000000E+00 0. -1.
<scales pt_clust_5="13000.00000" pt_clust_6="13000.00000" pt_clust_7="13000.00000" pt_clust_8="13000.00000" pt_clust_9="75.23145" pt_clust_10="21.57745"></scales>
<clustering>
<clus scale="   21.577">  2 10  1 -1</clus>
<clus scale="   75.231">  1  9  2 -1</clus>
<clus scale="   91.321">  7  8 -1 -1</clus>
<clus scale="   92.392">  5  6 -1 -1</clus>
<clus scale="  397.495">  2  7  1 -1</clus>
<clus scale="   75.231">  1  5  2 -1</clus>
</clustering>
</event>
<event>
10    2  0.1898324E-006  0.9775386E+02  0.7546771E-02  0.1285545E+00
          1   -1    0    0  502    0  0.00000000000E+00  0.00000000000E+00  0.19183470054E+03  0.19183470054E+03  0.00000000000E+00 0. -1.
         -1   -1    0    0    0  501 -0.00000000000E+00 -0.00000000000E+00 -0.38978419043E+03  0.38978419043E+03  0.00000000000E+00 0.  1.
         23    2    1    2    0    0  0.23381671714E+02  0.53709137685E+02 -0.24257816600E+03  0.26568705096E+03  0.91181513394E+02 0.  0.
         23    2    1    2    0    0 -0.13075994974E+02 -0.10485605692E+02 -0.71247663889E+02  0.11622901742E+03  0.90288566876E+02 0.  0.
        -11    1    3    3    0    0  0.55222406233E+00  0.74150059683E+02 -0.13735550142E+03  0.15609314550E+03  0.00000000000E+00 0.  1.
         11    1    3    3    0    0  0.22829447652E+02 -0.20440921998E+02 -0.10522266458E+03  0.10959390546E+03  0.00000000000E+00 0. -1.
        -11    1    4    4    0    0  0.30065851454E+02 -0.13300131922E+02  0.16210985917E-01  0.32876271011E+02  0.00000000000E+00 0. -1.
         11    1    4    4    0    0 -0.43141846428E+02  0.28145262303E+01 -0.71263874875E+02  0.83352746405E+02  0.00000000000E+00 0.  1.
         21    1    1    2  502  503 -0.24907521332E+01 -0.22447284627E+02  0.15396787167E+03  0.15561551960E+03  0.00000000000E+00 0. -1.
         21    1    1    2  503  501 -0.78149246071E+01 -0.20776247366E+02 -0.38091531669E+02  0.44087303004E+02  0.00000000000E+00 0. -1.
<scales pt_clust_5="13000.00000" pt_clust_6="13000.00000" pt_clust_7="13000.00000" pt_clust_8="13000.00000" pt_clust_9="22.63588" pt_clust_10="22.19742"></scales>
<clustering>
<clus scale="   22.197">  2 10  1 -1</clus>
<clus scale="   22.636">  1  9  2 -1</clus>
<clus scale="   90.289">  7  8 -1 -1</clus>
<clus scale="   91.182">  5  6 -1 -1</clus>
<clus scale="   96.921">  1  7  2 -1</clus>
<clus scale="   22.636">  1  5  2 -1</clus>
</clustering>
</event>
<event>
10    2  0.1898324E-006  0.9819171E+02  0.7546771E-02  0.1285125E+00
         -1   -1    0    0    0  501 -0.00000000000E+00  0.00000000000E+00  0.61809728894E+02  0.61809728894E+02  0.00000000000E+00 0.  1.
          1   -1    0    0  502    0  0.00000000000E+00 -0.00000000000E+00 -0.27684888032E+03  0.27684888032E+03  0.00000000000E+00 0. -1.
         23    2    1    2    0    0 -0.92140975209E+00  0.23549305939E+02 -0.71614665341E+02  0.11842429206E+03  0.91324880797E+02 0.  0.
         23    2    1    2    0    0  0.35445629982E+02 -0.30037353330E+02 -0.12271868620E+03  0.16096343005E+03  0.93224002219E+02 0.  0.
        -11    1    3    3    0    0  0.32069273755E+02  0.39990131290E+02 -0.61774865292E+02  0.80273176725E+02  0.00000000000E+00 0. -1.
         11    1    3    3    0    0 -0.32990683507E+02 -0.16440825351E+02 -0.98398000490E+01  0.38151115338E+02  0.00000000000E+00 0.  1.
        -11    1    4    4    0    0  0.36157069309E+02 -0.60631875896E+02 -0.66648408406E+02  0.97085366450E+02  0.00000000000E+00 0. -1.
         11    1    4    4    0    0 -0.71143932703E+00  0.30594522566E+02 -0.56070277793E+02  0.63878063595E+02  0.00000000000E+00 0.  1.
         21    1    1    2  502  503 -0.11989371356E+02  0.16510914102E+02 -0.26975128695E+02  0.33823259425E+02  0.00000000000E+00 0. -1.
         21    1    1    2  503  501 -0.22534848874E+02 -0.10022866711E+02  0.62693288096E+01  0.25447627681E+02  0.00000000000E+00 0.  1.
<scales pt_clust_5="13000.00000" pt_clust_6="13000.00000" pt_clust_7="13000.00000" pt_clust_8="13000.00000" pt_clust_9="20.40479" pt_clust_10="24.84058"></scales>
<clustering>
<clus scale="   20.405">  2  9  1 -1</clus>
<clus scale="   24.841">  1 10  2 -1</clus>
<clus scale="   91.325">  5  6 -1 -1</clus>
<clus scale="   93.224">  7  8 -1 -1</clus>
<clus scale="   96.391">  1  5  2 -1</clus>
<clus scale="   20.405">  2  5  1 -1</clus>
</clustering>
</event>
<event>
10    2  0.1898324E-006  0.1047801E+03  0.7546771E-02  0.1271136E+00
          1   -1    0    0  502    0  0.00000000000E+00  0.00000000000E+00  0.40070380520E+03  0.40070380520E+03  0.00000000000E+00 0. -1.
         -1   -1    0    0    0  501 -0.00000000000E+00 -0.00000000000E+00 -0.18151404718E+03  0.18151404718E+03  0.00000000000E+00 0.  1.
         23    2    1    2    0    0 -0.40224215218E+02 -0.44065003932E+02 -0.11103499868E+03  0.15553581552E+03  0.91120288183E+02 0.  0.
         23    2    1    2    0    0  0.83616841254E+02  0.49264846556E+02  0.11554146771E+03  0.17696296338E+03  0.92451383985E+02 0.  0.
        -11    1    3    3    0    0 -0.26257558411E+02  0.26044113538E+02 -0.44668414677E+02  0.57991572607E+02  0.00000000000E+00 0.  1.
         11    1    3    3    0    0 -0.13966656806E+02 -0.70109117470E+02 -0.66366583998E+02  0.97544242917E+02  0.00000000000E+00 0. -1.
        -13    1    4    4    0    0  0.24546550549E+02  0.52960446671E+02  0.14958370686E+02  0.60258567101E+02  0.00000000000E+00 0.  1.
         13    1    4    4    0    0  0.59070290705E+02 -0.36956001156E+01  0.10058309703E+03  0.11670439628E+03  0.00000000000E+00 0. -1.
         21    1    1    2  502  503 -0.67696258288E+02 -0.18266633660E+02  0.21042381739E+03  0.22179863890E+03  0.00000000000E+00 0. -1.
         21    1    1    2  503  501  0.24303632251E+02  0.13066791036E+02  0.42594715858E+01  0.27920434574E+02  0.00000000000E+00 0. -1.
<scales pt_clust_5="13000.00000" pt_clust_6="13000.00000" pt_clust_7="13000.00000" pt_clust_8="13000.00000" pt_clust_9="69.21717" pt_clust_10="27.59361"></scales>
<clustering>
<clus scale="   27.594">  2 10  1 -1</clus>
<clus scale="   69.217">  1  9  2 -1</clus>
<clus scale="   91.120">  5  6 -1 -1</clus>
<clus scale="   92.451">  7  8 -1 -1</clus>
<clus scale="  103.607">  2  5  1 -1</clus>
<clus scale="   69.217">  1  5  2 -1</clus>
</clustering>
</event>
<event>
10    2  0.1898324E-006  0.1281944E+03  0.7546771E-02  0.1230889E+00
         -2   -1    0    0    0  501 -0.00000000000E+00  0.00000000000E+00  0.10568158582E+03  0.10568158582E+03  0.00000000000E+00 0.  1.
          2   -1    0    0  502    0  0.00000000000E+00 -0.00000000000E+00 -0.26392793510E+03  0.26392793510E+03  0.00000000000E+00 0. -1.
         23    2    1    2    0    0  0.44139961296E+02 -0.69669397759E+02 -0.12058946218E+02  0.12111642827E+03  0.87872691129E+02 0.  0.
         23    2    1    2    0    0 -0.66445319103E+02  0.59835683253E+02 -0.14517050850E+03  0.19307668636E+03  0.90602653679E+02 0.  0.
        -13    1    4    4    0    0 -0.53857210263E+02  0.82294596147E+02 -0.95283302827E+02  0.13693760422E+03  0.00000000000E+00 0. -1.
         13    1    4    4    0    0 -0.12588108840E+02 -0.22458912894E+02 -0.49887205678E+02  0.56139082134E+02  0.00000000000E+00 0.  1.
        -13    1    3    3    0    0  0.23746626475E+02 -0.88699878350E+02 -0.15102870992E+02  0.93057333942E+02  0.00000000000E+00 0.  1.
         13    1    3    3    0    0  0.20393334821E+02  0.19030480590E+02  0.30439247732E+01  0.28059094331E+02  0.00000000000E+00 0. -1.
         21    1    1    2  502  503  0.75509861032E+01  0.23486517510E+02 -0.16809467750E+02  0.29852840767E+02  0.00000000000E+00 0. -1.
         21    1    1    2  503  501  0.14754371704E+02 -0.13652803003E+02  0.15792573193E+02  0.25563565523E+02  0.00000000000E+00 0.  1.
<scales pt_clust_5="13000.00000" pt_clust_6="13000.00000" pt_clust_7="13000.00000" pt_clust_8="13000.00000" pt_clust_9="24.06044" pt_clust_10="20.10200"></scales>
<clustering>
<clus scale="   20.102">  1 10  2 -1</clus>
<clus scale="   24.060">  2  9  1 -1</clus>
<clus scale="   87.873">  7  8 -1 -1</clus>
<clus scale="   90.603">  5  6 -1 -1</clus>
<clus scale="  126.280">  1  7  2 -1</clus>
<clus scale="   24.060">  2  5  1 -1</clus>
</clustering>
</event>
<event>
10    2  0.1898324E-006  0.9698567E+02  0.7546771E-02  0.1291554E+00
          2   -1    0    0  502    0  0.00000000000E+00  0.00000000000E+00  0.31747264618E+03  0.31747264618E+03  0.00000000000E+00 0. -1.
         -2   -1    0    0    0  501 -0.00000000000E+00 -0.00000000000E+00 -0.14837122924E+03  0.14837122924E+03  0.00000000000E+00 0.  1.
         23    2    1    2    0    0  0.32592716467E+02 -0.33069144058E+02  0.68061941895E+02  0.12590282674E+03  0.95201052471E+02 0.  0.
         23    2    1    2    0    0  0.13272275908E+02 -0.10994922445E+00  0.14358964842E+03  0.16825893997E+03  0.86700163479E+02 0.  0.
        -11    1    3    3    0    0  0.38419263621E+01 -0.50059316987E+02  0.13087634241E+00  0.50206700190E+02  0.00000000000E+00 0.  1.
         11    1    3    3    0    0  0.28750790105E+02  0.16990172929E+02  0.67931065552E+02  0.75696126551E+02  0.00000000000E+00 0. -1.
        -11    1    4    4    0    0  0.15544483811E+02  0.38625158326E+02  0.40397361286E+02  0.58012762660E+02  0.00000000000E+00 0. -1.
         11    1    4    4    0    0 -0.22722079025E+01 -0.38735107550E+02  0.10319228714E+03  0.11024617731E+03  0.00000000000E+00 0.  1.
         21    1    1    2  502  503 -0.29784989493E+02  0.13330422041E+02  0.58753546080E+02  0.67207327933E+02  0.00000000000E+00 0. -1.
         21    1    1    2  503  501 -0.16080002882E+02  0.19848671241E+02 -0.10130371946E+03  0.10447478078E+03  0.00000000000E+00 0. -1.
<scales pt_clust_5="13000.00000" pt_clust_6="13000.00000" pt_clust_7="13000.00000" pt_clust_8="13000.00000" pt_clust_9="34.76612" pt_clust_10="25.54479"></scales>
<clustering>
<clus scale="   25.545">  2 10  1 -1</clus>
<clus scale="   34.766">  1  9  2 -1</clus>
<clus scale="   86.700">  7  8 -1 -1</clus>
<clus scale="   88.656">  1  7  2 -1</clus>
<clus scale="   95.201">  5  6 -1 -1</clus>
<clus scale="   34.766">  1  5  2 -1</clus>
</clustering>
</event>
<event>
10    2  0.1898324E-006  0.9323116E+02  0.7546771E-02  0.1296061E+00
         -1   -1    0    0    0  501 -0.00000000000E+00  0.00000000000E+00  0.77089115942E+02  0.77089115942E+02  0.00000000000E+00 0.  1.
          1   -1    0    0  502    0  0.00000000000E+00 -0.00000000000E+00 -0.51361321806E+03  0.51361321806E+03  0.00000000000E+00 0. -1.
         23    2    1    2    0    0 -0.29611817401E+01 -0.94272789702E+01  0.24399349245E+02  0.93307236135E+02  0.89516869279E+02 0.  0.
         23    2    1    2    0    0  0.18540482602E+02 -0.32037084804E+02 -0.33465836524E+03  0.34878321837E+03  0.91013118258E+02 0.  0.
        -11    1    4    4    0    0 -0.24131948703E+02  0.19698766399E+02 -0.10170677534E+03  0.10637039295E+03  0.00000000000E+00 0.  1.
         11    1    4    4    0    0  0.42672431305E+02 -0.51735851203E+02 -0.23295158990E+03  0.24241282542E+03  0.00000000000E+00 0. -1.
        -11    1    3    3    0    0  0.80824572275E+01  0.38038054762E+02  0.21623969385E+02  0.44495120821E+02  0.00000000000E+00 0.  1.
         11    1    3    3    0    0 -0.11043638968E+02 -0.47465333733E+02  0.27753798603E+01  0.48812115313E+02  0.00000000000E+00 0. -1.
         21    1    1    2  502  503  0.28667807216E+01  0.26006936168E+02 -0.12123401766E+03  0.12402526436E+03  0.00000000000E+00 0. -1.
         21    1    1    2  503  501 -0.18446081584E+02  0.15457427606E+02 -0.50310684586E+01  0.24586615135E+02  0.00000000000E+00 0.  1.
<scales pt_clust_5="13000.00000" pt_clust_6="13000.00000" pt_clust_7="13000.00000" pt_clust_8="13000.00000" pt_clust_9="26.44438" pt_clust_10="24.06637"></scales>
<clustering>
<clus scale="   24.066">  1 10  2 -1</clus>
<clus scale="   26.444">  2  9  1 -1</clus>
<clus scale="   89.517">  7  8 -1 -1</clus>
<clus scale="   91.013">  5  6 -1 -1</clus>
<clus scale="   91.771">  1  7  2 -1</clus>
<clus scale="   26.444">  2  5  1 -1</clus>
</clustering>
</event>
<event>
10    2  0.1898324E-006  0.1148626E+03  0.7546771E-02  0.1252382E+00
          1   -1    0    0  502    0  0.00000000000E+00  0.00000000000E+00  0.60309515766E+02  0.60309515766E+02  0.00000000000E+00 0. -1.
         -1   -1    0    0    0  501 -0.00000000000E+00 -0.00000000000E+00 -0.43068112075E+03  0.43068112075E+03  0.00000000000E+00 0.  1.
         23    2    1    2    0    0 -0.51853755767E+02 -0.29572737071E+02 -0.20173459866E+03  0.22928400625E+03  0.91164403458E+02 0.  0.
         23    2    1    2    0    0  0.79659229842E+02 -0.85852487912E+01 -0.77977160512E+02  0.14324594567E+03  0.89552576699E+02 0.  0.
        -11    1    3    3    0    0 -0.36224220678E+02  0.11825715534E+02 -0.21616675763E+02  0.43810071703E+02  0.00000000000E+00 0.  1.
         11    1    3    3    0    0 -0.15629535089E+02 -0.41398452605E+02 -0.18011792290E+03  0.18547393454E+03  0.00000000000E+00 0. -1.
        -11    1    4    4    0    0  0.71228694061E+02 -0.31397477649E+02 -0.19993288400E+02  0.80368277581E+02  0.00000000000E+00 0. -1.
         11    1    4    4    0    0  0.84305357804E+01  0.22812228858E+02 -0.57983872112E+02  0.62877668088E+02  0.00000000000E+00 0.  1.
         21    1    1    2  502  503 -0.54858144239E+01  0.39240816968E+02 -0.20064393668E+02  0.44413013515E+02  0.00000000000E+00 0. -1.
         21    1    1    2  503  501 -0.22319659651E+02 -0.10828311060E+01 -0.70595452143E+02  0.74047671087E+02  0.00000000000E+00 0.  1.
<scales pt_clust_5="13000.00000" pt_clust_6="13000.00000" pt_clust_7="13000.00000" pt_clust_8="13000.00000" pt_clust_9="39.85426" pt_clust_10="22.34591"></scales>
<clustering>
<clus scale="   22.346">  2 10  1 -1</clus>
<clus scale="   39.854">  1  9  2 -1</clus>
<clus scale="   89.553">  7  8 -1 -1</clus>
<clus scale="   91.164">  5  6 -1 -1</clus>
<clus scale="  113.588">  1  7  2 -1</clus>
<clus scale="   39.854">  1  5  2 -1</clus>
</clustering>
</event>
<event>
10    2  0.1898324E-006  0.1932863E+03  0.7546771E-02  0.1171655E+00
          3   -1    0    0  502    0  0.00000000000E+00  0.00000000000E+00  0.14637384745E+03  0.14637384745E+03  0.00000000000E+00 0. -1.
         -3   -1    0    0    0  501 -0.00000000000E+00 -0.00000000000E+00 -0.52059621951E+03  0.52059621951E+03  0.00000000000E+00 0.  1.
         23    2    1    2    0    0  0.23717696797E+03 -0.31274925615E+02 -0.19758446478E+03  0.32227494066E+03  0.87123369695E+02 0.  0.
         23    2    1    2    0    0 -0.92046751307E+02 -0.27118711743E+01 -0.85557728313E+02  0.15531260707E+03  0.91224571090E+02 0.  0.
        -13    1    3    3    0    0  0.21290237362E+03  0.24729290320E+01 -0.16170448282E+03  0.26736094673E+03  0.00000000000E+00 0. -1.
         13    1    3    3    0    0  0.24274594352E+02 -0.33747854647E+02 -0.35879981966E+02  0.54913993937E+02  0.00000000000E+00 0.  1.
        -13    1    4    4    0    0 -0.33810677859E+02  0.41445113361E+02 -0.19906499617E+02  0.57071254461E+02  0.00000000000E+00 0.  1.
         13    1    4    4    0    0 -0.58236073447E+02 -0.44156984535E+02 -0.65651228695E+02  0.98241352612E+02  0.00000000000E+00 0. -1.
         21    1    1    2  502  503 -0.17769671893E+02 -0.14587824525E+02  0.38005198326E+01  0.23302570986E+02  0.00000000000E+00 0. -1.
         21    1    1    2  503  501 -0.12736054477E+03  0.48574621314E+02 -0.94880698796E+02  0.16607994823E+03  0.00000000000E+00 0.  1.
<scales pt_clust_5="13000.00000" pt_clust_6="13000.00000" pt_clust_7="13000.00000" pt_clust_8="13000.00000" pt_clust_9="22.99056" pt_clust_10="172.53731"></scales>
<clustering>
<clus scale="   22.991">  1  9  2 -1</clus>
<clus scale="   87.123">  5  6 -1 -1</clus>
<clus scale="   91.225">  7  8 -1 -1</clus>
<clus scale="  133.109">  1  7  2 -1</clus>
<clus scale="  172.537">  2 10  1 -1</clus>
<clus scale="   22.991">  1  5  2 -1</clus>
</clustering>
</event>
<event>
10    2  0.1898324E-006  0.2783870E+03  0.7546771E-02  0.1096837E+00
          2   -1    0    0  502    0  0.00000000000E+00  0.00000000000E+00  0.25832843117E+03  0.25832843117E+03  0.00000000000E+00 0. -1.
         -2   -1    0    0    0  501 -0.00000000000E+00 -0.00000000000E+00 -0.65770486431E+03  0.65770486431E+03  0.00000000000E+00 0.  1.
         23    2    1    2    0    0 -0.77390448305E+02  0.20540371726E+03 -0.45118143093E+03  0.51071175316E+03  0.95298702245E+02 0.  0.
         23    2    1    2    0    0  0.11616907202E+03 -0.25665813674E+03  0.54425019058E+02  0.30058808612E+03  0.89568199551E+02 0.  0.
        -13    1    4    4    0    0  0.58082753064E+02 -0.84825860098E+02 -0.19639443545E+02  0.10466489616E+03  0.00000000000E+00 0.  1.
         13    1    4    4    0    0  0.58086318959E+02 -0.17183227664E+03  0.74064462603E+02  0.19592318996E+03  0.00000000000E+00 0. -1.
        -13    1    3    3    0    0  0.13955344964E+02  0.37078510932E+02 -0.36180908457E+02  0.53652826233E+02  0.00000000000E+00 0. -1.
         13    1    3    3    0    0 -0.91345793269E+02  0.16832520633E+03 -0.41500052247E+03  0.45705892693E+03  0.00000000000E+00 0.  1.
         21    1    1    2  502  503 -0.24360469566E+02  0.37139189164E+01  0.34727422885E+02  0.42581916014E+02  0.00000000000E+00 0. -1.
         21    1    1    2  503  501 -0.14418154152E+02  0.47540500562E+02 -0.37347444146E+02  0.62151540182E+02  0.00000000000E+00 0.  1.
<scales pt_clust_5="13000.00000" pt_clust_6="13000.00000" pt_clust_7="13000.00000" pt_clust_8="13000.00000" pt_clust_9="24.64195" pt_clust_10="50.29426"></scales>
<clustering>
<clus scale="   24.642">  1  9  2 -1</clus>
<clus scale="   50.294">  2 10  1 -1</clus>
<clus scale="   89.568">  5  6 -1 -1</clus>
<clus scale="   95.299">  7  8 -1 -1</clus>
<clus scale="  276.478">  1  5  2 -1</clus>
<clus scale="   24.642">  1  5  2 -1</clus>
</clustering>
</event>
<event>
10    2  0.1898324E-006  0.1188783E+03  0.7546771E-02  0.1246443E+00
          1   -1    0    0  502    0  0.00000000000E+00  0.00000000000E+00  0.76125076936E+02  0.76125076936E+02  0.00000000000E+00 0. -1.
         -1   -1    0    0    0  501 -0.00000000000E+00 -0.00000000000E+00 -0.67704369073E+03  0.67704369073E+03  0.00000000000E+00 0.  1.
         23    2    1    2    0    0  0.33335369427E+02 -0.88266760741E+02 -0.14774821954E+03  0.19831722083E+03  0.92724946988E+02 0.  0.
         23    2    1    2    0    0  0.23709770854E+02  0.60941527068E+02 -0.82392889820E+02  0.13727021382E+03  0.88195806890E+02 0.  0.
        -11    1    4    4    0    0  0.36711085646E+02  0.77500223439E+02 -0.51972439915E+02  0.10027523599E+03  0.00000000000E+00 0.  1.
         11    1    4    4    0    0 -0.13001314792E+02 -0.16558696371E+02 -0.30420449904E+02  0.36994977824E+02  0.00000000000E+00 0. -1.
        -11    1    3    3    0    0 -0.15758407466E+02 -0.22175846584E+02  0.21585349030E+01  0.27290196967E+02  0.00000000000E+00 0. -1.
         11    1    3    3    0    0  0.49093776894E+02 -0.66090914158E+02 -0.14990675444E+03  0.17102702386E+03  0.00000000000E+00 0.  1.
         21    1    1    2  502  503  0.78318448532E+01  0.19167186325E+02  0.15464760341E+02  0.25843328691E+02  0.00000000000E+00 0.  1.
         21    1    1    2  503  501 -0.64876985134E+02  0.81580473486E+01 -0.38624226478E+03  0.39173800433E+03  0.00000000000E+00 0.  1.
<scales pt_clust_5="13000.00000" pt_clust_6="13000.00000" pt_clust_7="13000.00000" pt_clust_8="13000.00000" pt_clust_9="20.70553" pt_clust_10="65.12895"></scales>
<clustering>
<clus scale="   20.706">  1  9  2 -1</clus>
<clus scale="   65.129">  2 10  1 -1</clus>
<clus scale="   88.196">  5  6 -1 -1</clus>
<clus scale="   92.725">  7  8 -1 -1</clus>
<clus scale="  115.380">  1  5  2 -1</clus>
<clus scale="   20.706">  1  5  2 -1</clus>
</clustering>
</event>
<event>
10    2  0.1898324E-006  0.9177047E+02  0.7546771E-02  0.1299462E+00
         -2   -1    0    0    0  501 -0.00000000000E+00  0.00000000000E+00  0.90967372337E+02  0.90967372337E+02  0.00000000000E+00 0.  1.
          2   -1    0    0  502    0  0.00000000000E+00 -0.00000000000E+00 -0.56526985265E+03  0.56526985265E+03  0.00000000000E+00 0. -1.
         23    2    1    2    0    0 -0.57008063790E+01  0.19986224166E+02  0.23366599437E+02  0.94962425375E+02  0.89665578201E+02 0.  0.
         23    2    1    2    0    0  0.11483803620E+02 -0.37084592541E+02 -0.35550739125E+03  0.36903991631E+03  0.91092314980E+02 0.  0.
        -11    1    4    4    0    0 -0.32238285499E+02 -0.43192154446E+02 -0.16935942751E+03  0.17772868352E+03  0.00000000000E+00 0. -1.
         11    1    4    4    0    0  0.43722089120E+02  0.61075619057E+01 -0.18614796374E+03  0.19131123279E+03  0.00000000000E+00 0.  1.
        -13    1    3    3    0    0 -0.53043048448E+01 -0.26957053411E+02  0.36993512393E+02  0.46079695503E+02  0.00000000000E+00 0. -1.
         13    1    3    3    0    0 -0.39650153427E+00  0.46943277577E+02 -0.13626912955E+02  0.48882729872E+02  0.00000000000E+00 0.  1.
         21    1    1    2  502  503 -0.91046878340E+01  0.70909929133E+02 -0.10391441006E+03  0.12613214502E+03  0.00000000000E+00 0.  1.
         21    1    1    2  503  501  0.33216905926E+01 -0.53811560758E+02 -0.38247278444E+02  0.66102738280E+02  0.00000000000E+00 0. -1.
<scales pt_clust_5="13000.00000" pt_clust_6="13000.00000" pt_clust_7="13000.00000" pt_clust_8="13000.00000" pt_clust_9="63.73685" pt_clust_10="53.91398"></scales>
<clustering>
<clus scale="   53.914">  1 10  2 -1</clus>
<clus scale="   63.737">  2  9  1 -1</clus>
<clus scale="   89.666">  7  8 -1 -1</clus>
<clus scale="   90.354">  1  7  2 -1</clus>
<clus scale="   91.092">  5  6 -1 -1</clus>
<clus scale="   63.737">  2  5  1 -1</clus>
</clustering>
</event>
<event>
10    2  0.1898324E-006  0.9747271E+02  0.7546771E-02  0.1287339E+00
         -1   -1    0    0    0  501 -0.00000000000E+00  0.00000000000E+00  0.40894251453E+03  0.40894251453E+03  0.00000000000E+00 0.  1.
          1   -1    0    0  502    0  0.00000000000E+00 -0.00000000000E+00 -0.13277034506E+03  0.13277034506E+03  0.00000000000E+00 0. -1.
         23    2    1    2    0    0  0.49736657100E+02 -0.40713942763E+01  0.21776877731E+03  0.24091120730E+03  0.90136885458E+02 0.  0.
         23    2    1    2    0    0 -0.97465522364E+01  0.16387798657E+02 -0.30867022518E+02  0.10004630101E+03  0.93235905327E+02 0.  0.
        -11    1    3    3    0    0  0.49628051951E+02 -0.41927925710E+02  0.13017311821E+03  0.14548517175E+03  0.00000000000E+00 0.  1.
         11    1    3    3    0    0  0.10860514918E+00  0.37856531434E+02  0.87595659100E+02  0.95426035548E+02  0.00000000000E+00 0. -1.
        -13    1    4    4    0    0 -0.17146429479E+02  0.46414434125E+02 -0.44221091214E+02  0.66361168217E+02  0.00000000000E+00 0. -1.
         13    1    4    4    0    0  0.73998772424E+01 -0.30026635468E+02  0.13354068697E+02  0.33685132796E+02  0.00000000000E+00 0.  1.
         21    1    1    2  502  503 -0.17882100819E+02 -0.26012315812E+02 -0.49971087243E+02  0.59106003619E+02  0.00000000000E+00 0. -1.
         21    1    1    2  503  501 -0.22108004045E+02  0.13695911432E+02  0.13924150192E+03  0.14164934765E+03  0.00000000000E+00 0. -1.
<scales pt_clust_5="13000.00000" pt_clust_6="13000.00000" pt_clust_7="13000.00000" pt_clust_8="13000.00000" pt_clust_9="31.59011" pt_clust_10="26.00657"></scales>
<clustering>
<clus scale="   26.007">  1 10  2 -1</clus>
<clus scale="   31.590">  2  9  1 -1</clus>
<clus scale="   90.137">  5  6 -1 -1</clus>
<clus scale="   93.236">  7  8 -1 -1</clus>
<clus scale="   94.513">  1  5  2 -1</clus>
<clus scale="   31.590">  2  5  1 -1</clus>
</clustering>
</event>
<event>
10    2  0.1898324E-006  0.1218730E+03  0.7546771E-02  0.1241238E+00
          3   -1    0    0  502    0  0.00000000000E+00  0.00000000000E+00  0.58177292221E+03  0.58177292221E+03  0.00000000000E+00 0. -1.
         -3   -1    0    0    0  501 -0.00000000000E+00 -0.00000000000E+00 -0.49345288003E+02  0.49345288003E+02  0.00000000000E+00 0.  1.
         23    2    1    2    0    0 -0.21493043311E+02  0.11060032379E+03  0.22025843595E+03  0.26337913813E+03  0.90334983592E+02 0.  0.
         23    2    1    2    0    0 -0.20217046506E+02 -0.57685883686E+02  0.23696654618E+03  0.26221279669E+03  0.94159527368E+02 0.  0.
        -11    1    3    3    0    0  0.28057342247E+02  0.14411588247E+02  0.25411023435E+02  0.40504671851E+02  0.00000000000E+00 0.  1.
         11    1    3    3    0    0 -0.49550385558E+02  0.96188735547E+02  0.19484741251E+03  0.22287446628E+03  0.00000000000E+00 0. -1.
        -11    1    4    4    0    0 -0.21582798187E+02 -0.80419826405E+02  0.21504226043E+03  0.23059995540E+03  0.00000000000E+00 0.  1.
         11    1    4    4    0    0  0.13657516811E+01  0.22733942719E+02  0.21924285742E+02  0.31612841291E+02  0.00000000000E+00 0. -1.
         21    1    1    2  502  503  0.12331659317E+02 -0.17064348895E+02  0.46407509349E+02  0.50959972024E+02  0.00000000000E+00 0. -1.
         21    1    1    2  503  501  0.29378430500E+02 -0.35850091212E+02  0.28795142729E+02  0.54566303369E+02  0.00000000000E+00 0.  1.
<scales pt_clust_5="13000.00000" pt_clust_6="13000.00000" pt_clust_7="13000.00000" pt_clust_8="13000.00000" pt_clust_9="20.67106" pt_clust_10="74.02943"></scales>
<clustering>
<clus scale="   20.671">  9 10 -1 -1</clus>
<clus scale="   74.029">  2  9  1 -1</clus>
<clus scale="   90.335">  5  6 -1 -1</clus>
<clus scale="   94.160">  7  8 -1 -1</clus>
<clus scale="  118.943">  2  5  1 -1</clus>
<clus scale="  121.873">  1  5  2 -1</clus>
</clustering>
</event>
<event>
10    2  0.1898324E-006  0.1334538E+03  0.7546771E-02  0.1223314E+00
         -1   -1    0    0    0  501 -0.00000000000E+00  0.00000000000E+00  0.12910428550E+03  0.12910428550E+03  0.00000000000E+00 0.  1.
          1   -1    0    0  502    0  0.00000000000E+00 -0.00000000000E+00 -0.53171913784E+03  0.53171913784E+03  0.00000000000E+00 0. -1.
         23    2    1    2    0    0  0.50320212804E+02  0.42865262203E+02  0.52535708371E+02  0.12310443890E+03  0.89583188731E+02 0.  0.
         23    2    1    2    0    0 -0.12018473649E+03 -0.68000987382E+02 -0.36816079706E+03  0.40409127565E+03  0.93160514144E+02 0.  0.
        -11    1    4    4    0    0  0.10341793103E+02 -0.27524356404E+02 -0.78053367668E+02  0.83407859848E+02  0.00000000000E+00 0.  1.
         11    1    4    4    0    0 -0.13052652959E+03 -0.40476630978E+02 -0.29010742939E+03  0.32068341580E+03  0.00000000000E+00 0. -1.
        -13    1    3    3    0    0  0.21257885543E+02 -0.10466877883E+02  0.57474573241E+02  0.62167353166E+02  0.00000000000E+00 0. -1.
         13    1    3    3    0    0  0.29062327261E+02  0.53332140086E+02 -0.49388648701E+01  0.60937085737E+02  0.00000000000E+00 0.  1.
         21    1    1    2  502  503  0.32523821685E+02  0.29417308852E+02 -0.85408233995E+02  0.96009080151E+02  0.00000000000E+00 0.  1.
         21    1    1    2  503  501  0.37340702002E+02 -0.42815836736E+01 -0.15815296587E+01  0.37618628641E+02  0.00000000000E+00 0.  1.
<scales pt_clust_5="13000.00000" pt_clust_6="13000.00000" pt_clust_7="13000.00000" pt_clust_8="13000.00000" pt_clust_9="45.05851" pt_clust_10="37.58537"></scales>
<clustering>
<clus scale="   37.585">  1 10  2 -1</clus>
<clus scale="   45.059">  2  9  1 -1</clus>
<clus scale="   89.583">  7  8 -1 -1</clus>
<clus scale="   93.161">  5  6 -1 -1</clus>
<clus scale="  130.982">  1  7  2 -1</clus>
<clus scale="   45.059">  2  5  1 -1</clus>
</clustering>
</event>
<event>
10    2  0.1898324E-006  0.1313057E+03  0.7546771E-02  0.1228430E+00
          3   -1    0    0  502    0  0.00000000000E+00  0.00000000000E+00  0.25789024158E+03  0.25789024158E+03  0.00000000000E+00 0. -1.
         -3   -1    0    0    0  501 -0.00000000000E+00 -0.00000000000E+00 -0.36865335720E+03  0.36865335720E+03  0.00000000000E+00 0.  1.
         23    2    1    2    0    0  0.12738344715E+01 -0.86121465676E+02 -0.13853793812E+03  0.18600164196E+03  0.89360623362E+02 0.  0.
         23    2    1    2    0    0  0.39152275407E+02  0.63485379665E+02  0.15641268282E+03  0.19991955676E+03  0.99697581349E+02 0.  0.
        -11    1    4    4    0    0 -0.36696650948E+01 -0.23608215333E+02  0.14347830697E+02  0.27868880832E+02  0.00000000000E+00 0.  1.
         11    1    4    4    0    0  0.42821940502E+02  0.87093594997E+02  0.14206485213E+03  0.17205067593E+03  0.00000000000E+00 0. -1.
        -13    1    3    3    0    0 -0.43126462825E+02 -0.49895797310E+02 -0.63170443620E+02  0.91323531098E+02  0.00000000000E+00 0.  1.
         13    1    3    3    0    0  0.44400297297E+02 -0.36225668366E+02 -0.75367494499E+02  0.94678110858E+02  0.00000000000E+00 0. -1.
         21    1    1    2  502  503 -0.11906558153E+02  0.20574768287E+02  0.52294829397E+02  0.57444202482E+02  0.00000000000E+00 0. -1.
         21    1    1    2  503  501 -0.28519551725E+02  0.20613177247E+01 -0.18093268972E+03  0.18317819758E+03  0.00000000000E+00 0.  1.
<scales pt_clust_5="13000.00000" pt_clust_6="13000.00000" pt_clust_7="13000.00000" pt_clust_8="13000.00000" pt_clust_9="23.77156" pt_clust_10="28.66803"></scales>
<clustering>
<clus scale="   23.772">  1  9  2 -1</clus>
<clus scale="   28.668">  2 10  1 -1</clus>
<clus scale="   89.361">  7  8 -1 -1</clus>
<clus scale="   99.698">  5  6 -1 -1</clus>
<clus scale="  123.640">  2  7  1 -1</clus>
<clus scale="   23.772">  1  5  2 -1</clus>
</clustering>
</event>
<event>
10    2  0.1898324E-006  0.9355627E+02  0.7546771E-02  0.1296220E+00
          2   -1    0    0  502    0  0.00000000000E+00  0.00000000000E+00  0.26570172424E+03  0.26570172424E+03  0.00000000000E+00 0. -1.
         -2   -1    0    0    0  501 -0.00000000000E+00 -0.00000000000E+00 -0.31948976897E+03  0.31948976897E+03  0.00000000000E+00 0.  1.
         23    2    1    2    0    0 -0.15672761143E+01  0.20823944797E+02 -0.27410622161E+03  0.28847221495E+03  0.87440865969E+02 0.  0.
         23    2    1    2    0    0  0.38399333622E+02 -0.66696365264E+02  0.10061597201E+03  0.15571095877E+03  0.90550620630E+02 0.  0.
        -11    1    4    4    0    0  0.47522232509E+02 -0.24789176786E+02  0.87259553195E+01  0.54304771104E+02  0.00000000000E+00 0.  1.
         11    1    4    4    0    0 -0.91228988873E+01 -0.41907188478E+02  0.91890016692E+02  0.10140618767E+03  0.00000000000E+00 0. -1.
        -11    1    3    3    0    0  0.54898655099E+01 -0.32632930756E+02 -0.14159588024E+03  0.14541127912E+03  0.00000000000E+00 0. -1.
         11    1    3    3    0    0 -0.70571416242E+01  0.53456875553E+02 -0.13251034137E+03  0.14306093583E+03  0.00000000000E+00 0.  1.
         21    1    1    2  502  503 -0.11894224798E-01  0.36494874828E+02  0.60944474066E+02  0.71035941251E+02  0.00000000000E+00 0.  1.
         21    1    1    2  503  501 -0.36820163283E+02  0.93775456381E+01  0.58757730800E+02  0.69972378230E+02  0.00000000000E+00 0. -1.
<scales pt_clust_5="13000.00000" pt_clust_6="13000.00000" pt_clust_7="13000.00000" pt_clust_8="13000.00000" pt_clust_9="36.49488" pt_clust_10="42.46039"></scales>
<clustering>
<clus scale="   36.495">  1  9  2 -1</clus>
<clus scale="   42.460">  1 10  2 -1</clus>
<clus scale="   87.441">  7  8 -1 -1</clus>
<clus scale="   90.550">  2  7  1 -1</clus>
<clus scale="   90.551">  5  6 -1 -1</clus>
<clus scale="   36.495">  1  5  2 -1</clus>
</clustering>
</event>
<event>
10    2  0.1898324E-006  0.1097839E+03  0.7546771E-02  0.1262221E+00
          2   -1    0    0  503    0  0.00000000000E+00  0.00000000000E+00  0.36954140896E+03  0.36954140896E+03  0.00000000000E+00 0. -1.
         -2   -1    0    0    0  501 -0.00000000000E+00 -0.00000000000E+00 -0.73131718560E+02  0.73131718560E+02  0.00000000000E+00 0.  1.
         23    2    1    2    0    0 -0.78182060024E+02 -0.25781099418E+02  0.11147989651E+03  0.16586969959E+03  0.91147629253E+02 0.  0.
         23    2    1    2    0    0  0.44332880405E+02 -0.49914057548E+01  0.17566978008E+03  0.20429080016E+03  0.94257843062E+02 0.  0.
        -13    1    4    4    0    0 -0.18267456709E+02 -0.15027584502E+02  0.78957054769E+01  0.24937330160E+02  0.00000000000E+00 0. -1.
         13    1    4    4    0    0  0.62600337114E+02  0.10036178747E+02  0.16777407460E+03  0.17935347000E+03  0.00000000000E+00 0.  1.
        -13    1    3    3    0    0 -0.86915105099E+02 -0.47211393291E+02  0.82614030479E+02  0.12887291873E+03  0.00000000000E+00 0.  1.
         13    1    3    3    0    0  0.87330450746E+01  0.21430293874E+02  0.28865866035E+02  0.36996780857E+02  0.00000000000E+00 0. -1.
         21    1    1    2  502  501 -0.81688932623E+01  0.20554571148E+02  0.17853015345E+02  0.28424485380E+02  0.00000000000E+00 0. -1.
         21    1    1    2  503  502  0.42018072881E+02  0.10217934025E+02 -0.85930015379E+01  0.44088142394E+02  0.00000000000E+00 0. -1.
<scales pt_clust_5="13000.00000" pt_clust_6="13000.00000" pt_clust_7="13000.00000" pt_clust_8="13000.00000" pt_clust_9="22.11835" pt_clust_10="42.89785"></scales>
<clustering>
<clus scale="   22.118">  2  9  1 -1</clus>
<clus scale="   42.898">  2 10  1 -1</clus>
<clus scale="   91.148">  7  8 -1 -1</clus>
<clus scale="   94.258">  5  6 -1 -1</clus>
<clus scale="  107.125">  2  7  1 -1</clus>
<clus scale="  109.784">  1  5  2 -1</clus>
</clustering>
</event>
<event>
10    2  0.1898324E-006  0.1346321E+03  0.7546771E-02  0.1231199E+00
         -3   -1    0    0    0  501 -0.00000000000E+00  0.00000000000E+00  0.53674811222E+03  0.53674811222E+03  0.00000000000E+00 0.  1.
          3   -1    0    0  502    0  0.00000000000E+00 -0.00000000000E+00 -0.61321735767E+02  0.61321735767E+02  0.00000000000E+00 0. -1.
         23    2    1    2    0    0  0.36806080563E+02 -0.30172003756E+02  0.30321860138E+03  0.32001286849E+03  0.90563118317E+02 0.  0.
         23    2    1    2    0    0 -0.32344703105E+02  0.55476037255E+02  0.59897165996E+02  0.14934830260E+03  0.12080345387E+03 0.  0.
        -11    1    3    3    0    0 -0.24810122394E+02 -0.27984041101E+02  0.77917576670E+02  0.86427990164E+02  0.00000000000E+00 0. -1.
         11    1    3    3    0    0  0.61616202957E+02 -0.21879626554E+01  0.22530102471E+03  0.23358487833E+03  0.00000000000E+00 0.  1.
        -11    1    4    4    0    0 -0.30518305494E+02  0.89727360992E+02  0.64642693896E+02  0.11472159411E+03  0.00000000000E+00 0. -1.
         11    1    4    4    0    0 -0.18263976120E+01 -0.34251323736E+02 -0.47455278995E+01  0.34626708492E+02  0.00000000000E+00 0.  1.
         21    1    1    2  502  503 -0.22500680924E+02 -0.34465660460E+02  0.61345554753E+02  0.73874484640E+02  0.00000000000E+00 0.  1.
         21    1    1    2  503  501  0.18039303467E+02  0.91616269611E+01  0.50965054318E+02  0.54834192251E+02  0.00000000000E+00 0.  1.
<scales pt_clust_5="13000.00000" pt_clust_6="13000.00000" pt_clust_7="13000.00000" pt_clust_8="13000.00000" pt_clust_9="38.73597" pt_clust_10="20.23245"></scales>
<clustering>
<clus scale="   20.232">  1 10  2 -1</clus>
<clus scale="   38.736">  1  9  2 -1</clus>
<clus scale="   90.563">  5  6 -1 -1</clus>
<clus scale="  108.324">  1  5  2 -1</clus>
<clus scale="  120.803">  7  8 -1 -1</clus>
<clus scale="  134.632">  2  5  1 -1</clus>
</clustering>
</event>
<event>
10    2  0.1898324E-006  0.9843760E+02  0.7546771E-02  0.1283636E+00
          3   -1    0    0  502    0  0.00000000000E+00  0.00000000000E+00  0.12179816075E+03  0.12179816075E+03  0.00000000000E+00 0. -1.
         -3   -1    0    0    0  501 -0.00000000000E+00 -0.00000000000E+00 -0.19959502612E+03  0.19959502612E+03  0.00000000000E+00 0.  1.
         23    2    1    2    0    0  0.28210939702E+02 -0.46804304914E+02 -0.42116714270E+02  0.11383719072E+03  0.90546056195E+02 0.  0.
         23    2    1    2    0    0 -0.14030485840E+02  0.21064743493E+02  0.34654785614E+02  0.10016406994E+03  0.90505849473E+02 0.  0.
        -11    1    3    3    0    0  0.16123495817E+02  0.20415118069E+02 -0.37158811979E+02  0.45359910392E+02  0.00000000000E+00 0.  1.
         11    1    3    3    0    0  0.12087443886E+02 -0.67219422982E+02 -0.49579022920E+01  0.68477280327E+02  0.00000000000E+00 0. -1.
        -13    1    4    4    0    0 -0.35252598497E+02  0.48057984780E+02  0.20575415809E+02  0.63052861455E+02  0.00000000000E+00 0.  1.
         13    1    4    4    0    0  0.21222112657E+02 -0.26993241287E+02  0.14079369805E+02  0.37111208481E+02  0.00000000000E+00 0. -1.
         21    1    1    2  502  503  0.21025520854E+02  0.21182893560E+02 -0.14304769375E+01  0.29880324145E+02  0.00000000000E+00 0. -1.
         21    1    1    2  503  501 -0.35205974716E+02  0.45566678610E+01 -0.68904459780E+02  0.77511602069E+02  0.00000000000E+00 0.  1.
<scales pt_clust_5="13000.00000" pt_clust_6="13000.00000" pt_clust_7="13000.00000" pt_clust_8="13000.00000" pt_clust_9="29.84606" pt_clust_10="34.78715"></scales>
<clustering>
<clus scale="   29.846">  1  9  2 -1</clus>
<clus scale="   34.787">  2 10  1 -1</clus>
<clus scale="   90.506">  7  8 -1 -1</clus>
<clus scale="   90.546">  5  6 -1 -1</clus>
<clus scale="   98.401">  1  7  2 -1</clus>
<clus scale="   29.846">  1  5  2 -1</clus>
</clustering>
</event>
<event>
10    2  0.1898324E-006  0.1128862E+03  0.7546771E-02  0.1256859E+00
         -2   -1    0    0    0  501 -0.00000000000E+00  0.00000000000E+00  0.90836288724E+02  0.90836288724E+02  0.00000000000E+00 0.  1.
          2   -1    0    0  502    0  0.00000000000E+00 -0.00000000000E+00 -0.80934210183E+03  0.80934210183E+03  0.00000000000E+00 0. -1.
         23    2    1    2    0    0 -0.34296093879E+02  0.56968516921E+02 -0.59443518333E+02  0.12724614793E+03  0.90754704102E+02 0.  0.
         23    2    1    2    0    0  0.37355319065E+02 -0.11133837819E+03 -0.25706558181E+03  0.29556081441E+03  0.86497556858E+02 0.  0.
        -11    1    4    4    0    0 -0.21015917439E+02 -0.18232932697E+02 -0.10049405239E+03  0.10427446086E+03  0.00000000000E+00 0.  1.
         11    1    4    4    0    0  0.58371236504E+02 -0.93105445497E+02 -0.15657152942E+03  0.19128635356E+03  0.00000000000E+00 0. -1.
        -13    1    3    3    0    0  0.18779114379E+02  0.50513112899E+02 -0.10798654027E+02  0.54962174633E+02  0.00000000000E+00 0.  1.
         13    1    3    3    0    0 -0.53075208259E+02  0.64554040223E+01 -0.48644864306E+02  0.72283973301E+02  0.00000000000E+00 0. -1.
         21    1    1    2  502  503 -0.27271121038E+02  0.72074941244E+02 -0.42969110017E+03  0.43654662153E+03  0.00000000000E+00 0.  1.
         21    1    1    2  503  501  0.24211895852E+02 -0.17705079971E+02  0.27694387211E+02  0.40824806681E+02  0.00000000000E+00 0.  1.
<scales pt_clust_5="13000.00000" pt_clust_6="13000.00000" pt_clust_7="13000.00000" pt_clust_8="13000.00000" pt_clust_9="75.54587" pt_clust_10="29.99476"></scales>
<clustering>
<clus scale="   29.995">  1 10  2 -1</clus>
<clus scale="   75.546">  2  9  1 -1</clus>
<clus scale="   86.498">  5  6 -1 -1</clus>
<clus scale="   90.755">  7  8 -1 -1</clus>
<clus scale="  109.493">  2  5  1 -1</clus>
<clus scale="   75.546">  2  5  1 -1</clus>
</clustering>
</event>
<event>
10    2  0.1898324E-006  0.1053428E+03  0.7546771E-02  0.1275879E+00
          1   -1    0    0  502    0  0.00000000000E+00  0.00000000000E+00  0.29284843627E+03  0.29284843627E+03  0.00000000000E+00 0. -1.
         -1   -1    0    0    0  501 -0.00000000000E+00 -0.00000000000E+00 -0.14495930205E+03  0.14495930205E+03  0.00000000000E+00 0.  1.
         23    2    1    2    0    0  0.20248516101E+02 -0.12348847969E+02 -0.34118607441E+02  0.11178288308E+03  0.10377300769E+03 0.  0.
         23    2    1    2    0    0  0.51556884177E+02  0.12500718781E+02  0.18315008592E+03  0.21140428179E+03  0.91287655835E+02 0.  0.
        -13    1    3    3    0    0  0.57401923255E+02 -0.23137603643E+02 -0.27074958718E+01  0.61948850107E+02  0.00000000000E+00 0.  1.
         13    1    3    3    0    0 -0.37153407154E+02  0.10788755674E+02 -0.31411111570E+02  0.49834032971E+02  0.00000000000E+00 0. -1.
        -13    1    4    4    0    0  0.20527880364E+02  0.35435706897E+02  0.16262028990E+03  0.16769747131E+03  0.00000000000E+00 0. -1.
         13    1    4    4    0    0  0.31029003813E+02 -0.22934988116E+02  0.20529796023E+02  0.43706810480E+02  0.00000000000E+00 0.  1.
         21    1    1    2  502  503 -0.36754082253E+02 -0.27304425682E+01  0.44008760520E+02  0.57402864749E+02  0.00000000000E+00 0. -1.
         21    1    1    2  503  501 -0.35051318025E+02  0.25785717564E+01 -0.45151104780E+02  0.57217708714E+02  0.00000000000E+00 0. -1.
<scales pt_clust_5="13000.00000" pt_clust_6="13000.00000" pt_clust_7="13000.00000" pt_clust_8="13000.00000" pt_clust_9="39.33981" pt_clust_10="35.14604"></scales>
<clustering>
<clus scale="   35.146">  2 10  1 -1</clus>
<clus scale="   39.340">  1  9  2 -1</clus>
<clus scale="   91.288">  7  8 -1 -1</clus>
<clus scale="   93.068">  1  7  2 -1</clus>
<clus scale="  103.773">  5  6 -1 -1</clus>
<clus scale="   39.340">  1  5  2 -1</clus>
</clustering>
</event>
<event>
10    2  0.1898324E-006  0.1381977E+03  0.7546771E-02  0.1219641E+00
          4   -1    0    0  502    0  0.00000000000E+00  0.00000000000E+00  0.21493998637E+03  0.21493998637E+03  0.00000000000E+00 0. -1.
         -4   -1    0    0    0  501 -0.00000000000E+00 -0.00000000000E+00 -0.14854906914E+03  0.14854906914E+03  0.00000000000E+00 0.  1.
         23    2    1    2    0    0  0.96633647195E+02  0.19810746516E+02 -0.40143714501E+02  0.13724487287E+03  0.86568526998E+02 0.  0.
         23    2    1    2    0    0 -0.70694549957E+02 -0.14184788437E+02  0.62098895907E+02  0.13936099295E+03  0.10181495896E+03 0.  0.
        -11    1    4    4    0    0  0.14902600023E+02 -0.15109128292E+02 -0.13502826343E+02  0.25153519921E+02  0.00000000000E+00 0.  1.
         11    1    4    4    0    0 -0.85597149980E+02  0.92433985560E+00  0.75601722249E+02  0.11420747303E+03  0.00000000000E+00 0. -1.
        -11    1    3    3    0    0  0.30615466683E+02 -0.13178615729E+02 -0.52726249652E+02  0.62378202244E+02  0.00000000000E+00 0. -1.
         11    1    3    3    0    0  0.66018180512E+02  0.32989362245E+02  0.12582535151E+02  0.74866670624E+02  0.00000000000E+00 0.  1.
         21    1    1    2  502  503 -0.44824975772E+02  0.72225143343E+01  0.45148630945E+02  0.64030008922E+02  0.00000000000E+00 0. -1.
         21    1    1    2  503  501  0.18885878534E+02 -0.12848472414E+02 -0.71289512024E+00  0.22853180760E+02  0.00000000000E+00 0.  1.
<scales pt_clust_5="13000.00000" pt_clust_6="13000.00000" pt_clust_7="13000.00000" pt_clust_8="13000.00000" pt_clust_9="43.98006" pt_clust_10="22.84206"></scales>
<clustering>
<clus scale="   22.842">  2 10  1 -1</clus>
<clus scale="   43.980">  1  9  2 -1</clus>
<clus scale="   86.569">  7  8 -1 -1</clus>
<clus scale="  101.815">  5  6 -1 -1</clus>
<clus scale="  127.383">  2  7  1 -1</clus>
<clus scale="   43.980">  1  5  2 -1</clus>
</clustering>
</event>
<event>
10    2  0.1898324E-006  0.3747275E+03  0.7546771E-02  0.1053002E+00
          1   -1    0    0  502    0  0.00000000000E+00  0.00000000000E+00  0.20651407619E+03  0.20651407619E+03  0.00000000000E+00 0. -1.
         -1   -1    0    0    0  501 -0.00000000000E+00 -0.00000000000E+00 -0.87416011484E+03  0.87416011484E+03  0.00000000000E+00 0.  1.
         23    2    1    2    0    0 -0.35211708643E+03 -0.20712210694E+02 -0.29294804998E+03  0.46746991164E+03  0.91072059770E+02 0.  0.
         23    2    1    2    0    0  0.37445000677E+03 -0.56909607061E+02 -0.30157838347E+03  0.49182080645E+03  0.86525564633E+02 0.  0.
        -11    1    4    4    0    0  0.17048045665E+02 -0.22542860112E+02 -0.32900212500E+02  0.43373268098E+02  0.00000000000E+00 0.  1.
         11    1    4    4    0    0  0.35740196111E+03 -0.34366746949E+02 -0.26867817097E+03  0.44844753835E+03  0.00000000000E+00 0. -1.
        -13    1    3    3    0    0 -0.26993674890E+03  0.42544977037E+01 -0.26192489168E+03  0.37614970163E+03  0.00000000000E+00 0.  1.
         13    1    3    3    0    0 -0.82180337523E+02 -0.24966708398E+02 -0.31023158307E+02  0.91320210002E+02  0.00000000000E+00 0. -1.
         21    1    1    2  502  503 -0.12804427563E+02  0.56284066072E+02 -0.16351272739E+02  0.59993446134E+02  0.00000000000E+00 0.  1.
         21    1    1    2  503  501 -0.95284927833E+01  0.21337751683E+02 -0.56768332460E+02  0.61390026811E+02  0.00000000000E+00 0. -1.
<scales pt_clust_5="13000.00000" pt_clust_6="13000.00000" pt_clust_7="13000.00000" pt_clust_8="13000.00000" pt_clust_9="58.79596" pt_clust_10="23.36861"></scales>
<clustering>
<clus scale="   23.369">  2 10  1 -1</clus>
<clus scale="   58.796">  1  9  2 -1</clus>
<clus scale="   86.526">  5  6 -1 -1</clus>
<clus scale="   91.072">  7  8 -1 -1</clus>
<clus scale="  373.649">  1  5  2 -1</clus>
<clus scale="   58.796">  1  5  2 -1</clus>
</clustering>
</event>
<event>
10    2  0.1898324E-006  0.3721045E+03  0.7546771E-02  0.1085029E+00
          1   -1    0    0  502    0  0.00000000000E+00  0.00000000000E+00  0.11019346317E+04  0.11019346317E+04  0.00000000000E+00 0. -1.
         -1   -1    0    0    0  501 -0.00000000000E+00 -0.00000000000E+00 -0.11516289241E+04  0.11516289241E+04  0.00000000000E+00 0.  1.
         23    2    1    2    0    0  0.21442628790E+03  0.10105227839E+03  0.72344877470E+03  0.76624233303E+03  0.86942437292E+02 0.  0.
         23    2    1    2    0    0  0.12149470523E+03 -0.45034595162E+02  0.14578622493E+02  0.15877457430E+03  0.90596639283E+02 0.  0.
        -11    1    4    4    0    0  0.21387686131E+02  0.53588752134E+01 -0.30785009797E+02  0.37866442793E+02  0.00000000000E+00 0.  1.
         11    1    4    4    0    0  0.10010701910E+03 -0.50393470376E+02  0.45363632290E+02  0.12090813151E+03  0.00000000000E+00 0. -1.
        -13    1    3    3    0    0  0.27408745632E+02 -0.15901815636E+02  0.10201577969E+03  0.10682381000E+03  0.00000000000E+00 0.  1.
         13    1    3    3    0    0  0.18701754227E+03  0.11695409403E+03  0.62143299501E+03  0.65941852303E+03  0.00000000000E+00 0. -1.
         21    1    1    2  502  503  0.47766276249E+01 -0.20300697192E+03  0.19289464324E+03  0.28007675771E+03  0.00000000000E+00 0. -1.
         21    1    1    2  503  501 -0.34069762076E+03  0.14698928869E+03 -0.98061633275E+03  0.10484698908E+04  0.00000000000E+00 0.  1.
<scales pt_clust_5="13000.00000" pt_clust_6="13000.00000" pt_clust_7="13000.00000" pt_clust_8="13000.00000" pt_clust_9="216.04400" pt_clust_10="361.80486"></scales>
<clustering>
<clus scale="   86.942">  7  8 -1 -1</clus>
<clus scale="   90.597">  5  6 -1 -1</clus>
<clus scale="  158.104">  1  5  2 -1</clus>
<clus scale="  216.044">  1  9  2 -1</clus>
<clus scale="  361.805">  2 10  1 -1</clus>
<clus scale="  158.104">  1  5  2 -1</clus>
</clustering>
</event>
<event>
10    2  0.1898324E-006  0.1028279E+03  0.7546771E-02  0.1275018E+00
         -1   -1    0    0    0  501 -0.00000000000E+00  0.00000000000E+00  0.48560821029E+02  0.48560821029E+02  0.00000000000E+00 0.  1.
          1   -1    0    0  502    0  0.00000000000E+00 -0.00000000000E+00 -0.42471210331E+03  0.42471210331E+03  0.00000000000E+00 0. -1.
         23    2    1    2    0    0 -0.56753292713E+02 -0.25525788792E+02 -0.97453743864E+02  0.14847651347E+03  0.93142582799E+02 0.  0.
         23    2    1    2    0    0  0.22970954178E+02  0.22786157232E+02 -0.20921290812E+03  0.23079877590E+03  0.91930192732E+02 0.  0.
        -13    1    4    4    0    0 -0.31099486799E+02 -0.85126167316E+01 -0.98892694591E+02  0.10401638220E+03  0.00000000000E+00 0.  1.
         13    1    4    4    0    0  0.54070440976E+02  0.31298773963E+02 -0.11032021353E+03  0.12678239370E+03  0.00000000000E+00 0. -1.
        -13    1    3    3    0    0 -0.24073233683E+02  0.25005357516E+02 -0.77764768985E+02  0.85159543093E+02  0.00000000000E+00 0. -1.
         13    1    3    3    0    0 -0.32680059030E+02 -0.50531146308E+02 -0.19688974879E+02  0.63316970373E+02  0.00000000000E+00 0.  1.
         21    1    1    2  502  503  0.16815089083E+02 -0.15185065187E+02 -0.65099470425E+02  0.68929489155E+02  0.00000000000E+00 0. -1.
         21    1    1    2  503  501  0.16967249452E+02  0.17924696747E+02 -0.43851598661E+01  0.25068145813E+02  0.00000000000E+00 0.  1.
<scales pt_clust_5="13000.00000" pt_clust_6="13000.00000" pt_clust_7="13000.00000" pt_clust_8="13000.00000" pt_clust_9="22.65686" pt_clust_10="24.72110"></scales>
<clustering>
<clus scale="   22.657">  2  9  1 -1</clus>
<clus scale="   24.721">  1 10  2 -1</clus>
<clus scale="   91.930">  5  6 -1 -1</clus>
<clus scale="   93.143">  7  8 -1 -1</clus>
<clus scale="  101.731">  2  5  1 -1</clus>
<clus scale="   22.657">  2  5  1 -1</clus>
</clustering>
</event>
<event>
10    2  0.1898324E-006  0.1653108E+03  0.7546771E-02  0.1184717E+00
         -2   -1    0    0    0  501 -0.00000000000E+00  0.00000000000E+00  0.36443313311E+03  0.36443313311E+03  0.00000000000E+00 0.  1.
          2   -1    0    0  502    0  0.00000000000E+00 -0.00000000000E+00 -0.37462061690E+03  0.37462061690E+03  0.00000000000E+00 0. -1.
         23    2    1    2    0    0  0.15568369458E+03 -0.54130509073E+01 -0.10870284622E+03  0.21616525247E+03  0.10317167113E+03 0.  0.
         23    2    1    2    0    0 -0.12165119849E+03 -0.19337917503E+02 -0.14139291862E+03  0.20880135217E+03  0.91831792359E+02 0.  0.
        -11    1    4    4    0    0 -0.12039042867E+02  0.29951577612E+02 -0.41140121151E+02  0.52292878319E+02  0.00000000000E+00 0.  1.
         11    1    4    4    0    0 -0.10961215562E+03 -0.49289495115E+02 -0.10025279747E+03  0.15650847385E+03  0.00000000000E+00 0. -1.
        -11    1    3    3    0    0  0.98591163079E+02  0.25725307057E+02 -0.11153746302E+03  0.15107155430E+03  0.00000000000E+00 0. -1.
         11    1    3    3    0    0  0.57092531499E+02 -0.31138357964E+02  0.28346168039E+01  0.65093698175E+02  0.00000000000E+00 0.  1.
         21    1    1    2  502  503  0.29708766791E+02 -0.98965316169E+01 -0.24592958496E+02  0.39816651917E+02  0.00000000000E+00 0.  1.
         21    1    1    2  503  501 -0.63741262882E+02  0.34647500027E+02  0.26450123954E+03  0.27427049344E+03  0.00000000000E+00 0.  1.
<scales pt_clust_5="13000.00000" pt_clust_6="13000.00000" pt_clust_7="13000.00000" pt_clust_8="13000.00000" pt_clust_9="31.31377" pt_clust_10="72.10955"></scales>
<clustering>
<clus scale="   31.314">  2  9  1 -1</clus>
<clus scale="   72.110">  1 10  2 -1</clus>
<clus scale="   91.832">  5  6 -1 -1</clus>
<clus scale="  103.172">  7  8 -1 -1</clus>
<clus scale="  158.481">  2  5  1 -1</clus>
<clus scale="   31.314">  2  5  1 -1</clus>
</clustering>
</event>
<event>
10    2  0.1898324E-006  0.1273888E+03  0.7546771E-02  0.1232277E+00
         -2   -1    0    0    0  501 -0.00000000000E+00  0.00000000000E+00  0.81930014998E+02  0.81930014998E+02  0.00000000000E+00 0.  1.
          2   -1    0    0  502    0  0.00000000000E+00 -0.00000000000E+00 -0.65367496649E+03  0.65367496649E+03  0.00000000000E+00 0. -1.
         23    2    1    2    0    0  0.15471958413E+02 -0.14652421008E+03 -0.26406474362E+03  0.31533972238E+03  0.89443982778E+02 0.  0.
         23    2    1    2    0    0 -0.42081527001E+02  0.34057907333E+02 -0.16195388645E+03  0.19428526385E+03  0.92665562353E+02 0.  0.
        -11    1    3    3    0    0  0.89981961843E+00 -0.10120743751E+03 -0.91878308818E+02  0.13669447214E+03  0.00000000000E+00 0.  1.
         11    1    3    3    0    0  0.14572138795E+02 -0.45316772565E+02 -0.17218643480E+03  0.17864525024E+03  0.00000000000E+00 0. -1.
        -13    1    4    4    0    0  0.20670122575E+02 -0.16161792324E+02 -0.30773181362E+02  0.40440650212E+02  0.00000000000E+00 0. -1.
         13    1    4    4    0    0 -0.62751649576E+02  0.50219699657E+02 -0.13118070509E+03  0.15384461364E+03  0.00000000000E+00 0.  1.
         21    1    1    2  502  503  0.11379055395E+02  0.27212472994E+02 -0.13561798212E+03  0.13878846733E+03  0.00000000000E+00 0. -1.
         21    1    1    2  503  501  0.15230513193E+02  0.85253829749E+02 -0.10108339303E+02  0.87191527928E+02  0.00000000000E+00 0. -1.
<scales pt_clust_5="13000.00000" pt_clust_6="13000.00000" pt_clust_7="13000.00000" pt_clust_8="13000.00000" pt_clust_9="29.49579" pt_clust_10="89.31753"></scales>
<clustering>
<clus scale="   29.496">  2  9  1 -1</clus>
<clus scale="   89.318">  1 10  2 -1</clus>
<clus scale="   89.444">  5  6 -1 -1</clus>
<clus scale="   92.666">  7  8 -1 -1</clus>
<clus scale="  125.065">  1  5  2 -1</clus>
<clus scale="   29.496">  2  5  1 -1</clus>
</clustering>
</event>
<event>
10    2  0.1898324E-006  0.9074914E+02  0.7546771E-02  0.1301275E+00
          1   -1    0    0  502    0  0.00000000000E+00  0.00000000000E+00  0.29542235502E+03  0.29542235502E+03  0.00000000000E+00 0. -1.
         -1   -1    0    0    0  501 -0.00000000000E+00 -0.00000000000E+00 -0.11390021781E+03  0.11390021781E+03  0.00000000000E+00 0.  1.
         23    2    1    2    0    0 -0.61238452406E+01  0.35089797591E+02 -0.23271035897E+02  0.10008793290E+03  0.90593917147E+02 0.  0.
         23    2    1    2    0    0 -0.29914958832E+02  0.48769250922E+02  0.14374695404E+03  0.17909560876E+03  0.90214775296E+02 0.  0.
        -11    1    3    3    0    0  0.38430071785E+02  0.73657320691E+01  0.66361235239E+01  0.39688317698E+02  0.00000000000E+00 0. -1.
         11    1    3    3    0    0 -0.44553917025E+02  0.27724065522E+02 -0.29907159420E+02  0.60399615197E+02  0.00000000000E+00 0.  1.
        -13    1    4    4    0    0 -0.37097830191E+02  0.72429748358E+02  0.11854700658E+03  0.14379050810E+03  0.00000000000E+00 0. -1.
         13    1    4    4    0    0  0.71828713590E+01 -0.23660497436E+02  0.25199947469E+02  0.35305100656E+02  0.00000000000E+00 0.  1.
         21    1    1    2  502  503  0.54277285782E+02 -0.51091465495E+02  0.53839645367E+02  0.91951449209E+02  0.00000000000E+00 0.  1.
         21    1    1    2  503  501 -0.18238481709E+02 -0.32767583018E+02  0.72065737007E+01  0.38187581966E+02  0.00000000000E+00 0.  1.
<scales pt_clust_5="13000.00000" pt_clust_6="13000.00000" pt_clust_7="13000.00000" pt_clust_8="13000.00000" pt_clust_9="76.64250" pt_clust_10="37.50142"></scales>
<clustering>
<clus scale="   37.501">  2 10  1 -1</clus>
<clus scale="   76.642">  1  9  2 -1</clus>
<clus scale="   90.215">  7  8 -1 -1</clus>
<clus scale="   90.371">  1  7  2 -1</clus>
<clus scale="   90.594">  5  6 -1 -1</clus>
<clus scale="   76.642">  1  5  2 -1</clus>
</clustering>
</event>
<event>
10    2  0.1898324E-006  0.9369417E+02  0.7546771E-02  0.1299126E+00
         -1   -1    0    0    0  501 -0.00000000000E+00  0.00000000000E+00  0.73581529073E+03  0.73581529073E+03  0.00000000000E+00 0.  1.
          1   -1    0    0  502    0  0.00000000000E+00 -0.00000000000E+00 -0.57255268619E+02  0.57255268619E+02  0.00000000000E+00 0. -1.
         23    2    1    2    0    0 -0.60452816729E+01 -0.50838184308E+02  0.33482922642E+03  0.34796912358E+03  0.79692118098E+02 0.  0.
         23    2    1    2    0    0 -0.16232305020E+02 -0.52215025795E+02  0.98396309766E+02  0.14457770072E+03  0.90724754749E+02 0.  0.
        -11    1    3    3    0    0  0.14605965220E+02 -0.66494998406E+02  0.22213781592E+03  0.23233623974E+03  0.00000000000E+00 0.  1.
         11    1    3    3    0    0 -0.20651246892E+02  0.15656814098E+02  0.11269141050E+03  0.11563288384E+03  0.00000000000E+00 0. -1.
        -13    1    4    4    0    0 -0.35958485113E+02 -0.25457972582E+02  0.10203105007E+03  0.11113710541E+03  0.00000000000E+00 0.  1.
         13    1    4    4    0    0  0.19726180094E+02 -0.26757053213E+02 -0.36347403041E+01  0.33440595312E+02  0.00000000000E+00 0. -1.
         21    1    1    2  502  503 -0.36621369363E+02  0.43727026887E+02  0.20430675194E+02  0.60585394802E+02  0.00000000000E+00 0. -1.
         21    1    1    2  503  501  0.58898956056E+02  0.59326183217E+02  0.22490381073E+03  0.23993834025E+03  0.00000000000E+00 0. -1.
<scales pt_clust_5="13000.00000" pt_clust_6="13000.00000" pt_clust_7="13000.00000" pt_clust_8="13000.00000" pt_clust_9="57.03663" pt_clust_10="85.43117"></scales>
<clustering>
<clus scale="   57.037">  2  9  1 -1</clus>
<clus scale="   79.692">  5  6 -1 -1</clus>
<clus scale="   85.431">  1 10  2 -1</clus>
<clus scale="   85.431">  1  5  2 -1</clus>
<clus scale="   90.725">  7  8 -1 -1</clus>
<clus scale="   57.037">  2  5  1 -1</clus>
</clustering>
</event>
<event>
10    2  0.1898324E-006  0.1201431E+03  0.7546771E-02  0.1244991E+00
          1   -1    0    0  502    0  0.00000000000E+00  0.00000000000E+00  0.64634295539E+03  0.64634295539E+03  0.00000000000E+00 0. -1.
         -1   -1    0    0    0  501 -0.00000000000E+00 -0.00000000000E+00 -0.38040976223E+02  0.38040976223E+02  0.00000000000E+00 0.  1.
         23    2    1    2    0    0  0.30147289704E+02  0.63477083728E+02  0.13636074210E+03  0.17764199787E+03  0.89578056400E+02 0.  0.
         23    2    1    2    0    0 -0.55098278066E+02 -0.41107710216E+02  0.32275512694E+03  0.34367091147E+03  0.95985203738E+02 0.  0.
        -11    1    3    3    0    0  0.49559669654E+02  0.40969777548E+02  0.13300230673E+03  0.14773048813E+03  0.00000000000E+00 0. -1.
         11    1    3    3    0    0 -0.19412379950E+02  0.22507306179E+02  0.33584353643E+01  0.29911509739E+02  0.00000000000E+00 0.  1.
        -13    1    4    4    0    0 -0.33391906561E+02  0.27201800930E+02  0.16262303366E+03  0.16822963019E+03  0.00000000000E+00 0.  1.
         13    1    4    4    0    0 -0.21706371506E+02 -0.68309511146E+02  0.16013209328E+03  0.17544128127E+03  0.00000000000E+00 0. -1.
         21    1    1    2  502  503 -0.32105672559E+01 -0.20385812259E+02  0.12248997493E+03  0.12421627527E+03  0.00000000000E+00 0. -1.
         21    1    1    2  503  501  0.28161555618E+02 -0.19835612530E+01  0.26696135203E+02  0.38854747006E+02  0.00000000000E+00 0. -1.
<scales pt_clust_5="13000.00000" pt_clust_6="13000.00000" pt_clust_7="13000.00000" pt_clust_8="13000.00000" pt_clust_9="20.63708" pt_clust_10="28.14989"></scales>
<clustering>
<clus scale="   20.637">  1  9  2 -1</clus>
<clus scale="   28.150">  2 10  1 -1</clus>
<clus scale="   89.578">  5  6 -1 -1</clus>
<clus scale="   95.985">  7  8 -1 -1</clus>
<clus scale="  115.089">  2  5  1 -1</clus>
<clus scale="   20.637">  1  5  2 -1</clus>
</clustering>
</event>
<event>
10    2  0.1898324E-006  0.1559719E+03  0.7546771E-02  0.1193466E+00
          2   -1    0    0  502    0  0.00000000000E+00  0.00000000000E+00  0.26194054641E+03  0.26194054641E+03  0.00000000000E+00 0. -1.
         -2   -1    0    0    0  501 -0.00000000000E+00 -0.00000000000E+00 -0.23744408510E+03  0.23744408510E+03  0.00000000000E+00 0.  1.
         23    2    1    2    0    0 -0.35755037983E+02 -0.13364197734E+03 -0.50316396457E+02  0.17278751125E+03  0.90472003645E+02 0.  0.
         23    2    1    2    0    0  0.23712070716E+01  0.10836319165E+03  0.78848646575E+02  0.16218959672E+03  0.91324434251E+02 0.  0.
        -11    1    3    3    0    0  0.34729107022E+01 -0.35670594218E+02 -0.56682810746E+02  0.67062608320E+02  0.00000000000E+00 0.  1.
         11    1    3    3    0    0 -0.39227948685E+02 -0.97971383123E+02  0.63664142894E+01  0.10572490293E+03  0.00000000000E+00 0. -1.
        -11    1    4    4    0    0 -0.18710304505E+02  0.11546993530E+03  0.54004661035E+02  0.12884054046E+03  0.00000000000E+00 0. -1.
         11    1    4    4    0    0  0.21081511576E+02 -0.71067436573E+01  0.24843985539E+02  0.33349056257E+02  0.00000000000E+00 0.  1.
         21    1    1    2  502  503 -0.12444685104E+02  0.29174015550E+02  0.70225950354E+02  0.77056326631E+02  0.00000000000E+00 0. -1.
         21    1    1    2  503  501  0.45828516015E+02 -0.38952298560E+01 -0.74261739165E+02  0.87351196898E+02  0.00000000000E+00 0.  1.
<scales pt_clust_5="13000.00000" pt_clust_6="13000.00000" pt_clust_7="13000.00000" pt_clust_8="13000.00000" pt_clust_9="31.71740" pt_clust_10="45.48732"></scales>
<clustering>
<clus scale="   31.717">  1  9  2 -1</clus>
<clus scale="   45.487">  2 10  1 -1</clus>
<clus scale="   90.472">  5  6 -1 -1</clus>
<clus scale="   91.324">  7  8 -1 -1</clus>
<clus scale="  155.474">  2  5  1 -1</clus>
<clus scale="   31.717">  1  5  2 -1</clus>
</clustering>
</event>
<event>
10    2  0.1898324E-006  0.9582437E+02  0.7546771E-02  0.1290544E+00
          1   -1    0    0  502    0  0.00000000000E+00  0.00000000000E+00  0.15115898909E+03  0.15115898909E+03  0.00000000000E+00 0. -1.
         -1   -1    0    0    0  501 -0.00000000000E+00 -0.00000000000E+00 -0.18553994655E+03  0.18553994655E+03  0.00000000000E+00 0.  1.
         23    2    1    2    0    0  0.22189770077E+01  0.43521237436E+01 -0.57024666554E+02  0.10648720427E+03  0.89798926712E+02 0.  0.
         23    2    1    2    0    0  0.57516058807E+02  0.25606894232E+02 -0.27342894927E+02  0.11481897279E+03  0.92043210271E+02 0.  0.
        -11    1    4    4    0    0  0.73410462388E+02 -0.10167655028E+01 -0.37171495858E+02  0.82291250473E+02  0.00000000000E+00 0.  1.
         11    1    4    4    0    0 -0.15894403582E+02  0.26623659735E+02  0.98286009311E+01  0.32527722318E+02  0.00000000000E+00 0. -1.
        -13    1    3    3    0    0  0.19406893817E+02  0.42829669289E+02 -0.36981041208E+02  0.59821446889E+02  0.00000000000E+00 0.  1.
         13    1    3    3    0    0 -0.17187916810E+02 -0.38477545545E+02 -0.20043625345E+02  0.46665757386E+02  0.00000000000E+00 0. -1.
         21    1    1    2  502  503 -0.52104079592E+02  0.53098209002E+01  0.58291912943E+02  0.78364382360E+02  0.00000000000E+00 0. -1.
         21    1    1    2  503  501 -0.76309562227E+01 -0.35268838876E+02 -0.83053089218E+01  0.37028376211E+02  0.00000000000E+00 0. -1.
<scales pt_clust_5="13000.00000" pt_clust_6="13000.00000" pt_clust_7="13000.00000" pt_clust_8="13000.00000" pt_clust_9="52.66778" pt_clust_10="36.08493"></scales>
<clustering>
<clus scale="   36.085">  2 10  1 -1</clus>
<clus scale="   52.668">  1  9  2 -1</clus>
<clus scale="   89.799">  7  8 -1 -1</clus>
<clus scale="   92.043">  5  6 -1 -1</clus>
<clus scale="   93.671">  2  7  1 -1</clus>
<clus scale="   52.668">  1  5  2 -1</clus>
</clustering>
</event>
<event>
10    2  0.1898324E-006  0.1051085E+03  0.7546771E-02  0.1270832E+00
          1   -1    0    0  502    0  0.00000000000E+00  0.00000000000E+00  0.54223721849E+03  0.54223721849E+03  0.00000000000E+00 0. -1.
         -1   -1    0    0    0  501 -0.00000000000E+00 -0.00000000000E+00 -0.78615397117E+02  0.78615397117E+02  0.00000000000E+00 0.  1.
         23    2    1    2    0    0  0.15831173422E+02 -0.46961536992E+02  0.19584581269E+00  0.10358317012E+03  0.90958357324E+02 0.  0.
         23    2    1    2    0    0 -0.31005133726E+02  0.77291705938E+01  0.15707315339E+03  0.18324322163E+03  0.88797772286E+02 0.  0.
        -11    1    4    4    0    0  0.22414069040E+02  0.26472663036E+02  0.38328882383E+02  0.51694251168E+02  0.00000000000E+00 0. -1.
         11    1    4    4    0    0 -0.53419202767E+02 -0.18743492442E+02  0.11874427101E+03  0.13154897046E+03  0.00000000000E+00 0.  1.
        -11    1    3    3    0    0 -0.24898871553E+02 -0.47054501638E+02  0.21742516572E+02  0.57504929840E+02  0.00000000000E+00 0. -1.
         11    1    3    3    0    0  0.40730044975E+02  0.92964646263E-01 -0.21546670759E+02  0.46078240276E+02  0.00000000000E+00 0.  1.
         21    1    1    2  502  503 -0.97611145614E+01  0.54235552644E+02  0.29896628985E+03  0.30400265952E+03  0.00000000000E+00 0. -1.
         21    1    1    2  503  501  0.24935074866E+02 -0.15003186246E+02  0.73865323235E+01  0.30023564343E+02  0.00000000000E+00 0. -1.
<scales pt_clust_5="13000.00000" pt_clust_6="13000.00000" pt_clust_7="13000.00000" pt_clust_8="13000.00000" pt_clust_9="54.39530" pt_clust_10="29.10075"></scales>
<clustering>
<clus scale="   29.101">  2 10  1 -1</clus>
<clus scale="   54.395">  1  9  2 -1</clus>
<clus scale="   88.798">  5  6 -1 -1</clus>
<clus scale="   90.958">  7  8 -1 -1</clus>
<clus scale="  103.244">  1  5  2 -1</clus>
<clus scale="   54.395">  1  5  2 -1</clus>
</clustering>
</event>
<event>
10    2  0.1898324E-006  0.1806479E+03  0.7546771E-02  0.1167570E+00
          2   -1    0    0  502    0  0.00000000000E+00  0.00000000000E+00  0.19100363774E+03  0.19100363774E+03  0.00000000000E+00 0. -1.
         -2   -1    0    0    0  501 -0.00000000000E+00 -0.00000000000E+00 -0.31445868503E+03  0.31445868503E+03  0.00000000000E+00 0.  1.
         23    2    1    2    0    0 -0.33438109673E+02 -0.15357351046E+03 -0.93270689952E+02  0.20415072538E+03  0.90967943655E+02 0.  0.
         23    2    1    2    0    0 -0.12731062798E+02  0.15446564854E+03  0.39235795138E+02  0.18552568460E+03  0.94120218279E+02 0.  0.
        -13    1    4    4    0    0  0.18373854065E+01  0.20054146175E+02  0.45940853584E+02  0.50160809324E+02  0.00000000000E+00 0. -1.
         13    1    4    4    0    0 -0.14568448204E+02  0.13441150236E+03 -0.67050584467E+01  0.13536487528E+03  0.00000000000E+00 0.  1.
        -13    1    3    3    0    0 -0.51049163010E+02 -0.13006904796E+03 -0.43468993339E+02  0.14633361768E+03  0.00000000000E+00 0.  1.
         13    1    3    3    0    0  0.17611053336E+02 -0.23504462508E+02 -0.49801696613E+02  0.57817107701E+02  0.00000000000E+00 0. -1.
         21    1    1    2  502  503  0.45025533987E+02 -0.30762816707E+02 -0.20107024836E+02  0.58120065815E+02  0.00000000000E+00 0. -1.
         21    1    1    2  503  501  0.11436384841E+01  0.29870678633E+02 -0.49313127634E+02  0.57665846981E+02  0.00000000000E+00 0. -1.
<scales pt_clust_5="13000.00000" pt_clust_6="13000.00000" pt_clust_7="13000.00000" pt_clust_8="13000.00000" pt_clust_9="52.28489" pt_clust_10="29.89256"></scales>
<clustering>
<clus scale="   29.893">  2 10  1 -1</clus>
<clus scale="   52.285">  2  9  1 -1</clus>
<clus scale="   90.968">  7  8 -1 -1</clus>
<clus scale="   94.120">  5  6 -1 -1</clus>
<clus scale="  179.026">  2  7  1 -1</clus>
<clus scale="  180.648">  1  5  2 -1</clus>
</clustering>
</event>
<event>
10    2  0.1898324E-006  0.1268627E+03  0.7546771E-02  0.1232846E+00
          1   -1    0    0  502    0  0.00000000000E+00  0.00000000000E+00  0.28056987642E+03  0.28056987642E+03  0.00000000000E+00 0. -1.
         -1   -1    0    0    0  501 -0.00000000000E+00 -0.00000000000E+00 -0.23623672061E+03  0.23623672061E+03  0.00000000000E+00 0.  1.
         23    2    1    2    0    0  0.24494607205E+02 -0.73602850903E+02 -0.17128215211E+03  0.20874875538E+03  0.90670291715E+02 0.  0.
         23    2    1    2    0    0 -0.68997564201E+02  0.82356901133E+02  0.15196622221E+03  0.20805973758E+03  0.93015045434E+02 0.  0.
        -11    1    3    3    0    0  0.46399572063E+02 -0.54487597652E+02 -0.16376514185E+03  0.17872000523E+03  0.00000000000E+00 0.  1.
         11    1    3    3    0    0 -0.21904964858E+02 -0.19115253252E+02 -0.75170102588E+01  0.30028750150E+02  0.00000000000E+00 0. -1.
        -11    1    4    4    0    0 -0.78374747216E+02  0.22940516323E+02  0.94078922704E+02  0.12457813607E+03  0.00000000000E+00 0. -1.
         11    1    4    4    0    0  0.93771830153E+01  0.59416384810E+02  0.57887299509E+02  0.83481601504E+02  0.00000000000E+00 0.  1.
         21    1    1    2  502  503  0.16217825397E+02 -0.16777263098E+02  0.66484653160E+02  0.70460652306E+02  0.00000000000E+00 0. -1.
         21    1    1    2  503  501  0.28285131599E+02  0.80232128681E+01 -0.28355674616E+01  0.29537451771E+02  0.00000000000E+00 0. -1.
<scales pt_clust_5="13000.00000" pt_clust_6="13000.00000" pt_clust_7="13000.00000" pt_clust_8="13000.00000" pt_clust_9="23.33440" pt_clust_10="30.12279"></scales>
<clustering>
<clus scale="   23.334">  1  9  2 -1</clus>
<clus scale="   30.123">  2 10  1 -1</clus>
<clus scale="   90.670">  5  6 -1 -1</clus>
<clus scale="   93.015">  7  8 -1 -1</clus>
<clus scale="  125.154">  2  5  1 -1</clus>
<clus scale="   23.334">  1  5  2 -1</clus>
</clustering>
</event>
<event>
10    2  0.1898324E-006  0.1002709E+03  0.7546771E-02  0.1279864E+00
          1   -1    0    0  502    0  0.00000000000E+00  0.00000000000E+00  0.20536255284E+03  0.20536255284E+03  0.00000000000E+00 0. -1.
         -1   -1    0    0    0  501 -0.00000000000E+00 -0.00000000000E+00 -0.22968706576E+03  0.22968706576E+03  0.00000000000E+00 0.  1.
         23    2    1    2    0    0  0.14396567537E+02 -0.19279547664E+02 -0.36722325278E+02  0.10015022646E+03  0.90014313151E+02 0.  0.
         23    2    1    2    0    0 -0.19677739367E+02  0.61556097116E+02  0.17087581603E+02  0.11188662073E+03  0.89723263058E+02 0.  0.
        -13    1    3    3    0    0 -0.38374125759E+02 -0.81713465802E+01 -0.14635833216E+02  0.41875434883E+02  0.00000000000E+00 0.  1.
         13    1    3    3    0    0  0.52770693296E+02 -0.11108201084E+02 -0.22086492062E+02  0.58274791581E+02  0.00000000000E+00 0. -1.
        -13    1    4    4    0    0 -0.14383159361E+02 -0.14057347993E+02 -0.19239653409E+02  0.27832509213E+02  0.00000000000E+00 0.  1.
         13    1    4    4    0    0 -0.52945800067E+01  0.75613445109E+02  0.36327235012E+02  0.84054111514E+02  0.00000000000E+00 0. -1.
         21    1    1    2  502  503  0.18490992318E+02 -0.10912670957E+02  0.10551269033E+03  0.10767511785E+03  0.00000000000E+00 0. -1.
         21    1    1    2  503  501 -0.13209820487E+02 -0.31363878495E+02 -0.11020245957E+03  0.11533765355E+03  0.00000000000E+00 0.  1.
<scales pt_clust_5="13000.00000" pt_clust_6="13000.00000" pt_clust_7="13000.00000" pt_clust_8="13000.00000" pt_clust_9="21.47098" pt_clust_10="34.11157"></scales>
<clustering>
<clus scale="   21.471">  1  9  2 -1</clus>
<clus scale="   34.112">  2 10  1 -1</clus>
<clus scale="   89.723">  7  8 -1 -1</clus>
<clus scale="   90.014">  5  6 -1 -1</clus>
<clus scale="  100.010">  1  7  2 -1</clus>
<clus scale="   21.471">  1  5  2 -1</clus>
</clustering>
</event>
<event>
10    2  0.1898324E-006  0.1265610E+03  0.7546771E-02  0.1237169E+00
         -1   -1    0    0    0  501 -0.00000000000E+00  0.00000000000E+00  0.86476318118E+02  0.86476318118E+02  0.00000000000E+00 0.  1.
          1   -1    0    0  502    0  0.00000000000E+00 -0.00000000000E+00 -0.45569561467E+03  0.45569561467E+03  0.00000000000E+00 0. -1.
         23    2    1    2    0    0 -0.19585261305E+02 -0.91258876676E+02  0.21736813958E+01  0.12166986457E+03  0.78019651512E+02 0.  0.
         23    2    1    2    0    0  0.10137646098E+02  0.82933770924E+02 -0.34400835963E+03  0.36621938338E+03  0.93776879016E+02 0.  0.
        -11    1    4    4    0    0  0.35297591288E+02  0.91771642860E+02 -0.28441292993E+03  0.30092967467E+03  0.00000000000E+00 0. -1.
         11    1    4    4    0    0 -0.25159945190E+02 -0.88378719362E+01 -0.59595429697E+02  0.65289708707E+02  0.00000000000E+00 0.  1.
        -13    1    3    3    0    0 -0.46026294186E+02 -0.30033003313E+02  0.12179651360E+01  0.54971669827E+02  0.00000000000E+00 0.  1.
         13    1    3    3    0    0  0.26441032881E+02 -0.61225873363E+02  0.95571625982E+00  0.66698194747E+02  0.00000000000E+00 0. -1.
         21    1    1    2  502  503  0.25815716455E+02 -0.40059177361E+01 -0.18113929425E+02  0.31790140487E+02  0.00000000000E+00 0.  1.
         21    1    1    2  503  501 -0.16368101249E+02  0.12331023488E+02 -0.92706888910E+01  0.22492544348E+02  0.00000000000E+00 0. -1.
<scales pt_clust_5="13000.00000" pt_clust_6="13000.00000" pt_clust_7="13000.00000" pt_clust_8="13000.00000" pt_clust_9="24.59187" pt_clust_10="20.49314"></scales>
<clustering>
<clus scale="   20.493">  1 10  2 -1</clus>
<clus scale="   24.592">  1  9  2 -1</clus>
<clus scale="   78.020">  7  8 -1 -1</clus>
<clus scale="   93.777">  5  6 -1 -1</clus>
<clus scale="  115.372">  1  7  2 -1</clus>
<clus scale="  126.561">  2  5  1 -1</clus>
</clustering>
</event>
<event>
10    2  0.1898324E-006  0.1555266E+03  0.7546771E-02  0.1194224E+00
         -1   -1    0    0    0  501 -0.00000000000E+00  0.00000000000E+00  0.10371438249E+04  0.10371438249E+04  0.00000000000E+00 0.  1.
          1   -1    0    0  502    0  0.00000000000E+00 -0.00000000000E+00 -0.51881575331E+02  0.51881575331E+02  0.00000000000E+00 0. -1.
         23    2    1    2    0    0 -0.16508019259E+02 -0.15735170158E+03  0.63299471497E+03  0.65846235604E+03  0.88647010369E+02 0.  0.
         23    2    1    2    0    0  0.50565318736E+02  0.79847656662E+02  0.11189848838E+03  0.17237922657E+03  0.90889087998E+02 0.  0.
        -11    1    3    3    0    0 -0.49568269491E+02 -0.70038697844E+02  0.25250159090E+03  0.26668236902E+03  0.00000000000E+00 0. -1.
         11    1    3    3    0    0  0.33060250232E+02 -0.87313003737E+02  0.38049312407E+03  0.39177998702E+03  0.00000000000E+00 0.  1.
        -13    1    4    4    0    0 -0.13741700498E+02  0.57054537530E+02  0.73617142669E+02  0.94146366261E+02  0.00000000000E+00 0.  1.
         13    1    4    4    0    0  0.64307019233E+02  0.22793119132E+02  0.38281345714E+02  0.78232860309E+02  0.00000000000E+00 0. -1.
         21    1    1    2  502  503 -0.30484367276E+02  0.49633540714E+02  0.10640427177E+03  0.12130397381E+03  0.00000000000E+00 0. -1.
         21    1    1    2  503  501 -0.35729322004E+01  0.27870504205E+02  0.13396477441E+03  0.13687984378E+03  0.00000000000E+00 0. -1.
<scales pt_clust_5="13000.00000" pt_clust_6="13000.00000" pt_clust_7="13000.00000" pt_clust_8="13000.00000" pt_clust_9="61.49959" pt_clust_10="28.09859"></scales>
<clustering>
<clus scale="   28.099">  1 10  2 -1</clus>
<clus scale="   61.500">  2  9  1 -1</clus>
<clus scale="   88.647">  5  6 -1 -1</clus>
<clus scale="   90.889">  7  8 -1 -1</clus>
<clus scale="  154.227">  1  5  2 -1</clus>
<clus scale="   61.500">  2  5  1 -1</clus>
</clustering>
</event>
<event>
10    2  0.1898324E-006  0.9737479E+02  0.7546771E-02  0.1286417E+00
          2   -1    0    0  502    0  0.00000000000E+00  0.00000000000E+00  0.20334294400E+03  0.20334294400E+03  0.00000000000E+00 0. -1.
         -2   -1    0    0    0  501 -0.00000000000E+00 -0.00000000000E+00 -0.24685402261E+03  0.24685402261E+03  0.00000000000E+00 0.  1.
         23    2    1    2    0    0 -0.12381905690E+01 -0.70958633599E+01  0.34374968789E+02  0.99380947178E+02  0.92968004119E+02 0.  0.
         23    2    1    2    0    0  0.35623484510E+02 -0.56273880107E+02  0.35419145365E+02  0.11897778866E+03  0.92007695906E+02 0.  0.
        -11    1    4    4    0    0  0.57525023458E+02 -0.49381581770E+02 -0.11221727496E+01  0.75821686961E+02  0.00000000000E+00 0.  1.
         11    1    4    4    0    0 -0.21901538948E+02 -0.68922983370E+01  0.36541318114E+02  0.43156101703E+02  0.00000000000E+00 0. -1.
        -13    1    3    3    0    0 -0.31501787393E+02 -0.35801585692E+02  0.41473120137E+01  0.47867696247E+02  0.00000000000E+00 0.  1.
         13    1    3    3    0    0  0.30263596824E+02  0.28705722332E+02  0.30227656776E+02  0.51513250931E+02  0.00000000000E+00 0. -1.
         21    1    1    2  502  503 -0.55367203543E+00  0.65709472916E+02  0.38588794746E+02  0.76204569834E+02  0.00000000000E+00 0. -1.
         21    1    1    2  503  501 -0.33831621905E+02 -0.23397294490E+01 -0.15189398751E+03  0.15563366094E+03  0.00000000000E+00 0. -1.
<scales pt_clust_5="13000.00000" pt_clust_6="13000.00000" pt_clust_7="13000.00000" pt_clust_8="13000.00000" pt_clust_9="65.65388" pt_clust_10="33.91243"></scales>
<clustering>
<clus scale="   33.912">  2 10  1 -1</clus>
<clus scale="   65.654">  1  9  2 -1</clus>
<clus scale="   92.008">  5  6 -1 -1</clus>
<clus scale="   92.968">  7  8 -1 -1</clus>
<clus scale="   96.458">  1  5  2 -1</clus>
<clus scale="   65.654">  1  5  2 -1</clus>
</clustering>
</event>
<event>
10    2  0.1898324E-006  0.1326167E+03  0.7546771E-02  0.1223812E+00
          1   -1    0    0  502    0  0.00000000000E+00  0.00000000000E+00  0.96564399773E+02  0.96564399773E+02  0.00000000000E+00 0. -1.
         -1   -1    0    0    0  501 -0.00000000000E+00 -0.00000000000E+00 -0.12866797988E+04  0.12866797988E+04  0.00000000000E+00 0.  1.
         23    2    1    2    0    0  0.46069792800E+02  0.19088844373E+03 -0.90086391073E+03  0.92644226096E+03  0.90435908103E+02 0.  0.
         23    2    1    2    0    0 -0.13225992393E+02 -0.67327220888E+02 -0.25829916490E+01  0.11294146575E+03  0.89672857055E+02 0.  0.
        -11    1    4    4    0    0  0.19446808591E+02 -0.13748282556E+02  0.33079570601E+02  0.40760908096E+02  0.00000000000E+00 0. -1.
         11    1    4    4    0    0 -0.32672800984E+02 -0.53578938332E+02 -0.35662562250E+02  0.72180557653E+02  0.00000000000E+00 0.  1.
        -13    1    3    3    0    0 -0.11821392604E+02  0.13444570351E+03 -0.53653882694E+03  0.55325338257E+03  0.00000000000E+00 0. -1.
         13    1    3    3    0    0  0.57891185404E+02  0.56442740224E+02 -0.36432508379E+03  0.37318887839E+03  0.00000000000E+00 0.  1.
         21    1    1    2  502  503 -0.25364423316E+02 -0.20698270968E+02  0.62381847431E+01  0.33326976162E+02  0.00000000000E+00 0. -1.
         21    1    1    2  503  501 -0.74793770907E+01 -0.10286295187E+03 -0.29290668136E+03  0.31053349567E+03  0.00000000000E+00 0. -1.
<scales pt_clust_5="13000.00000" pt_clust_6="13000.00000" pt_clust_7="13000.00000" pt_clust_8="13000.00000" pt_clust_9="32.73794" pt_clust_10="105.75053"></scales>
<clustering>
<clus scale="   32.738">  1  9  2 -1</clus>
<clus scale="   89.673">  5  6 -1 -1</clus>
<clus scale="   90.436">  7  8 -1 -1</clus>
<clus scale="  105.751">  2 10  1 -1</clus>
<clus scale="  132.098">  1  5  2 -1</clus>
<clus scale="   32.738">  1  5  2 -1</clus>
</clustering>
</event>
<event>
10    2  0.1898324E-006  0.9628199E+02  0.7546771E-02  0.1291542E+00
          1   -1    0    0  502    0  0.00000000000E+00  0.00000000000E+00  0.35159244426E+03  0.35159244426E+03  0.00000000000E+00 0. -1.
         -1   -1    0    0    0  501 -0.00000000000E+00 -0.00000000000E+00 -0.61857763235E+02  0.61857763235E+02  0.00000000000E+00 0.  1.
         23    2    1    2    0    0  0.38054941754E+02 -0.27835027755E+02  0.52672335644E+02  0.11047876091E+03  0.84901203221E+02 0.  0.
         23    2    1    2    0    0 -0.31468693271E+02 -0.35574918502E+02  0.12498043024E+03  0.16167836397E+03  0.90906171136E+02 0.  0.
        -11    1    4    4    0    0 -0.56645209985E+02 -0.22249721013E+02  0.41998017752E+02  0.73942973936E+02  0.00000000000E+00 0.  1.
         11    1    4    4    0    0  0.25176516714E+02 -0.13325197489E+02  0.82982412492E+02  0.87735390037E+02  0.00000000000E+00 0. -1.
        -13    1    3    3    0    0  0.26466454733E+02  0.25891728085E+02  0.43224448833E+01  0.37276511896E+02  0.00000000000E+00 0.  1.
         13    1    3    3    0    0  0.11588487021E+02 -0.53726755839E+02  0.48349890760E+02  0.73202249016E+02  0.00000000000E+00 0. -1.
         21    1    1    2  502  503  0.10665565702E+02  0.37157160917E+02  0.10072628344E+03  0.10788972646E+03  0.00000000000E+00 0. -1.
         21    1    1    2  503  501 -0.17251814185E+02  0.26252785339E+02  0.11355631691E+02  0.33403356146E+02  0.00000000000E+00 0. -1.
<scales pt_clust_5="13000.00000" pt_clust_6="13000.00000" pt_clust_7="13000.00000" pt_clust_8="13000.00000" pt_clust_9="40.13530" pt_clust_10="31.41391"></scales>
<clustering>
<clus scale="   31.414">  2 10  1 -1</clus>
<clus scale="   40.135">  1  9  2 -1</clus>
<clus scale="   84.901">  7  8 -1 -1</clus>
<clus scale="   90.634">  2  7  1 -1</clus>
<clus scale="   90.906">  5  6 -1 -1</clus>
<clus scale="   40.135">  1  5  2 -1</clus>
</clustering>
</event>
<event>
10    2  0.1898324E-006  0.1104436E+03  0.7546771E-02  0.1259858E+00
         -2   -1    0    0    0  501 -0.00000000000E+00  0.00000000000E+00  0.46742335285E+02  0.46742335285E+02  0.00000000000E+00 0.  1.
          2   -1    0    0  502    0  0.00000000000E+00 -0.00000000000E+00 -0.47616041137E+03  0.47616041137E+03  0.00000000000E+00 0. -1.
         23    2    1    2    0    0 -0.51826338665E+02  0.52692974904E+02 -0.16949094264E+03  0.20579286701E+03  0.90338283633E+02 0.  0.
         23    2    1    2    0    0  0.51074608726E+02 -0.32462535268E+02 -0.20449699144E+03  0.23171904307E+03  0.90621540268E+02 0.  0.
        -11    1    4    4    0    0 -0.25382912375E+02 -0.41425790010E+01 -0.68304824808E+02  0.72986315796E+02  0.00000000000E+00 0.  1.
         11    1    4    4    0    0  0.76457521101E+02 -0.28319956268E+02 -0.13619216663E+03  0.15873272727E+03  0.00000000000E+00 0. -1.
        -13    1    3    3    0    0 -0.69542356051E+02  0.40038730056E+02 -0.78583384572E+02  0.11231468079E+03  0.00000000000E+00 0.  1.
         13    1    3    3    0    0  0.17716017386E+02  0.12654244848E+02 -0.90907558068E+02  0.93478186218E+02  0.00000000000E+00 0. -1.
         21    1    1    2  502  503 -0.21966959113E+02  0.17073018819E+01 -0.48192578475E+02  0.52990440576E+02  0.00000000000E+00 0.  1.
         21    1    1    2  503  501  0.22718689052E+02 -0.21937741518E+02 -0.72375635258E+01  0.32400396000E+02  0.00000000000E+00 0.  1.
<scales pt_clust_5="13000.00000" pt_clust_6="13000.00000" pt_clust_7="13000.00000" pt_clust_8="13000.00000" pt_clust_9="22.03321" pt_clust_10="30.79748"></scales>
<clustering>
<clus scale="   22.033">  2  9  1 -1</clus>
<clus scale="   30.797">  1 10  2 -1</clus>
<clus scale="   90.338">  7  8 -1 -1</clus>
<clus scale="   90.622">  5  6 -1 -1</clus>
<clus scale="  110.211">  1  7  2 -1</clus>
<clus scale="   22.033">  2  5  1 -1</clus>
</clustering>
</event>
<event>
10    2  0.1898324E-006  0.1438693E+03  0.7546771E-02  0.1208516E+00
         -1   -1    0    0    0  501 -0.00000000000E+00  0.00000000000E+00  0.35922592298E+03  0.35922592298E+03  0.00000000000E+00 0.  1.
          1   -1    0    0  502    0  0.00000000000E+00 -0.00000000000E+00 -0.18922048816E+03  0.18922048816E+03  0.00000000000E+00 0. -1.
         23    2    1    2    0    0  0.59628575816E+02 -0.13547042341E+03  0.16027962173E+03  0.23600112107E+03  0.89995385058E+02 0.  0.
         23    2    1    2    0    0 -0.10130438789E+03  0.66984818098E+02 -0.49890461727E+02  0.16000751946E+03  0.91453831253E+02 0.  0.
        -13    1    4    4    0    0 -0.75909403446E+02 -0.12723916854E+01 -0.41973062721E+02  0.86750184474E+02  0.00000000000E+00 0.  1.
         13    1    4    4    0    0 -0.25394984448E+02  0.68257209783E+02 -0.79173990055E+01  0.73257334988E+02  0.00000000000E+00 0. -1.
        -13    1    3    3    0    0  0.80100497770E+02 -0.85317157629E+02  0.12565694669E+03  0.17171131407E+03  0.00000000000E+00 0.  1.
         13    1    3    3    0    0 -0.20471921954E+02 -0.50153265778E+02  0.34622675039E+02  0.64289806996E+02  0.00000000000E+00 0. -1.
         21    1    1    2  502  503  0.22936716117E+02 -0.11522163215E+02 -0.24044501251E+02  0.35170886139E+02  0.00000000000E+00 0.  1.
         21    1    1    2  503  501  0.18739095961E+02  0.80007768524E+02  0.83660776067E+02  0.11726688447E+03  0.00000000000E+00 0. -1.
<scales pt_clust_5="13000.00000" pt_clust_6="13000.00000" pt_clust_7="13000.00000" pt_clust_8="13000.00000" pt_clust_9="25.66814" pt_clust_10="81.58492"></scales>
<clustering>
<clus scale="   25.668">  2  9  1 -1</clus>
<clus scale="   81.585">  1 10  2 -1</clus>
<clus scale="   89.995">  7  8 -1 -1</clus>
<clus scale="   91.454">  5  6 -1 -1</clus>
<clus scale="  142.947">  1  7  2 -1</clus>
<clus scale="   25.668">  2  5  1 -1</clus>
</clustering>
</event>
<event>
10    2  0.1898324E-006  0.1662387E+03  0.7546771E-02  0.1182166E+00
         -3   -1    0    0    0  501 -0.00000000000E+00  0.00000000000E+00  0.63446427393E+02  0.63446427393E+02  0.00000000000E+00 0.  1.
          3   -1    0    0  502    0  0.00000000000E+00 -0.00000000000E+00 -0.78280681610E+03  0.78280681610E+03  0.00000000000E+00 0. -1.
         23    2    1    2    0    0  0.40600148282E+02  0.17387932190E+03 -0.30781800411E+03  0.36722828639E+03  0.90676899181E+02 0.  0.
         23    2    1    2    0    0 -0.27447534316E+02 -0.10298832378E+03 -0.24136779545E+03  0.27825502520E+03  0.88359970539E+02 0.  0.
        -13    1    3    3    0    0  0.38488433425E+02  0.14886084446E+03 -0.17892762561E+03  0.23591525115E+03  0.00000000000E+00 0.  1.
         13    1    3    3    0    0  0.21117148571E+01  0.25018477445E+02 -0.12889037850E+03  0.13131303524E+03  0.00000000000E+00 0. -1.
        -13    1    4    4    0    0 -0.42342000135E+02 -0.59385195881E+02 -0.21054375967E+03  0.22281858361E+03  0.00000000000E+00 0. -1.
         13    1    4    4    0    0  0.14894465819E+02 -0.43603127897E+02 -0.30824035778E+02  0.55436441589E+02  0.00000000000E+00 0.  1.
         21    1    1    2  502  503  0.18231091862E+02 -0.44891280605E+02 -0.14496709254E+03  0.15284978805E+03  0.00000000000E+00 0. -1.
         21    1    1    2  503  501 -0.31383705828E+02 -0.25999717520E+02 -0.25207496607E+02  0.47920143862E+02  0.00000000000E+00 0. -1.
<scales pt_clust_5="13000.00000" pt_clust_6="13000.00000" pt_clust_7="13000.00000" pt_clust_8="13000.00000" pt_clust_9="49.46867" pt_clust_10="40.75441"></scales>
<clustering>
<clus scale="   40.754">  1 10  2 -1</clus>
<clus scale="   49.469">  2  9  1 -1</clus>
<clus scale="   88.360">  7  8 -1 -1</clus>
<clus scale="   90.677">  5  6 -1 -1</clus>
<clus scale="  164.986">  2  7  1 -1</clus>
<clus scale="   49.469">  2  5  1 -1</clus>
</clustering>
</event>
<event>
10    2  0.1898324E-006  0.1636913E+03  0.7546771E-02  0.1184784E+00
          1   -1    0    0  502    0  0.00000000000E+00  0.00000000000E+00  0.35978681270E+03  0.35978681270E+03  0.00000000000E+00 0. -1.
         -1   -1    0    0    0  501 -0.00000000000E+00 -0.00000000000E+00 -0.34760165419E+03  0.34760165419E+03  0.00000000000E+00 0.  1.
         23    2    1    2    0    0  0.12066185403E+03 -0.99849723108E+02 -0.13450424699E+03  0.22558066134E+03  0.90917501564E+02 0.  0.
         23    2    1    2    0    0 -0.11591871482E+03  0.47741917012E+02  0.12174698036E+02  0.15607603177E+03  0.92168678712E+02 0.  0.
        -11    1    4    4    0    0 -0.87061575667E+02 -0.11274866496E+02  0.19641228206E+02  0.89958981861E+02  0.00000000000E+00 0.  1.
         11    1    4    4    0    0 -0.28857139150E+02  0.59016783508E+02 -0.74665301696E+01  0.66117049906E+02  0.00000000000E+00 0. -1.
        -11    1    3    3    0    0  0.85674775848E+02 -0.15084842418E+02 -0.47229568079E+02  0.98986624290E+02  0.00000000000E+00 0.  1.
         11    1    3    3    0    0  0.34987078180E+02 -0.84764880689E+02 -0.87274678915E+02  0.12659403705E+03  0.00000000000E+00 0. -1.
         21    1    1    2  502  503  0.18644778514E+02  0.40158926402E+02  0.22613127149E+03  0.23042508344E+03  0.00000000000E+00 0. -1.
         21    1    1    2  503  501 -0.23387917726E+02  0.11948879694E+02 -0.91616564012E+02  0.95306690336E+02  0.00000000000E+00 0. -1.
<scales pt_clust_5="13000.00000" pt_clust_6="13000.00000" pt_clust_7="13000.00000" pt_clust_8="13000.00000" pt_clust_9="44.28494" pt_clust_10="26.26348"></scales>
<clustering>
<clus scale="   26.263">  2 10  1 -1</clus>
<clus scale="   44.285">  1  9  2 -1</clus>
<clus scale="   90.918">  7  8 -1 -1</clus>
<clus scale="   92.169">  5  6 -1 -1</clus>
<clus scale="  162.990">  2  7  1 -1</clus>
<clus scale="   44.285">  1  5  2 -1</clus>
</clustering>
</event>
<event>
10    2  0.1898324E-006  0.1081884E+03  0.7546771E-02  0.1264108E+00
         -2   -1    0    0    0  501 -0.00000000000E+00  0.00000000000E+00  0.53595829338E+03  0.53595829338E+03  0.00000000000E+00 0.  1.
          2   -1    0    0  502    0  0.00000000000E+00 -0.00000000000E+00 -0.40612915514E+02  0.40612915514E+02  0.00000000000E+00 0. -1.
         23    2    1    2    0    0  0.51840071181E+01 -0.64786395421E+02  0.18864535363E+03  0.21907382167E+03  0.90455065835E+02 0.  0.
         23    2    1    2    0    0 -0.99679326242E+01  0.50998051111E+02  0.14858931694E+03  0.18173555216E+03  0.90823261959E+02 0.  0.
        -11    1    3    3    0    0  0.39773142203E+02 -0.24282955525E+02  0.13769140041E+03  0.14536329150E+03  0.00000000000E+00 0.  1.
         11    1    3    3    0    0 -0.34589135085E+02 -0.40503439896E+02  0.50953953220E+02  0.73710530171E+02  0.00000000000E+00 0. -1.
        -13    1    4    4    0    0  0.37420329012E+02  0.45743247051E+01  0.63423401616E+02  0.73781659933E+02  0.00000000000E+00 0.  1.
         13    1    4    4    0    0 -0.47388261636E+02  0.46423726406E+02  0.85165915326E+02  0.10795389223E+03  0.00000000000E+00 0. -1.
         21    1    1    2  502  503 -0.29777749922E+02  0.14780172821E+02  0.36675100635E+02  0.49499807127E+02  0.00000000000E+00 0.  1.
         21    1    1    2  503  501  0.34561675428E+02 -0.99182851100E+00  0.12143560667E+03  0.12626202794E+03  0.00000000000E+00 0.  1.
<scales pt_clust_5="13000.00000" pt_clust_6="13000.00000" pt_clust_7="13000.00000" pt_clust_8="13000.00000" pt_clust_9="33.24407" pt_clust_10="32.46058"></scales>
<clustering>
<clus scale="   33.244">  2  9  1 -1</clus>
<clus scale="   32.461">  1 10  2 -1</clus>
<clus scale="   90.455">  5  6 -1 -1</clus>
<clus scale="   90.823">  7  8 -1 -1</clus>
<clus scale="  107.880">  1  5  2 -1</clus>
<clus scale="   33.244">  2  5  1 -1</clus>
</clustering>
</event>
<event>
10    2  0.1898324E-006  0.1034421E+03  0.7546771E-02  0.1273366E+00
         -1   -1    0    0    0  501 -0.00000000000E+00  0.00000000000E+00  0.20262345237E+03  0.20262345237E+03  0.00000000000E+00 0.  1.
          1   -1    0    0  502    0  0.00000000000E+00 -0.00000000000E+00 -0.12682769924E+03  0.12682769924E+03  0.00000000000E+00 0. -1.
         23    2    1    2    0    0  0.16712626564E+01 -0.57003372405E+02  0.84967961515E+02  0.13715964454E+03  0.91329272543E+02 0.  0.
         23    2    1    2    0    0 -0.15062837755E+02  0.59086796905E+02 -0.30937280002E+02  0.11435209435E+03  0.91657774017E+02 0.  0.
        -11    1    3    3    0    0 -0.37926882165E+02 -0.36089478311E+02  0.74693894411E+02  0.91214454434E+02  0.00000000000E+00 0. -1.
         11    1    3    3    0    0  0.39598144821E+02 -0.20913894093E+02  0.10274067104E+02  0.45945190110E+02  0.00000000000E+00 0.  1.
        -13    1    4    4    0    0  0.28980798539E+02  0.57921253284E+01  0.13155866775E+02  0.32349841273E+02  0.00000000000E+00 0.  1.
         13    1    4    4    0    0 -0.44043636294E+02  0.53294671577E+02 -0.44093146777E+02  0.82002253074E+02  0.00000000000E+00 0. -1.
         21    1    1    2  502  503  0.10774545535E+02 -0.23721761799E+02 -0.18636635827E+02  0.32033373367E+02  0.00000000000E+00 0. -1.
         21    1    1    2  503  501  0.26170295637E+01  0.21638337298E+02  0.40401707439E+02  0.45906039349E+02  0.00000000000E+00 0.  1.
<scales pt_clust_5="13000.00000" pt_clust_6="13000.00000" pt_clust_7="13000.00000" pt_clust_8="13000.00000" pt_clust_9="25.27644" pt_clust_10="21.79602"></scales>
<clustering>
<clus scale="   21.796">  1 10  2 -1</clus>
<clus scale="   25.276">  2  9  1 -1</clus>
<clus scale="   91.329">  5  6 -1 -1</clus>
<clus scale="   91.658">  7  8 -1 -1</clus>
<clus scale="  103.151">  1  5  2 -1</clus>
<clus scale="   25.276">  2  5  1 -1</clus>
</clustering>
</event>
<event>
10    2  0.1898324E-006  0.5061179E+03  0.7546771E-02  0.1012196E+00
          1   -1    0    0  502    0  0.00000000000E+00  0.00000000000E+00  0.10613442555E+04  0.10613442555E+04  0.00000000000E+00 0. -1.
         -1   -1    0    0    0  501 -0.00000000000E+00 -0.00000000000E+00 -0.32313014592E+03  0.32313014592E+03  0.00000000000E+00 0.  1.
         23    2    1    2    0    0  0.47034967490E+03 -0.20398350785E+03  0.29205037047E+03  0.59678867734E+03  0.89583583050E+02 0.  0.
         23    2    1    2    0    0 -0.39411485086E+03  0.28467499017E+03  0.41157000446E+03  0.64323582945E+03  0.89420903723E+02 0.  0.
        -13    1    4    4    0    0 -0.63599568261E+02  0.27561513756E+02  0.98283978252E+02  0.12026754552E+03  0.00000000000E+00 0.  1.
         13    1    4    4    0    0 -0.33051528260E+03  0.25711347642E+03  0.31328602621E+03  0.52296828393E+03  0.00000000000E+00 0. -1.
        -13    1    3    3    0    0  0.39573196050E+03 -0.20443715445E+03  0.24170363129E+03  0.50677310511E+03  0.00000000000E+00 0.  1.
         13    1    3    3    0    0  0.74617714404E+02  0.45364660396E+00  0.50346739180E+02  0.90015572232E+02  0.00000000000E+00 0. -1.
         21    1    1    2  502  503 -0.33450306264E+02  0.11184818892E+02  0.23750248424E+02  0.42521729304E+02  0.00000000000E+00 0.  1.
         21    1    1    2  503  501 -0.42784517780E+02 -0.91876301217E+02  0.10843486196E+02  0.10192816529E+03  0.00000000000E+00 0.  1.
<scales pt_clust_5="13000.00000" pt_clust_6="13000.00000" pt_clust_7="13000.00000" pt_clust_8="13000.00000" pt_clust_9="35.27071" pt_clust_10="101.58627"></scales>
<clustering>
<clus scale="   35.271">  1  9  2 -1</clus>
<clus scale="   89.421">  5  6 -1 -1</clus>
<clus scale="   89.584">  7  8 -1 -1</clus>
<clus scale="  101.586">  2 10  1 -1</clus>
<clus scale="  506.089">  1  5  2 -1</clus>
<clus scale="   35.271">  1  5  2 -1</clus>
</clustering>
</event>
<event>
10    2  0.1898324E-006  0.9532952E+02  0.7546771E-02  0.1291078E+00
          1   -1    0    0  502    0  0.00000000000E+00  0.00000000000E+00  0.31180393345E+03  0.31180393345E+03  0.00000000000E+00 0. -1.
         -1   -1    0    0    0  501 -0.00000000000E+00 -0.00000000000E+00 -0.13205968350E+03  0.13205968350E+03  0.00000000000E+00 0.  1.
         23    2    1    2    0    0 -0.89770204796E+01  0.54869960153E+02  0.75640847306E+02  0.13075984901E+03  0.91023628295E+02 0.  0.
         23    2    1    2    0    0 -0.25581727547E+02 -0.60280145629E+01  0.14734147291E+03  0.17455606904E+03  0.89830673260E+02 0.  0.
        -11    1    3    3    0    0 -0.34507687361E+02  0.54947006498E+02  0.81886162671E+02  0.10447630184E+03  0.00000000000E+00 0. -1.
         11    1    3    3    0    0  0.25530666882E+02 -0.77046345019E-01 -0.62453153653E+01  0.26283547165E+02  0.00000000000E+00 0.  1.
        -13    1    4    4    0    0  0.88450076567E+01 -0.39937926852E+02  0.41836024854E+02  0.58510897594E+02  0.00000000000E+00 0.  1.
         13    1    4    4    0    0 -0.34426735204E+02  0.33909912289E+02  0.10550544805E+03  0.11604517145E+03  0.00000000000E+00 0. -1.
         21    1    1    2  502  503  0.19462979998E+02 -0.13742023199E+02  0.40226766418E+02  0.46753005556E+02  0.00000000000E+00 0. -1.
         21    1    1    2  503  501  0.15095768029E+02 -0.35099922391E+02 -0.83464836674E+02  0.91794693339E+02  0.00000000000E+00 0.  1.
<scales pt_clust_5="13000.00000" pt_clust_6="13000.00000" pt_clust_7="13000.00000" pt_clust_8="13000.00000" pt_clust_9="23.82542" pt_clust_10="38.52427"></scales>
<clustering>
<clus scale="   23.825">  1  9  2 -1</clus>
<clus scale="   38.524">  2 10  1 -1</clus>
<clus scale="   89.831">  7  8 -1 -1</clus>
<clus scale="   91.024">  5  6 -1 -1</clus>
<clus scale="   94.191">  1  7  2 -1</clus>
<clus scale="   23.825">  1  5  2 -1</clus>
</clustering>
</event>
<event>
10    2  0.1898324E-006  0.1057502E+03  0.7546771E-02  0.1269041E+00
          1   -1    0    0  502    0  0.00000000000E+00  0.00000000000E+00  0.17310038536E+03  0.17310038536E+03  0.00000000000E+00 0. -1.
         -1   -1    0    0    0  501 -0.00000000000E+00 -0.00000000000E+00 -0.38060496160E+03  0.38060496160E+03  0.00000000000E+00 0.  1.
         23    2    1    2    0    0 -0.55571462397E+02  0.28316203270E+01 -0.88323294295E+02  0.13834333740E+03  0.90783639391E+02 0.  0.
         23    2    1    2    0    0  0.45321702190E+02  0.87494620583E+01 -0.49395713276E+02  0.11393409140E+03  0.91708401570E+02 0.  0.
        -11    1    3    3    0    0 -0.64207939288E+01 -0.24904157363E+02  0.78014251722E+01  0.26875748982E+02  0.00000000000E+00 0. -1.
         11    1    3    3    0    0 -0.49150668468E+02  0.27735777690E+02 -0.96124719467E+02  0.11146758842E+03  0.00000000000E+00 0.  1.
        -13    1    4    4    0    0 -0.72705541775E+01  0.26324684338E+02  0.13180230922E+02  0.30324387062E+02  0.00000000000E+00 0.  1.
         13    1    4    4    0    0  0.52592256368E+02 -0.17575222279E+02 -0.62575944198E+02  0.83609704343E+02  0.00000000000E+00 0. -1.
         21    1    1    2  502  503  0.30030012028E+02  0.46573010881E+01  0.11292053163E+03  0.11693818255E+03  0.00000000000E+00 0. -1.
         21    1    1    2  503  501 -0.19780251821E+02 -0.16238383473E+02 -0.18270610029E+03  0.18448973561E+03  0.00000000000E+00 0.  1.
<scales pt_clust_5="13000.00000" pt_clust_6="13000.00000" pt_clust_7="13000.00000" pt_clust_8="13000.00000" pt_clust_9="30.16462" pt_clust_10="25.59186"></scales>
<clustering>
<clus scale="   25.592">  2 10  1 -1</clus>
<clus scale="   30.165">  1  9  2 -1</clus>
<clus scale="   90.784">  5  6 -1 -1</clus>
<clus scale="   91.708">  7  8 -1 -1</clus>
<clus scale="  104.949">  2  5  1 -1</clus>
<clus scale="   30.165">  1  5  2 -1</clus>
</clustering>
</event>
<event>
10    2  0.1898324E-006  0.1060443E+03  0.7546771E-02  0.1269084E+00
         -4   -1    0    0    0  501 -0.00000000000E+00  0.00000000000E+00  0.51856473894E+03  0.51856473894E+03  0.00000000000E+00 0.  1.
          4   -1    0    0  502    0  0.00000000000E+00 -0.00000000000E+00 -0.21498101430E+03  0.21498101430E+03  0.00000000000E+00 0. -1.
         23    2    1    2    0    0 -0.13995226745E+02 -0.40614106618E+01  0.27848390393E+03  0.29371271931E+03  0.92203662111E+02 0.  0.
         23    2    1    2    0    0 -0.66607110791E+02  0.36437974334E+02 -0.80492972289E+02  0.14252667582E+03  0.89835970248E+02 0.  0.
        -11    1    3    3    0    0  0.35063805403E+02 -0.14028433524E+02  0.17130865757E+03  0.17542212960E+03  0.00000000000E+00 0.  1.
         11    1    3    3    0    0 -0.49059032148E+02  0.99670228620E+01  0.10717524636E+03  0.11829058970E+03  0.00000000000E+00 0. -1.
        -13    1    4    4    0    0  0.20157364289E+02  0.20795302741E+02 -0.25726429587E+02  0.38737748134E+02  0.00000000000E+00 0.  1.
         13    1    4    4    0    0 -0.86764475080E+02  0.15642671594E+02 -0.54766542701E+02  0.10378892769E+03  0.00000000000E+00 0. -1.
         21    1    1    2  502  503  0.10232226267E+02 -0.26606442652E+02 -0.87332328857E+02  0.91866952211E+02  0.00000000000E+00 0.  1.
         21    1    1    2  503  501  0.70370111269E+02 -0.57701210200E+01  0.19292512185E+03  0.20543940590E+03  0.00000000000E+00 0.  1.
<scales pt_clust_5="13000.00000" pt_clust_6="13000.00000" pt_clust_7="13000.00000" pt_clust_8="13000.00000" pt_clust_9="28.50616" pt_clust_10="71.23525"></scales>
<clustering>
<clus scale="   28.506">  2  9  1 -1</clus>
<clus scale="   71.235">  1 10  2 -1</clus>
<clus scale="   89.836">  7  8 -1 -1</clus>
<clus scale="   92.204">  5  6 -1 -1</clus>
<clus scale="  103.992">  2  7  1 -1</clus>
<clus scale="   28.506">  2  5  1 -1</clus>
</clustering>
</event>
<event>
10    2  0.1898324E-006  0.9775746E+02  0.7546771E-02  0.1292215E+00
         -1   -1    0    0    0  501 -0.00000000000E+00  0.00000000000E+00  0.30863714708E+03  0.30863714708E+03  0.00000000000E+00 0.  1.
          1   -1    0    0  502    0  0.00000000000E+00 -0.00000000000E+00 -0.13817788233E+03  0.13817788233E+03  0.00000000000E+00 0. -1.
         23    2    1    2    0    0 -0.15009698870E+02  0.52467297151E+02  0.12084468174E+03  0.16062730790E+03  0.90661935813E+02 0.  0.
         23    2    1    2    0    0 -0.32834232196E+02 -0.27321086985E+02  0.74521963775E+02  0.11555590467E+03  0.77298870759E+02 0.  0.
        -11    1    3    3    0    0  0.19658859341E+02  0.46077218620E+02  0.20248680053E+02  0.54033229315E+02  0.00000000000E+00 0. -1.
         11    1    3    3    0    0 -0.34668558212E+02  0.63900785315E+01  0.10059600169E+03  0.10659407858E+03  0.00000000000E+00 0.  1.
        -13    1    4    4    0    0 -0.47084000160E+02 -0.45321354700E+02  0.54588715431E+02  0.85151958964E+02  0.00000000000E+00 0.  1.
         13    1    4    4    0    0  0.14249767964E+02  0.18000267715E+02  0.19933248343E+02  0.30403945704E+02  0.00000000000E+00 0. -1.
         21    1    1    2  502  503  0.29525805399E+02  0.15993787926E+02 -0.87385482671E+02  0.93615153786E+02  0.00000000000E+00 0. -1.
         21    1    1    2  503  501  0.18318125668E+02 -0.41139998093E+02  0.62478101905E+02  0.77016663059E+02  0.00000000000E+00 0.  1.
<scales pt_clust_5="13000.00000" pt_clust_6="13000.00000" pt_clust_7="13000.00000" pt_clust_8="13000.00000" pt_clust_9="33.57938" pt_clust_10="44.92827"></scales>
<clustering>
<clus scale="   33.579">  2  9  1 -1</clus>
<clus scale="   44.928">  1 10  2 -1</clus>
<clus scale="   77.299">  7  8 -1 -1</clus>
<clus scale="   85.511">  2  7  1 -1</clus>
<clus scale="   90.662">  5  6 -1 -1</clus>
<clus scale="   33.579">  2  5  1 -1</clus>
</clustering>
</event>
<event>
10    2  0.1898324E-006  0.9327164E+02  0.7546771E-02  0.1297433E+00
         -3   -1    0    0    0  501 -0.00000000000E+00  0.00000000000E+00  0.39607867863E+02  0.39607867863E+02  0.00000000000E+00 0.  1.
          3   -1    0    0  502    0  0.00000000000E+00 -0.00000000000E+00 -0.41935673255E+03  0.41935673255E+03  0.00000000000E+00 0. -1.
         23    2    1    2    0    0 -0.19852118121E+02  0.10174426428E+02 -0.13222771987E+03  0.16031500201E+03  0.87858433970E+02 0.  0.
         23    2    1    2    0    0  0.51888114763E+01 -0.15535245477E+02 -0.15833128770E+03  0.18377242558E+03  0.91843563312E+02 0.  0.
        -13    1    4    4    0    0 -0.18721233675E+02 -0.38157001745E+02 -0.13954286947E+03  0.14587204596E+03  0.00000000000E+00 0. -1.
         13    1    4    4    0    0  0.23910045151E+02  0.22621756268E+02 -0.18788418231E+02  0.37900379621E+02  0.00000000000E+00 0.  1.
        -13    1    3    3    0    0 -0.12157945587E+02 -0.38363766600E+02 -0.46470147461E+02  0.61474131419E+02  0.00000000000E+00 0. -1.
         13    1    3    3    0    0 -0.76941725339E+01  0.48538193027E+02 -0.85757572411E+02  0.98840870591E+02  0.00000000000E+00 0.  1.
         21    1    1    2  502  503 -0.46781554994E+01  0.23700524326E+02 -0.84408788225E+02  0.87797742123E+02  0.00000000000E+00 0. -1.
         21    1    1    2  503  501  0.19341462144E+02 -0.18339705276E+02 -0.47810688927E+01  0.27079430704E+02  0.00000000000E+00 0.  1.
<scales pt_clust_5="13000.00000" pt_clust_6="13000.00000" pt_clust_7="13000.00000" pt_clust_8="13000.00000" pt_clust_9="24.15781" pt_clust_10="25.72090"></scales>
<clustering>
<clus scale="   24.158">  2  9  1 -1</clus>
<clus scale="   25.721">  1 10  2 -1</clus>
<clus scale="   87.858">  7  8 -1 -1</clus>
<clus scale="   89.350">  1  7  2 -1</clus>
<clus scale="   91.844">  5  6 -1 -1</clus>
<clus scale="   24.158">  2  5  1 -1</clus>
</clustering>
</event>
<event>
10    2  0.1898324E-006  0.3173198E+03  0.7546771E-02  0.1076951E+00
         -1   -1    0    0    0  501 -0.00000000000E+00  0.00000000000E+00  0.52699139274E+03  0.52699139274E+03  0.00000000000E+00 0.  1.
          1   -1    0    0  502    0  0.00000000000E+00 -0.00000000000E+00 -0.60726560677E+03  0.60726560677E+03  0.00000000000E+00 0. -1.
         23    2    1    2    0    0 -0.33793481861E+03  0.66977924328E+02  0.23377401977E+03  0.42539106196E+03  0.87299938696E+02 0.  0.
         23    2    1    2    0    0  0.25669883431E+03 -0.83018535773E+02 -0.12123854092E+03  0.30893308247E+03  0.89187985844E+02 0.  0.
        -11    1    3    3    0    0 -0.32111252490E+03  0.79094311803E+02  0.20222207207E+03  0.38763762748E+03  0.00000000000E+00 0.  1.
         11    1    3    3    0    0 -0.16822293717E+02 -0.12116387475E+02  0.31551947701E+02  0.37753434480E+02  0.00000000000E+00 0. -1.
        -13    1    4    4    0    0  0.24951469231E+03 -0.55372852725E+02 -0.10889480850E+03  0.27781615110E+03  0.00000000000E+00 0. -1.
         13    1    4    4    0    0  0.71841420089E+01 -0.27645683048E+02 -0.12343732422E+02  0.31116931367E+02  0.00000000000E+00 0.  1.
         21    1    1    2  502  503  0.38817913406E+02  0.33885152404E+01 -0.29027930850E+03  0.29288289363E+03  0.00000000000E+00 0. -1.
         21    1    1    2  503  501  0.42418070894E+02  0.12652096205E+02  0.97469615623E+02  0.10704996145E+03  0.00000000000E+00 0.  1.
<scales pt_clust_5="13000.00000" pt_clust_6="13000.00000" pt_clust_7="13000.00000" pt_clust_8="13000.00000" pt_clust_9="38.96553" pt_clust_10="44.84405"></scales>
<clustering>
<clus scale="   38.966">  2  9  1 -1</clus>
<clus scale="   44.844">  1 10  2 -1</clus>
<clus scale="   87.300">  5  6 -1 -1</clus>
<clus scale="   89.188">  7  8 -1 -1</clus>
<clus scale="  316.794">  1  5  2 -1</clus>
<clus scale="   38.966">  2  5  1 -1</clus>
</clustering>
</event>
<event>
10    2  0.1898324E-006  0.1273670E+03  0.7546771E-02  0.1231583E+00
         -1   -1    0    0    0  501 -0.00000000000E+00  0.00000000000E+00  0.27638827649E+03  0.27638827649E+03  0.00000000000E+00 0.  1.
          1   -1    0    0  502    0  0.00000000000E+00 -0.00000000000E+00 -0.27855291323E+03  0.27855291323E+03  0.00000000000E+00 0. -1.
         23    2    1    2    0    0  0.74649472536E+02  0.35238343886E+02 -0.27008917068E+02  0.12452424685E+03  0.89232963769E+02 0.  0.
         23    2    1    2    0    0 -0.10510635719E+03 -0.21909688658E+02 -0.12787047395E+03  0.18961004530E+03  0.89853939225E+02 0.  0.
        -13    1    4    4    0    0 -0.81403015966E+02 -0.40766253906E+02 -0.13059802964E+03  0.15919856724E+03  0.00000000000E+00 0. -1.
         13    1    4    4    0    0 -0.23703341219E+02  0.18856565248E+02  0.27275556909E+01  0.30411478063E+02  0.00000000000E+00 0.  1.
        -13    1    3    3    0    0 -0.44569843330E+00 -0.23688836380E+02 -0.15651071548E+02  0.28395697856E+02  0.00000000000E+00 0.  1.
         13    1    3    3    0    0  0.75095170970E+02  0.58927180266E+02 -0.11357845520E+02  0.96128548995E+02  0.00000000000E+00 0. -1.
         21    1    1    2  502  503  0.22393359391E+02  0.94919412469E+01 -0.39872246369E+02  0.46704983931E+02  0.00000000000E+00 0. -1.
         21    1    1    2  503  501  0.80635252581E+01 -0.22820596475E+02  0.19258700064E+03  0.19410191363E+03  0.00000000000E+00 0.  1.
<scales pt_clust_5="13000.00000" pt_clust_6="13000.00000" pt_clust_7="13000.00000" pt_clust_8="13000.00000" pt_clust_9="24.28138" pt_clust_10="24.20331"></scales>
<clustering>
<clus scale="   24.203">  1 10  2 -1</clus>
<clus scale="   24.281">  2  9  1 -1</clus>
<clus scale="   89.233">  7  8 -1 -1</clus>
<clus scale="   89.854">  5  6 -1 -1</clus>
<clus scale="  126.930">  1  7  2 -1</clus>
<clus scale="   24.281">  2  5  1 -1</clus>
</clustering>
</event>
<event>
10    2  0.1898324E-006  0.2747554E+03  0.7546771E-02  0.1098722E+00
          1   -1    0    0  502    0  0.00000000000E+00  0.00000000000E+00  0.80071658184E+03  0.80071658184E+03  0.00000000000E+00 0. -1.
         -1   -1    0    0    0  501 -0.00000000000E+00 -0.00000000000E+00 -0.18611302892E+03  0.18611302892E+03  0.00000000000E+00 0.  1.
         23    2    1    2    0    0  0.11216000002E+03  0.21800663335E+03 -0.30446071193E+02  0.26222691669E+03  0.87916066756E+02 0.  0.
         23    2    1    2    0    0 -0.99256227396E+02 -0.23637678919E+03  0.52436660714E+03  0.58982536243E+03  0.84898965505E+02 0.  0.
        -11    1    3    3    0    0  0.87761927515E+02  0.15683040385E+03  0.17783929907E+02  0.18059401888E+03  0.00000000000E+00 0.  1.
         11    1    3    3    0    0  0.24398072509E+02  0.61176229504E+02 -0.48230001100E+02  0.81632897808E+02  0.00000000000E+00 0. -1.
        -11    1    4    4    0    0 -0.29643495942E+02 -0.15802844074E+03  0.26334803370E+03  0.30855131144E+03  0.00000000000E+00 0.  1.
         11    1    4    4    0    0 -0.69612731454E+02 -0.78348348446E+02  0.26101857344E+03  0.28127405100E+03  0.00000000000E+00 0. -1.
         21    1    1    2  502  503 -0.20468367142E+02 -0.17788984935E+01  0.10770040282E+03  0.10964257978E+03  0.00000000000E+00 0. -1.
         21    1    1    2  503  501  0.75645945142E+01  0.20149054333E+02  0.12982614158E+02  0.25134751860E+02  0.00000000000E+00 0.  1.
<scales pt_clust_5="13000.00000" pt_clust_6="13000.00000" pt_clust_7="13000.00000" pt_clust_8="13000.00000" pt_clust_9="20.54552" pt_clust_10="21.28439"></scales>
<clustering>
<clus scale="   20.546">  1  9  2 -1</clus>
<clus scale="   21.284">  2 10  1 -1</clus>
<clus scale="   84.899">  7  8 -1 -1</clus>
<clus scale="   87.916">  5  6 -1 -1</clus>
<clus scale="  273.805">  1  7  2 -1</clus>
<clus scale="   20.546">  1  5  2 -1</clus>
</clustering>
</event>
<event>
10    2  0.1898324E-006  0.1484844E+03  0.7546771E-02  0.1202538E+00
          1   -1    0    0  502    0  0.00000000000E+00  0.00000000000E+00  0.27276247506E+03  0.27276247506E+03  0.00000000000E+00 0. -1.
         -1   -1    0    0    0  501 -0.00000000000E+00 -0.00000000000E+00 -0.20834703543E+03  0.20834703543E+03  0.00000000000E+00 0.  1.
         23    2    1    2    0    0  0.11139888922E+03  0.81234348132E+01 -0.51606306772E+02  0.15248663786E+03  0.90073642721E+02 0.  0.
         23    2    1    2    0    0 -0.11501563795E+03  0.17414592101E+01  0.36987207369E+02  0.15130669966E+03  0.91071588326E+02 0.  0.
        -13    1    4    4    0    0 -0.11486026547E+03  0.25148796666E+02  0.45951078127E+02  0.12624121410E+03  0.00000000000E+00 0.  1.
         13    1    4    4    0    0 -0.15537248359E+00 -0.23407337455E+02 -0.89638707584E+01  0.25065485559E+02  0.00000000000E+00 0. -1.
        -13    1    3    3    0    0  0.14346961768E+02  0.15024847440E+02 -0.51129107745E+02  0.55188468101E+02  0.00000000000E+00 0.  1.
         13    1    3    3    0    0  0.97051927455E+02 -0.69014126266E+01 -0.47719902659E+00  0.97298169756E+02  0.00000000000E+00 0. -1.
         21    1    1    2  502  503 -0.13537692036E+02 -0.32712410349E+02  0.12126596402E+03  0.12632816363E+03  0.00000000000E+00 0. -1.
         21    1    1    2  503  501  0.17154440765E+02  0.22847516325E+02 -0.42231424984E+02  0.50988009339E+02  0.00000000000E+00 0.  1.
<scales pt_clust_5="13000.00000" pt_clust_6="13000.00000" pt_clust_7="13000.00000" pt_clust_8="13000.00000" pt_clust_9="34.97012" pt_clust_10="28.57068"></scales>
<clustering>
<clus scale="   28.571">  2 10  1 -1</clus>
<clus scale="   34.970">  1  9  2 -1</clus>
<clus scale="   90.074">  7  8 -1 -1</clus>
<clus scale="   91.072">  5  6 -1 -1</clus>
<clus scale="  147.874">  2  7  1 -1</clus>
<clus scale="   34.970">  1  5  2 -1</clus>
</clustering>
</event>
<event>
10    2  0.1898324E-006  0.1363151E+03  0.7546771E-02  0.1219309E+00
          2   -1    0    0  502    0  0.00000000000E+00  0.00000000000E+00  0.33521141932E+03  0.33521141932E+03  0.00000000000E+00 0. -1.
         -2   -1    0    0    0  501 -0.00000000000E+00 -0.00000000000E+00 -0.30255966734E+03  0.30255966734E+03  0.00000000000E+00 0.  1.
         23    2    1    2    0    0  0.20429073708E+00 -0.81898743256E+02 -0.22515545365E+03  0.25787923326E+03  0.95390118764E+02 0.  0.
         23    2    1    2    0    0 -0.34711604804E+01  0.60866639609E+02  0.22471384074E+03  0.25019253672E+03  0.91559807977E+02 0.  0.
        -11    1    4    4    0    0  0.35865996939E+02  0.42661855251E+02  0.17774866835E+03  0.18628202471E+03  0.00000000000E+00 0. -1.
         11    1    4    4    0    0 -0.39337157419E+02  0.18204784358E+02  0.46965172385E+02  0.63910512003E+02  0.00000000000E+00 0.  1.
        -13    1    3    3    0    0  0.34283039165E+01 -0.54430826975E+02 -0.22362601366E+03  0.23018049913E+03  0.00000000000E+00 0.  1.
         13    1    3    3    0    0 -0.32240131794E+01 -0.27467916282E+02 -0.15294399867E+01  0.27698734132E+02  0.00000000000E+00 0. -1.
         21    1    1    2  502  503 -0.20554391192E+02  0.39605612148E+02  0.69376913522E+02  0.82487839350E+02  0.00000000000E+00 0. -1.
         21    1    1    2  503  501  0.23821260936E+02 -0.18573508501E+02 -0.36283548633E+02  0.47211477333E+02  0.00000000000E+00 0.  1.
<scales pt_clust_5="13000.00000" pt_clust_6="13000.00000" pt_clust_7="13000.00000" pt_clust_8="13000.00000" pt_clust_9="43.93258" pt_clust_10="30.20642"></scales>
<clustering>
<clus scale="   30.206">  2 10  1 -1</clus>
<clus scale="   43.933">  1  9  2 -1</clus>
<clus scale="   91.560">  5  6 -1 -1</clus>
<clus scale="   95.390">  7  8 -1 -1</clus>
<clus scale="  133.663">  1  5  2 -1</clus>
<clus scale="   43.933">  1  5  2 -1</clus>
</clustering>
</event>
<event>
10    2  0.1898324E-006  0.1040078E+03  0.7546771E-02  0.1275410E+00
          1   -1    0    0  502    0  0.00000000000E+00  0.00000000000E+00  0.34178247132E+03  0.34178247132E+03  0.00000000000E+00 0. -1.
         -1   -1    0    0    0  501 -0.00000000000E+00 -0.00000000000E+00 -0.62372462524E+02  0.62372462524E+02  0.00000000000E+00 0.  1.
         23    2    1    2    0    0  0.30803631903E+02 -0.19682760347E+02  0.12409113386E+03  0.16220774320E+03  0.97859428051E+02 0.  0.
         23    2    1    2    0    0 -0.36492903898E+02  0.11386771255E+01  0.13417238417E+03  0.16617591444E+03  0.90989984304E+02 0.  0.
        -11    1    4    4    0    0 -0.27411719952E+02 -0.44081872775E+02  0.72156995146E+02  0.88888952332E+02  0.00000000000E+00 0. -1.
         11    1    4    4    0    0 -0.90811839451E+01  0.45220549901E+02  0.62015389026E+02  0.77286962104E+02  0.00000000000E+00 0.  1.
        -13    1    3    3    0    0  0.40779572908E+02  0.23595494689E+02  0.24370095601E+02  0.53043590525E+02  0.00000000000E+00 0.  1.
         13    1    3    3    0    0 -0.99759410054E+01 -0.43278255036E+02  0.99721038262E+02  0.10916415268E+03  0.00000000000E+00 0. -1.
         21    1    1    2  502  503 -0.23690242528E+02  0.23225884062E+02  0.30002914552E+02  0.44730796585E+02  0.00000000000E+00 0. -1.
         21    1    1    2  503  501  0.29379514523E+02 -0.46818008405E+01 -0.88564237898E+01  0.31040479620E+02  0.00000000000E+00 0. -1.
<scales pt_clust_5="13000.00000" pt_clust_6="13000.00000" pt_clust_7="13000.00000" pt_clust_8="13000.00000" pt_clust_9="29.11977" pt_clust_10="29.75021"></scales>
<clustering>
<clus scale="   29.750">  2 10  1 -1</clus>
<clus scale="   29.120">  2  9  1 -1</clus>
<clus scale="   90.990">  5  6 -1 -1</clus>
<clus scale="   97.572">  1  5  2 -1</clus>
<clus scale="   97.859">  7  8 -1 -1</clus>
<clus scale="   97.572">  1  5  2 -1</clus>
</clustering>
</event>
<event>
10    2  0.1898324E-006  0.1427520E+03  0.7546771E-02  0.1210086E+00
         -1   -1    0    0    0  501 -0.00000000000E+00  0.00000000000E+00  0.10687944604E+03  0.10687944604E+03  0.00000000000E+00 0.  1.
          1   -1    0    0  502    0  0.00000000000E+00 -0.00000000000E+00 -0.85788395960E+03  0.85788395960E+03  0.00000000000E+00 0. -1.
         23    2    1    2    0    0 -0.85248337539E+02  0.15717377620E+02  0.20408208980E+02  0.12657212216E+03  0.89942715667E+02 0.  0.
         23    2    1    2    0    0  0.11954660207E+03  0.76428481190E+00 -0.30981134681E+03  0.34455895352E+03  0.91901184088E+02 0.  0.
        -11    1    4    4    0    0  0.55343289800E+02 -0.44537851636E+02 -0.16865880372E+03  0.18300899439E+03  0.00000000000E+00 0. -1.
         11    1    4    4    0    0  0.64203312270E+02  0.45302136448E+02 -0.14115254309E+03  0.16154995913E+03  0.00000000000E+00 0.  1.
        -13    1    3    3    0    0  0.11585151041E+01 -0.24971709024E+02 -0.91099991525E+01  0.26606775328E+02  0.00000000000E+00 0. -1.
         13    1    3    3    0    0 -0.86406852643E+02  0.40689086644E+02  0.29518208132E+02  0.99965346830E+02  0.00000000000E+00 0.  1.
         21    1    1    2  502  503 -0.15734504748E+02 -0.56308718057E+02 -0.44142597796E+03  0.44528096791E+03  0.00000000000E+00 0. -1.
         21    1    1    2  503  501 -0.18563759783E+02  0.39827055625E+02 -0.20175397764E+02  0.48351362049E+02  0.00000000000E+00 0. -1.
<scales pt_clust_5="13000.00000" pt_clust_6="13000.00000" pt_clust_7="13000.00000" pt_clust_8="13000.00000" pt_clust_9="57.77582" pt_clust_10="43.94096"></scales>
<clustering>
<clus scale="   43.941">  1 10  2 -1</clus>
<clus scale="   57.776">  2  9  1 -1</clus>
<clus scale="   89.943">  7  8 -1 -1</clus>
<clus scale="   91.901">  5  6 -1 -1</clus>
<clus scale="  141.499">  1  7  2 -1</clus>
<clus scale="   57.776">  2  5  1 -1</clus>
</clustering>
</event>
<event>
10    2  0.1898324E-006  0.2200651E+03  0.7546771E-02  0.1133878E+00
          1   -1    0    0  502    0  0.00000000000E+00  0.00000000000E+00  0.32873362723E+03  0.32873362723E+03  0.00000000000E+00 0. -1.
         -1   -1    0    0    0  501 -0.00000000000E+00 -0.00000000000E+00 -0.55871834838E+03  0.55871834838E+03  0.00000000000E+00 0.  1.
         23    2    1    2    0    0 -0.15472409090E+02  0.21964521807E+03 -0.27819895007E+03  0.36637543748E+03  0.91394136029E+02 0.  0.
         23    2    1    2    0    0  0.70163690437E+02 -0.17335254690E+03 -0.15735283480E+03  0.26073647452E+03  0.90827008948E+02 0.  0.
        -11    1    3    3    0    0  0.37771046080E+02  0.74342304611E+02 -0.89258815338E+02  0.12214976992E+03  0.00000000000E+00 0. -1.
         11    1    3    3    0    0 -0.53243455170E+02  0.14530291346E+03 -0.18894013474E+03  0.24422566756E+03  0.00000000000E+00 0.  1.
        -11    1    4    4    0    0  0.58111242782E+02 -0.15736076656E+03 -0.16854538094E+03  0.23779586377E+03  0.00000000000E+00 0. -1.
         11    1    4    4    0    0  0.12052447655E+02 -0.15991780337E+02  0.11192546134E+02  0.22940610754E+02  0.00000000000E+00 0.  1.
         21    1    1    2  502  503 -0.49053929496E+02 -0.25917747864E+02  0.22493069887E+03  0.23167183029E+03  0.00000000000E+00 0. -1.
         21    1    1    2  503  501 -0.56373518515E+01 -0.20374923310E+02 -0.19363635144E+02  0.28668233321E+02  0.00000000000E+00 0. -1.
<scales pt_clust_5="13000.00000" pt_clust_6="13000.00000" pt_clust_7="13000.00000" pt_clust_8="13000.00000" pt_clust_9="55.57139" pt_clust_10="21.14042"></scales>
<clustering>
<clus scale="   21.140">  2 10  1 -1</clus>
<clus scale="   55.571">  1  9  2 -1</clus>
<clus scale="   90.827">  7  8 -1 -1</clus>
<clus scale="   91.394">  5  6 -1 -1</clus>
<clus scale="  219.830">  1  7  2 -1</clus>
<clus scale="   55.571">  1  5  2 -1</clus>
</clustering>
</event>
<event>
10    2  0.1898324E-006  0.1235461E+03  0.7546771E-02  0.1237511E+00
          2   -1    0    0  502    0  0.00000000000E+00  0.00000000000E+00  0.91674822689E+03  0.91674822689E+03  0.00000000000E+00 0. -1.
         -2   -1    0    0    0  501 -0.00000000000E+00 -0.00000000000E+00 -0.54031805103E+02  0.54031805103E+02  0.00000000000E+00 0.  1.
         23    2    1    2    0    0 -0.15081607335E+03  0.52775816154E+02  0.23205711782E+03  0.29579454483E+03  0.90072926389E+02 0.  0.
         23    2    1    2    0    0  0.40477657311E+02 -0.38557849222E+02  0.35528163585E+03  0.37088744356E+03  0.90594185992E+02 0.  0.
        -11    1    4    4    0    0  0.57955626362E+02  0.51852096037E+01  0.22309959802E+03  0.23056272826E+03  0.00000000000E+00 0. -1.
         11    1    4    4    0    0 -0.17477969052E+02 -0.43743058826E+02  0.13218203783E+03  0.14032471530E+03  0.00000000000E+00 0.  1.
        -13    1    3    3    0    0 -0.60218843517E+02 -0.48949256418E+01  0.14655349388E+03  0.15851875592E+03  0.00000000000E+00 0. -1.
         13    1    3    3    0    0 -0.90597229830E+02  0.57670741796E+02  0.85503623942E+02  0.13727578890E+03  0.00000000000E+00 0.  1.
         21    1    1    2  502  503  0.10747293826E+02 -0.20643025947E+02  0.96474391166E+02  0.99241861105E+02  0.00000000000E+00 0.  1.
         21    1    1    2  503  501  0.99591122211E+02  0.64250590147E+01  0.17890327695E+03  0.20485618250E+03  0.00000000000E+00 0. -1.
<scales pt_clust_5="13000.00000" pt_clust_6="13000.00000" pt_clust_7="13000.00000" pt_clust_8="13000.00000" pt_clust_9="23.27314" pt_clust_10="102.12174"></scales>
<clustering>
<clus scale="   23.273">  1  9  2 -1</clus>
<clus scale="   90.073">  7  8 -1 -1</clus>
<clus scale="   90.594">  5  6 -1 -1</clus>
<clus scale="  102.122">  2 10  1 -1</clus>
<clus scale="  123.164">  2  7  1 -1</clus>
<clus scale="   23.273">  1  5  2 -1</clus>
</clustering>
</event>
<event>
10    2  0.1898324E-006  0.9286471E+02  0.7546771E-02  0.1297354E+00
          2   -1    0    0  502    0  0.00000000000E+00  0.00000000000E+00  0.32707841639E+03  0.32707841639E+03  0.00000000000E+00 0. -1.
         -2   -1    0    0    0  501 -0.00000000000E+00 -0.00000000000E+00 -0.12259536167E+03  0.12259536167E+03  0.00000000000E+00 0.  1.
         23    2    1    2    0    0 -0.12901076845E+02  0.22522430476E+02  0.57146060543E+02  0.11041993792E+03  0.90847084689E+02 0.  0.
         23    2    1    2    0    0  0.22059716912E+02  0.39880470029E+02  0.55872444072E+02  0.11422675918E+03  0.88594240819E+02 0.  0.
        -13    1    3    3    0    0  0.39956758885E+01 -0.28181990162E+02 -0.45154943093E+01  0.28819779391E+02  0.00000000000E+00 0.  1.
         13    1    3    3    0    0 -0.16896752734E+02  0.50704420638E+02  0.61661554852E+02  0.81600158529E+02  0.00000000000E+00 0. -1.
        -13    1    4    4    0    0  0.18657633912E+01  0.30243637334E+02  0.77435015806E+02  0.83152512560E+02  0.00000000000E+00 0. -1.
         13    1    4    4    0    0  0.20193953521E+02  0.96368326945E+01 -0.21562571734E+02  0.31074246620E+02  0.00000000000E+00 0.  1.
         21    1    1    2  502  503 -0.25621522574E+02 -0.44100040284E+02  0.15165253950E+03  0.15999927722E+03  0.00000000000E+00 0. -1.
         21    1    1    2  503  501  0.16462882507E+02 -0.18302860221E+02 -0.60187989395E+02  0.65027803746E+02  0.00000000000E+00 0. -1.
<scales pt_clust_5="13000.00000" pt_clust_6="13000.00000" pt_clust_7="13000.00000" pt_clust_8="13000.00000" pt_clust_9="51.55412" pt_clust_10="24.61750"></scales>
<clustering>
<clus scale="   24.617">  2 10  1 -1</clus>
<clus scale="   51.554">  1  9  2 -1</clus>
<clus scale="   88.594">  7  8 -1 -1</clus>
<clus scale="   90.662">  1  7  2 -1</clus>
<clus scale="   90.847">  5  6 -1 -1</clus>
<clus scale="   51.554">  1  5  2 -1</clus>
</clustering>
</event>
<event>
10    2  0.1898324E-006  0.1059017E+03  0.7546771E-02  0.1268558E+00
          1   -1    0    0  502    0  0.00000000000E+00  0.00000000000E+00  0.28310105831E+03  0.28310105831E+03  0.00000000000E+00 0. -1.
         -1   -1    0    0    0  501 -0.00000000000E+00 -0.00000000000E+00 -0.10752510534E+03  0.10752510534E+03  0.00000000000E+00 0.  1.
         23    2    1    2    0    0 -0.30596678968E+01  0.29807797349E+02  0.52966916408E+01  0.95816687328E+02  0.90856569811E+02 0.  0.
         23    2    1    2    0    0 -0.11215569563E+02 -0.96337652224E+02  0.35583671031E+02  0.13725594126E+03  0.90367380904E+02 0.  0.
        -11    1    3    3    0    0 -0.13009803436E+02 -0.25509202056E+02 -0.19230510960E+02  0.34493288141E+02  0.00000000000E+00 0.  1.
         11    1    3    3    0    0  0.99501355391E+01  0.55316999405E+02  0.24527202601E+02  0.61323399187E+02  0.00000000000E+00 0. -1.
        -11    1    4    4    0    0 -0.50157945330E+02 -0.48283102529E+02  0.27591739355E+02  0.74889128384E+02  0.00000000000E+00 0.  1.
         11    1    4    4    0    0  0.38942375767E+02 -0.48054549695E+02  0.79919316765E+01  0.62366812879E+02  0.00000000000E+00 0. -1.
         21    1    1    2  502  503 -0.16565509599E+02  0.21208916766E+02  0.44847695047E+02  0.52302485693E+02  0.00000000000E+00 0. -1.
         21    1    1    2  503  501  0.30840747058E+02  0.45320938110E+02  0.89847895251E+02  0.10525104936E+03  0.00000000000E+00 0. -1.
<scales pt_clust_5="13000.00000" pt_clust_6="13000.00000" pt_clust_7="13000.00000" pt_clust_8="13000.00000" pt_clust_9="26.91160" pt_clust_10="59.20346"></scales>
<clustering>
<clus scale="   26.912">  1  9  2 -1</clus>
<clus scale="   59.203">  1 10  2 -1</clus>
<clus scale="   90.367">  7  8 -1 -1</clus>
<clus scale="   90.857">  5  6 -1 -1</clus>
<clus scale="  105.482">  1  7  2 -1</clus>
<clus scale="   26.912">  1  5  2 -1</clus>
</clustering>
</event>
<event>
10    2  0.1898324E-006  0.3213014E+03  0.7546771E-02  0.1075131E+00
         -1   -1    0    0    0  501 -0.00000000000E+00  0.00000000000E+00  0.87848860532E+02  0.87848860532E+02  0.00000000000E+00 0.  1.
          1   -1    0    0  502    0  0.00000000000E+00 -0.00000000000E+00 -0.16312722684E+04  0.16312722684E+04  0.00000000000E+00 0. -1.
         23    2    1    2    0    0  0.14572165575E+03 -0.31657835229E+03 -0.59058460715E+03  0.69170446753E+03  0.90599327283E+02 0.  0.
         23    2    1    2    0    0 -0.12859228165E+03  0.23277831636E+03 -0.65717820566E+03  0.71502339387E+03  0.93024407089E+02 0.  0.
        -11    1    4    4    0    0 -0.13128734933E+03  0.17924663512E+03 -0.46248399473E+03  0.51308592817E+03  0.00000000000E+00 0. -1.
         11    1    4    4    0    0  0.26950676757E+01  0.53531681240E+02 -0.19469421093E+03  0.20193746570E+03  0.00000000000E+00 0.  1.
        -11    1    3    3    0    0  0.74852074082E+02 -0.20673739879E+03 -0.44293376497E+03  0.49450329140E+03  0.00000000000E+00 0.  1.
         11    1    3    3    0    0  0.70869581665E+02 -0.10984095349E+03 -0.14765084218E+03  0.19720117613E+03  0.00000000000E+00 0. -1.
         21    1    1    2  502  503 -0.33949737785E+02  0.60031357496E+02 -0.23809583397E+03  0.24788298597E+03  0.00000000000E+00 0. -1.
         21    1    1    2  503  501  0.16820363687E+02  0.23768678426E+02 -0.57564761049E+02  0.64510281532E+02  0.00000000000E+00 0.  1.
<scales pt_clust_5="13000.00000" pt_clust_6="13000.00000" pt_clust_7="13000.00000" pt_clust_8="13000.00000" pt_clust_9="69.70273" pt_clust_10="29.11829"></scales>
<clustering>
<clus scale="   29.118">  1 10  2 -1</clus>
<clus scale="   69.703">  2  9  1 -1</clus>
<clus scale="   90.599">  7  8 -1 -1</clus>
<clus scale="   93.024">  5  6 -1 -1</clus>
<clus scale="  320.608">  1  7  2 -1</clus>
<clus scale="   69.703">  2  5  1 -1</clus>
</clustering>
</event>
<event>
10    2  0.1898324E-006  0.1056850E+03  0.7546771E-02  0.1271362E+00
          2   -1    0    0  502    0  0.00000000000E+00  0.00000000000E+00  0.39371033388E+03  0.39371033388E+03  0.00000000000E+00 0. -1.
         -2   -1    0    0    0  501 -0.00000000000E+00 -0.00000000000E+00 -0.71704791466E+02  0.71704791466E+02  0.00000000000E+00 0.  1.
         23    2    1    2    0    0 -0.61853577051E+02  0.12848706777E+02  0.42220821110E+01  0.10474190219E+03  0.83439114549E+02 0.  0.
         23    2    1    2    0    0  0.33300667352E+02 -0.54363328476E+01  0.15817725851E+03  0.18488836800E+03  0.89583343040E+02 0.  0.
        -11    1    4    4    0    0  0.82575043577E+01 -0.44895070912E+02  0.10244098689E+03  0.11215127982E+03  0.00000000000E+00 0. -1.
         11    1    4    4    0    0  0.25043162994E+02  0.39458738064E+02  0.55736271618E+02  0.72737088176E+02  0.00000000000E+00 0.  1.
        -11    1    3    3    0    0  0.19574992827E+02 -0.66115998712E+01 -0.21785240410E+01  0.20775937140E+02  0.00000000000E+00 0. -1.
         11    1    3    3    0    0 -0.81428569878E+02  0.19460306648E+02  0.64006061520E+01  0.83965965048E+02  0.00000000000E+00 0.  1.
         21    1    1    2  502  503  0.21829137972E+01  0.22553078748E+02  0.10900455625E+03  0.11133462964E+03  0.00000000000E+00 0.  1.
         21    1    1    2  503  501  0.26369995902E+02 -0.29965452678E+02  0.50601645546E+02  0.64450225523E+02  0.00000000000E+00 0. -1.
<scales pt_clust_5="13000.00000" pt_clust_6="13000.00000" pt_clust_7="13000.00000" pt_clust_8="13000.00000" pt_clust_9="22.65847" pt_clust_10="36.92657"></scales>
<clustering>
<clus scale="   22.658">  1  9  2 -1</clus>
<clus scale="   36.927">  1 10  2 -1</clus>
<clus scale="   83.439">  7  8 -1 -1</clus>
<clus scale="   89.583">  5  6 -1 -1</clus>
<clus scale="  100.530">  2  7  1 -1</clus>
<clus scale="   22.658">  1  5  2 -1</clus>
</clustering>
</event>
<event>
10    2  0.1898324E-006  0.1344681E+03  0.7546771E-02  0.1222461E+00
          2   -1    0    0  502    0  0.00000000000E+00  0.00000000000E+00  0.78189416631E+03  0.78189416631E+03  0.00000000000E+00 0. -1.
         -2   -1    0    0    0  501 -0.00000000000E+00 -0.00000000000E+00 -0.92772675168E+02  0.92772675168E+02  0.00000000000E+00 0.  1.
         23    2    1    2    0    0 -0.75584804190E+02 -0.15065241363E+02  0.23231065263E+02  0.12240008692E+03  0.92206695872E+02 0.  0.
         23    2    1    2    0    0  0.11570964473E+03  0.47491499519E+02  0.41179642222E+03  0.43889659183E+03  0.86079966080E+02 0.  0.
        -13    1    3    3    0    0 -0.89415360115E+02 -0.34757531530E+02  0.15882147516E+02  0.97239062276E+02  0.00000000000E+00 0.  1.
         13    1    3    3    0    0  0.13830555925E+02  0.19692290167E+02  0.73489177474E+01  0.25161024647E+02  0.00000000000E+00 0. -1.
        -13    1    4    4    0    0  0.54217065637E+02 -0.14411572032E+02  0.95233016106E+02  0.11052832656E+03  0.00000000000E+00 0.  1.
         13    1    4    4    0    0  0.61492579089E+02  0.61903071551E+02  0.31656340611E+03  0.32836826527E+03  0.00000000000E+00 0. -1.
         21    1    1    2  502  503 -0.17874469678E+02 -0.36189078324E+02  0.27775557382E+03  0.28067294997E+03  0.00000000000E+00 0.  1.
         21    1    1    2  503  501 -0.22250370859E+02  0.37628201682E+01 -0.23661570164E+02  0.32697212750E+02  0.00000000000E+00 0.  1.
<scales pt_clust_5="13000.00000" pt_clust_6="13000.00000" pt_clust_7="13000.00000" pt_clust_8="13000.00000" pt_clust_9="40.51195" pt_clust_10="22.56630"></scales>
<clustering>
<clus scale="   22.566">  2 10  1 -1</clus>
<clus scale="   40.512">  1  9  2 -1</clus>
<clus scale="   86.080">  7  8 -1 -1</clus>
<clus scale="   92.207">  5  6 -1 -1</clus>
<clus scale="  130.343">  1  7  2 -1</clus>
<clus scale="   40.512">  1  5  2 -1</clus>
</clustering>
</event>
<event>
10    2  0.2627382E-006  0.1023020E+03  0.7546771E-02  0.1276874E+00
          1   -1    0    0  502    0  0.00000000000E+00  0.00000000000E+00  0.21560919905E+03  0.21560919905E+03  0.00000000000E+00 0. -1.
         -1   -1    0    0    0  501 -0.00000000000E+00 -0.00000000000E+00 -0.24828223655E+03  0.24828223655E+03  0.00000000000E+00 0.  1.
         23    2    1    2    0    0  0.37036633051E+02 -0.25997689910E+02 -0.17224864462E+03  0.20137211863E+03  0.93986927396E+02 0.  0.
         23    2    1    2    0    0  0.14807407649E+02  0.62052925247E+02  0.14749832329E+03  0.18475277097E+03  0.91148264675E+02 0.  0.
        -13    1    4    4    0    0 -0.35597594436E+02  0.13203594590E+02  0.32268584474E+02  0.49827554463E+02  0.00000000000E+00 0.  1.
         13    1    4    4    0    0  0.50405002086E+02  0.48849330657E+02  0.11522973882E+03  0.13492521650E+03  0.00000000000E+00 0. -1.
        -13    1    3    3    0    0  0.40964111004E+02 -0.47357771236E+02 -0.58912426254E+02  0.85973780037E+02  0.00000000000E+00 0. -1.
         13    1    3    3    0    0 -0.39274779521E+01  0.21360081326E+02 -0.11333621837E+03  0.11539833860E+03  0.00000000000E+00 0.  1.
         21    1    1    2  502  503 -0.15571277142E+02 -0.23278134516E+02  0.16215289264E+02  0.32361579447E+02  0.00000000000E+00 0. -1.
         21    1    1    2  503  501 -0.36272763559E+02 -0.12777100821E+02 -0.24138005436E+02  0.45404966556E+02  0.00000000000E+00 0. -1.
<scales pt_clust_5="13000.00000" pt_clust_6="13000.00000" pt_clust_7="13000.00000" pt_clust_8="13000.00000" pt_clust_9="28.00600" pt_clust_10="39.71443"></scales>
<clustering>
<clus scale="   28.006">  1  9  2 -1</clus>
<clus scale="   39.714">  2 10  1 -1</clus>
<clus scale="   91.148">  5  6 -1 -1</clus>
<clus scale="   93.987">  7  8 -1 -1</clus>
<clus scale="   99.700">  1  5  2 -1</clus>
<clus scale="   28.006">  1  5  2 -1</clus>
</clustering>
</event>
<event>
10    2  0.1898324E-006  0.1224272E+03  0.7546771E-02  0.1239307E+00
         -1   -1    0    0    0  501 -0.00000000000E+00  0.00000000000E+00  0.86183580681E+02  0.86183580681E+02  0.00000000000E+00 0.  1.
          1   -1    0    0  502    0  0.00000000000E+00 -0.00000000000E+00 -0.36847441372E+03  0.36847441372E+03  0.00000000000E+00 0. -1.
         23    2    1    2    0    0  0.52651213002E+02 -0.35628394858E+01 -0.39542831644E+02  0.11264788626E+03  0.91329440425E+02 0.  0.
         23    2    1    2    0    0 -0.10652372744E+03  0.38516335714E+02 -0.12935736617E+03  0.19494343722E+03  0.91862957199E+02 0.  0.
        -11    1    3    3    0    0  0.65447941757E+01  0.19812262175E+02  0.23299206782E+02  0.31276398450E+02  0.00000000000E+00 0.  1.
         11    1    3    3    0    0  0.46106418827E+02 -0.23375101661E+02 -0.62842038426E+02  0.81371487809E+02  0.00000000000E+00 0. -1.
        -13    1    4    4    0    0 -0.87171694803E+02  0.67389928866E+02 -0.88673272926E+02  0.14143286824E+03  0.00000000000E+00 0.  1.
         13    1    4    4    0    0 -0.19352032642E+02 -0.28873593152E+02 -0.40684093247E+02  0.53510568977E+02  0.00000000000E+00 0. -1.
         21    1    1    2  502  503  0.27549987362E+02 -0.40339302002E+01 -0.10076703053E+03  0.10454314343E+03  0.00000000000E+00 0. -1.
         21    1    1    2  503  501  0.26322527081E+02 -0.30919566028E+02 -0.12623604693E+02  0.42523527496E+02  0.00000000000E+00 0. -1.
<scales pt_clust_5="13000.00000" pt_clust_6="13000.00000" pt_clust_7="13000.00000" pt_clust_8="13000.00000" pt_clust_9="27.84375" pt_clust_10="42.82010"></scales>
<clustering>
<clus scale="   27.844">  2  9  1 -1</clus>
<clus scale="   42.820">  1 10  2 -1</clus>
<clus scale="   91.329">  5  6 -1 -1</clus>
<clus scale="   91.863">  7  8 -1 -1</clus>
<clus scale="  122.027">  1  5  2 -1</clus>
<clus scale="   27.844">  2  5  1 -1</clus>
</clustering>
</event>
<event>
10    2  0.1898324E-006  0.1078949E+03  0.7546771E-02  0.1264791E+00
          1   -1    0    0  502    0  0.00000000000E+00  0.00000000000E+00  0.15678334811E+03  0.15678334811E+03  0.00000000000E+00 0. -1.
         -1   -1    0    0    0  501 -0.00000000000E+00 -0.00000000000E+00 -0.17021352677E+03  0.17021352677E+03  0.00000000000E+00 0.  1.
         23    2    1    2    0    0  0.15550757930E+02  0.40485339198E+02 -0.78745947123E+02  0.12868342660E+03  0.92073944907E+02 0.  0.
         23    2    1    2    0    0 -0.55342573552E+02 -0.58891494603E+02  0.39954667746E+02  0.12838236326E+03  0.91403758874E+02 0.  0.
        -11    1    4    4    0    0 -0.64523997129E+02 -0.38446968220E+02  0.61664136039E+02  0.97180148406E+02  0.00000000000E+00 0.  1.
         11    1    4    4    0    0  0.91814235765E+01 -0.20444526383E+02 -0.21709468293E+02  0.31202214849E+02  0.00000000000E+00 0. -1.
        -13    1    3    3    0    0  0.11377366567E+02 -0.24470959442E+02 -0.61729089195E+00  0.26993580238E+02  0.00000000000E+00 0. -1.
         13    1    3    3    0    0  0.41733913634E+01  0.64956298640E+02 -0.78128656231E+02  0.10168984636E+03  0.00000000000E+00 0.  1.
         21    1    1    2  502  503  0.16000289738E+02  0.25510258924E+02  0.32290591246E+02  0.44152744706E+02  0.00000000000E+00 0. -1.
         21    1    1    2  503  501  0.23791525885E+02 -0.71041035190E+01 -0.69294905270E+01  0.25778340321E+02  0.00000000000E+00 0. -1.
<scales pt_clust_5="13000.00000" pt_clust_6="13000.00000" pt_clust_7="13000.00000" pt_clust_8="13000.00000" pt_clust_9="30.38215" pt_clust_10="24.82952"></scales>
<clustering>
<clus scale="   24.830">  2 10  1 -1</clus>
<clus scale="   30.382">  1  9  2 -1</clus>
<clus scale="   91.404">  5  6 -1 -1</clus>
<clus scale="   92.074">  7  8 -1 -1</clus>
<clus scale="  107.324">  1  5  2 -1</clus>
<clus scale="   30.382">  1  5  2 -1</clus>
</clustering>
</event>
<event>
10    2  0.1898324E-006  0.1000454E+03  0.7546771E-02  0.1283882E+00
         -2   -1    0    0    0  501 -0.00000000000E+00  0.00000000000E+00  0.11118076233E+03  0.11118076233E+03  0.00000000000E+00 0.  1.
          2   -1    0    0  502    0  0.00000000000E+00 -0.00000000000E+00 -0.49900515262E+03  0.49900515262E+03  0.00000000000E+00 0. -1.
         23    2    1    2    0    0  0.31418445398E+02 -0.65682282336E+02 -0.42815471743E+02  0.12415854847E+03  0.90999448431E+02 0.  0.
         23    2    1    2    0    0 -0.25583175019E+02  0.15655984722E+00 -0.60333370809E+02  0.10616395697E+03  0.83523330694E+02 0.  0.
        -11    1    4    4    0    0 -0.42752463381E+02 -0.29018697860E+02 -0.25607938478E+02  0.57668227506E+02  0.00000000000E+00 0.  1.
         11    1    4    4    0    0  0.17169288362E+02  0.29175257707E+02 -0.34725432332E+02  0.48495729459E+02  0.00000000000E+00 0. -1.
        -13    1    3    3    0    0 -0.27559517377E+02 -0.18126260877E+02 -0.34838438417E+02  0.47977131248E+02  0.00000000000E+00 0. -1.
         13    1    3    3    0    0  0.58977962774E+02 -0.47556021459E+02 -0.79770333256E+01  0.76181417227E+02  0.00000000000E+00 0.  1.
         21    1    1    2  502  503  0.14495224666E+02  0.50362902558E+02 -0.32664688751E+03  0.33082430777E+03  0.00000000000E+00 0. -1.
         21    1    1    2  503  501 -0.20330495045E+02  0.15162819931E+02  0.41971339778E+02  0.49039101743E+02  0.00000000000E+00 0.  1.
<scales pt_clust_5="13000.00000" pt_clust_6="13000.00000" pt_clust_7="13000.00000" pt_clust_8="13000.00000" pt_clust_9="52.69737" pt_clust_10="25.36218"></scales>
<clustering>
<clus scale="   25.362">  1 10  2 -1</clus>
<clus scale="   52.697">  2  9  1 -1</clus>
<clus scale="   83.523">  5  6 -1 -1</clus>
<clus scale="   90.999">  7  8 -1 -1</clus>
<clus scale="   93.297">  2  5  1 -1</clus>
<clus scale="   52.697">  2  5  1 -1</clus>
</clustering>
</event>
<event>
10    2  0.1898324E-006  0.1331904E+03  0.7546771E-02  0.1223845E+00
         -2   -1    0    0    0  501 -0.00000000000E+00  0.00000000000E+00  0.18714896314E+03  0.18714896314E+03  0.00000000000E+00 0.  1.
          2   -1    0    0  502    0  0.00000000000E+00 -0.00000000000E+00 -0.21829661870E+03  0.21829661870E+03  0.00000000000E+00 0. -1.
         23    2    1    2    0    0 -0.72891285074E+02 -0.68609602587E+01  0.56361344182E+02  0.12961040417E+03  0.90895783927E+02 0.  0.
         23    2    1    2    0    0  0.92292899806E+02  0.77194696277E+02 -0.38050558841E+02  0.15794365327E+03  0.94980798548E+02 0.  0.
        -11    1    3    3    0    0 -0.68669994965E+02  0.33076529011E+02  0.32206237129E+02  0.82745795603E+02  0.00000000000E+00 0.  1.
         11    1    3    3    0    0 -0.42212901086E+01 -0.39937489270E+02  0.24155107053E+02  0.46864608567E+02  0.00000000000E+00 0. -1.
        -11    1    4    4    0    0  0.17189190683E+02 -0.13424201849E+02 -0.33731658478E+02  0.40168423610E+02  0.00000000000E+00 0. -1.
         11    1    4    4    0    0  0.75103709123E+02  0.90618898126E+02 -0.43189003633E+01  0.11777522966E+03  0.00000000000E+00 0.  1.
         21    1    1    2  502  503  0.82084894481E+01 -0.55092484674E+02 -0.62540061095E+02  0.83748554664E+02  0.00000000000E+00 0. -1.
         21    1    1    2  503  501 -0.27610104180E+02 -0.15241251343E+02  0.13081620190E+02  0.34142969732E+02  0.00000000000E+00 0.  1.
<scales pt_clust_5="13000.00000" pt_clust_6="13000.00000" pt_clust_7="13000.00000" pt_clust_8="13000.00000" pt_clust_9="56.44684" pt_clust_10="31.53750"></scales>
<clustering>
<clus scale="   31.537">  1 10  2 -1</clus>
<clus scale="   56.447">  2  9  1 -1</clus>
<clus scale="   90.896">  5  6 -1 -1</clus>
<clus scale="   94.981">  7  8 -1 -1</clus>
<clus scale="  130.309">  1  5  2 -1</clus>
<clus scale="   56.447">  2  5  1 -1</clus>
</clustering>
</event>
<event>
10    2  0.1898324E-006  0.1562924E+03  0.7546771E-02  0.1214300E+00
         -2   -1    0    0    0  501 -0.00000000000E+00  0.00000000000E+00  0.20734615608E+03  0.20734615608E+03  0.00000000000E+00 0.  1.
          2   -1    0    0  502    0  0.00000000000E+00 -0.00000000000E+00 -0.44992230709E+03  0.44992230709E+03  0.00000000000E+00 0. -1.
         23    2    1    2    0    0  0.18045897338E+02 -0.57190348446E+01 -0.27069243884E+02  0.10192967232E+03  0.96429001677E+02 0.  0.
         23    2    1    2    0    0  0.92163494698E+02 -0.64375881919E+02 -0.27717978508E+03  0.31216471444E+03  0.89329792117E+02 0.  0.
        -11    1    3    3    0    0  0.51698691040E+02 -0.21390924189E+02 -0.32042235171E+02  0.64475042673E+02  0.00000000000E+00 0. -1.
         11    1    3    3    0    0 -0.33652793702E+02  0.15671889345E+02  0.49729912873E+01  0.37454629646E+02  0.00000000000E+00 0.  1.
        -13    1    4    4    0    0  0.41243542569E+01  0.20678201348E+02 -0.44793798904E+02  0.49508410692E+02  0.00000000000E+00 0.  1.
         13    1    4    4    0    0  0.88039140441E+02 -0.85054083267E+02 -0.23238598617E+03  0.26265630375E+03  0.00000000000E+00 0. -1.
         21    1    1    2  502  503 -0.56922839212E+01 -0.33484673272E+02 -0.48599647591E+02  0.59292083673E+02  0.00000000000E+00 0. -1.
         21    1    1    2  503  501 -0.10451710811E+03  0.10357959004E+03  0.11027252554E+03  0.18388199273E+03  0.00000000000E+00 0.  1.
<scales pt_clust_5="13000.00000" pt_clust_6="13000.00000" pt_clust_7="13000.00000" pt_clust_8="13000.00000" pt_clust_9="33.96506" pt_clust_10="128.24784"></scales>
<clustering>
<clus scale="   33.965">  2  9  1 -1</clus>
<clus scale="   89.330">  7  8 -1 -1</clus>
<clus scale="   96.429">  5  6 -1 -1</clus>
<clus scale="   98.572">  1  5  2 -1</clus>
<clus scale="  128.248">  1 10  2 -1</clus>
<clus scale="   33.965">  2  5  1 -1</clus>
</clustering>
</event>
<event>
10    2  0.1898324E-006  0.4732422E+03  0.7546771E-02  0.1021036E+00
          1   -1    0    0  502    0  0.00000000000E+00  0.00000000000E+00  0.15270862611E+04  0.15270862611E+04  0.00000000000E+00 0. -1.
         -1   -1    0    0    0  501 -0.00000000000E+00 -0.00000000000E+00 -0.28702740262E+03  0.28702740262E+03  0.00000000000E+00 0.  1.
         23    2    1    2    0    0  0.30341175886E+03  0.32875277996E+03  0.21274834027E+03  0.50393186795E+03  0.92457479468E+02 0.  0.
         23    2    1    2    0    0 -0.26901879155E+03 -0.32431994362E+03  0.94267124216E+03  0.10365181829E+04  0.90478376508E+02 0.  0.
        -11    1    4    4    0    0 -0.63485994260E+01 -0.41881585326E+02  0.13473886442E+03  0.14124069346E+03  0.00000000000E+00 0.  1.
         11    1    4    4    0    0 -0.26267019212E+03 -0.28243835829E+03  0.80793237774E+03  0.89527748942E+03  0.00000000000E+00 0. -1.
        -13    1    3    3    0    0  0.36464973950E+02  0.85735107615E+02  0.22386620514E+02  0.95819433212E+02  0.00000000000E+00 0. -1.
         13    1    3    3    0    0  0.26694678491E+03  0.24301767234E+03  0.19036171976E+03  0.40811243474E+03  0.00000000000E+00 0.  1.
         21    1    1    2  502  503 -0.65424931420E+02 -0.58838993568E+02  0.15575938512E+03  0.17889503869E+03  0.00000000000E+00 0.  1.
         21    1    1    2  503  501  0.31031964112E+02  0.54406157231E+02 -0.71120109065E+02  0.94768574194E+02  0.00000000000E+00 0.  1.
<scales pt_clust_5="13000.00000" pt_clust_6="13000.00000" pt_clust_7="13000.00000" pt_clust_8="13000.00000" pt_clust_9="84.62856" pt_clust_10="62.63396"></scales>
<clustering>
<clus scale="   62.634">  2 10  1 -1</clus>
<clus scale="   84.629">  1  9  2 -1</clus>
<clus scale="   90.478">  5  6 -1 -1</clus>
<clus scale="   92.457">  7  8 -1 -1</clus>
<clus scale="  472.860">  1  5  2 -1</clus>
<clus scale="   84.629">  1  5  2 -1</clus>
</clustering>
</event>
<event>
10    2  0.1898324E-006  0.3154247E+03  0.7546771E-02  0.1078101E+00
         -2   -1    0    0    0  501 -0.00000000000E+00  0.00000000000E+00  0.27501678364E+03  0.27501678364E+03  0.00000000000E+00 0.  1.
          2   -1    0    0  502    0  0.00000000000E+00 -0.00000000000E+00 -0.60027852623E+03  0.60027852623E+03  0.00000000000E+00 0. -1.
         23    2    1    2    0    0  0.26232719171E+03 -0.69350621515E+02 -0.54331803351E+01  0.28915640471E+03  0.99783980299E+02 0.  0.
         23    2    1    2    0    0 -0.31291413107E+03  0.91950763254E+02 -0.28521058989E+03  0.44264029310E+03  0.90637476803E+02 0.  0.
        -11    1    3    3    0    0  0.18811840612E+03 -0.54142020086E+02  0.41416787253E+02  0.20008808891E+03  0.00000000000E+00 0.  1.
         11    1    3    3    0    0  0.74208785594E+02 -0.15208601429E+02 -0.46849967588E+02  0.89068315802E+02  0.00000000000E+00 0. -1.
        -13    1    4    4    0    0 -0.14371338151E+03  0.65741888377E+02 -0.85858887171E+02  0.17985349710E+03  0.00000000000E+00 0.  1.
         13    1    4    4    0    0 -0.16920074956E+03  0.26208874877E+02 -0.19935170272E+03  0.26278679600E+03  0.00000000000E+00 0. -1.
         21    1    1    2  502  503  0.26654932530E+02  0.76525114241E+01 -0.79570415218E+02  0.84264448834E+02  0.00000000000E+00 0.  1.
         21    1    1    2  503  501  0.23932006831E+02 -0.30252653163E+02  0.44952442852E+02  0.59234163223E+02  0.00000000000E+00 0.  1.
<scales pt_clust_5="13000.00000" pt_clust_6="13000.00000" pt_clust_7="13000.00000" pt_clust_8="13000.00000" pt_clust_9="27.73169" pt_clust_10="38.72088"></scales>
<clustering>
<clus scale="   27.732">  2  9  1 -1</clus>
<clus scale="   38.721">  1 10  2 -1</clus>
<clus scale="   90.637">  7  8 -1 -1</clus>
<clus scale="   99.784">  5  6 -1 -1</clus>
<clus scale="  312.652">  2  7  1 -1</clus>
<clus scale="   27.732">  2  5  1 -1</clus>
</clustering>
</event>
<event>
10    2  0.1898324E-006  0.1051439E+03  0.7546771E-02  0.1271449E+00
          1   -1    0    0  502    0  0.00000000000E+00  0.00000000000E+00  0.26270087259E+03  0.26270087259E+03  0.00000000000E+00 0. -1.
         -1   -1    0    0    0  501 -0.00000000000E+00 -0.00000000000E+00 -0.19371895529E+03  0.19371895529E+03  0.00000000000E+00 0.  1.
         23    2    1    2    0    0  0.63150797922E+02 -0.39269720667E+02 -0.82525305869E+02  0.14214425565E+03  0.88681616283E+02 0.  0.
         23    2    1    2    0    0 -0.30943162725E+02  0.56129540870E+01  0.14185617048E+03  0.17217569349E+03  0.92370513425E+02 0.  0.
        -11    1    4    4    0    0 -0.36283604685E+02  0.38668914630E+02  0.44507985082E+02  0.69229658844E+02  0.00000000000E+00 0.  1.
         11    1    4    4    0    0  0.53404419598E+01 -0.33055960543E+02  0.97348185402E+02  0.10294603464E+03  0.00000000000E+00 0. -1.
        -13    1    3    3    0    0 -0.19813443150E+02 -0.12096137888E+02 -0.37017253219E+02  0.43694005506E+02  0.00000000000E+00 0.  1.
         13    1    3    3    0    0  0.82964241073E+02 -0.27173582778E+02 -0.45508052650E+02  0.98450250145E+02  0.00000000000E+00 0. -1.
         21    1    1    2  502  503 -0.93531655196E+01  0.24197712387E+02  0.71193503522E+02  0.75772857501E+02  0.00000000000E+00 0.  1.
         21    1    1    2  503  501 -0.22854469678E+02  0.94590541922E+01 -0.61542450839E+02  0.66327021234E+02  0.00000000000E+00 0.  1.
<scales pt_clust_5="13000.00000" pt_clust_6="13000.00000" pt_clust_7="13000.00000" pt_clust_8="13000.00000" pt_clust_9="26.24538" pt_clust_10="24.73460"></scales>
<clustering>
<clus scale="   24.735">  2 10  1 -1</clus>
<clus scale="   26.245">  1  9  2 -1</clus>
<clus scale="   88.682">  7  8 -1 -1</clus>
<clus scale="   92.371">  5  6 -1 -1</clus>
<clus scale="  101.918">  2  7  1 -1</clus>
<clus scale="   26.245">  1  5  2 -1</clus>
</clustering>
</event>
<event>
10    2  0.1898324E-006  0.1125944E+03  0.7546771E-02  0.1258381E+00
          1   -1    0    0  502    0  0.00000000000E+00  0.00000000000E+00  0.42942258283E+03  0.42942258283E+03  0.00000000000E+00 0. -1.
         -1   -1    0    0    0  501 -0.00000000000E+00 -0.00000000000E+00 -0.58072285049E+02  0.58072285049E+02  0.00000000000E+00 0.  1.
         23    2    1    2    0    0  0.43387742602E+02 -0.14246351213E+02  0.10354936325E+03  0.14701593528E+03  0.93839010360E+02 0.  0.
         23    2    1    2    0    0 -0.50189869700E+02  0.66976178362E+02  0.15695188550E+03  0.19807530371E+03  0.87149871421E+02 0.  0.
        -11    1    3    3    0    0  0.26693046629E+01 -0.37006041131E+02  0.42995970067E+01  0.37350485967E+02  0.00000000000E+00 0.  1.
         11    1    3    3    0    0  0.40718437939E+02  0.22759689918E+02  0.99249766244E+02  0.10966544931E+03  0.00000000000E+00 0. -1.
        -13    1    4    4    0    0 -0.60141814557E+02  0.17321680040E+02  0.12014951832E+03  0.13547319000E+03  0.00000000000E+00 0. -1.
         13    1    4    4    0    0  0.99519448573E+01  0.49654498322E+02  0.36802367178E+02  0.62602113702E+02  0.00000000000E+00 0.  1.
         21    1    1    2  502  503  0.20759372465E+02  0.59039914793E+01  0.59260070372E+02  0.63067936394E+02  0.00000000000E+00 0. -1.
         21    1    1    2  503  501 -0.13957245367E+02 -0.58633818629E+02  0.51588978666E+02  0.79335692504E+02  0.00000000000E+00 0.  1.
<scales pt_clust_5="13000.00000" pt_clust_6="13000.00000" pt_clust_7="13000.00000" pt_clust_8="13000.00000" pt_clust_9="21.58260" pt_clust_10="58.49243"></scales>
<clustering>
<clus scale="   21.583">  1  9  2 -1</clus>
<clus scale="   58.492">  2 10  1 -1</clus>
<clus scale="   87.150">  7  8 -1 -1</clus>
<clus scale="   93.839">  5  6 -1 -1</clus>
<clus scale="  107.083">  1  7  2 -1</clus>
<clus scale="   21.583">  1  5  2 -1</clus>
</clustering>
</event>
<event>
10    2  0.1898324E-006  0.2237382E+03  0.7546771E-02  0.1165357E+00
          1   -1    0    0  502    0  0.00000000000E+00  0.00000000000E+00  0.51520555468E+03  0.51520555468E+03  0.00000000000E+00 0. -1.
         -1   -1    0    0    0  501 -0.00000000000E+00 -0.00000000000E+00 -0.21667679278E+03  0.21667679278E+03  0.00000000000E+00 0.  1.
         23    2    1    2    0    0 -0.40227353729E+02  0.18284822558E+03  0.83520162352E+02  0.22449509684E+03  0.91491624756E+02 0.  0.
         23    2    1    2    0    0 -0.17672850588E+02  0.39312116574E+02  0.17795610821E+03  0.20521092894E+03  0.92657308120E+02 0.  0.
        -11    1    3    3    0    0  0.20141024389E+02  0.10169012644E+03  0.21578483154E+02  0.10588755174E+03  0.00000000000E+00 0. -1.
         11    1    3    3    0    0 -0.60368378117E+02  0.81158099141E+02  0.61941679198E+02  0.11860754510E+03  0.00000000000E+00 0.  1.
        -13    1    4    4    0    0 -0.33123125279E+02  0.59198709493E+02  0.16139218687E+03  0.17506874826E+03  0.00000000000E+00 0. -1.
         13    1    4    4    0    0  0.15450274691E+02 -0.19886592919E+02  0.16563921345E+02  0.30142180682E+02  0.00000000000E+00 0.  1.
         21    1    1    2  502  503  0.18128984714E+02 -0.12089538275E+02  0.81020618618E+02  0.83899688102E+02  0.00000000000E+00 0. -1.
         21    1    1    2  503  501  0.39771219602E+02 -0.21007080388E+03 -0.43968127287E+02  0.21827663358E+03  0.00000000000E+00 0.  1.
<scales pt_clust_5="13000.00000" pt_clust_6="13000.00000" pt_clust_7="13000.00000" pt_clust_8="13000.00000" pt_clust_9="21.79030" pt_clust_10="204.17650"></scales>
<clustering>
<clus scale="   21.790">  1  9  2 -1</clus>
<clus scale="   91.492">  5  6 -1 -1</clus>
<clus scale="   92.657">  7  8 -1 -1</clus>
<clus scale="   99.155">  1  7  2 -1</clus>
<clus scale="  204.177">  2 10  1 -1</clus>
<clus scale="   21.790">  1  5  2 -1</clus>
</clustering>
</event>
<event>
10    2  0.1898324E-006  0.1569103E+03  0.7546771E-02  0.1193272E+00
         -1   -1    0    0    0  501 -0.00000000000E+00  0.00000000000E+00  0.12289314978E+03  0.12289314978E+03  0.00000000000E+00 0.  1.
          1   -1    0    0  502    0  0.00000000000E+00 -0.00000000000E+00 -0.49718048415E+03  0.49718048415E+03  0.00000000000E+00 0. -1.
         23    2    1    2    0    0  0.17449769704E+03 -0.43596484150E+02 -0.14129513977E+03  0.24427280652E+03  0.85760059367E+02 0.  0.
         23    2    1    2    0    0 -0.86122567033E+02 -0.32830351792E+02 -0.17034758030E+03  0.21440926246E+03  0.91967957277E+02 0.  0.
        -13    1    3    3    0    0  0.22616742438E+02  0.21492508031E+02 -0.86452923122E+01  0.32375701060E+02  0.00000000000E+00 0.  1.
         13    1    3    3    0    0  0.15188095460E+03 -0.65088992182E+02 -0.13264984746E+03  0.21189710546E+03  0.00000000000E+00 0. -1.
        -13    1    4    4    0    0 -0.35135721652E+00 -0.42916837992E+02 -0.68970061826E+02  0.81233292826E+02  0.00000000000E+00 0. -1.
         13    1    4    4    0    0 -0.85771209816E+02  0.10086486200E+02 -0.10137751847E+03  0.13317596964E+03  0.00000000000E+00 0.  1.
         21    1    1    2  502  503 -0.50422356623E+02  0.16036486005E+02 -0.72110666946E+02  0.89440098492E+02  0.00000000000E+00 0. -1.
         21    1    1    2  503  501 -0.37952773383E+02  0.60390349938E+02  0.94660526408E+01  0.71951466459E+02  0.00000000000E+00 0. -1.
<scales pt_clust_5="13000.00000" pt_clust_6="13000.00000" pt_clust_7="13000.00000" pt_clust_8="13000.00000" pt_clust_9="52.91109" pt_clust_10="74.40199"></scales>
<clustering>
<clus scale="   52.911">  2  9  1 -1</clus>
<clus scale="   74.402">  1 10  2 -1</clus>
<clus scale="   85.760">  5  6 -1 -1</clus>
<clus scale="   91.968">  7  8 -1 -1</clus>
<clus scale="  153.354">  1  5  2 -1</clus>
<clus scale="   52.911">  2  5  1 -1</clus>
</clustering>
</event>
<event>
10    2  0.1898324E-006  0.1083687E+03  0.7546771E-02  0.1263718E+00
          2   -1    0    0  502    0  0.00000000000E+00  0.00000000000E+00  0.50324535773E+03  0.50324535773E+03  0.00000000000E+00 0. -1.
         -2   -1    0    0    0  501 -0.00000000000E+00 -0.00000000000E+00 -0.11358552156E+03  0.11358552156E+03  0.00000000000E+00 0.  1.
         23    2    1    2    0    0 -0.20203443191E+02  0.14410692958E+02  0.54881898137E+02  0.10786140388E+03  0.89477441372E+02 0.  0.
         23    2    1    2    0    0 -0.38426351194E+02 -0.10541579429E+03  0.18320308762E+03  0.23262511493E+03  0.89230032118E+02 0.  0.
        -13    1    4    4    0    0  0.12166149793E+02 -0.55702318673E+02  0.13588184696E+03  0.14735888110E+03  0.00000000000E+00 0. -1.
         13    1    4    4    0    0 -0.50592500986E+02 -0.49713475621E+02  0.47321240660E+02  0.85266233833E+02  0.00000000000E+00 0.  1.
        -13    1    3    3    0    0 -0.25921467618E+02  0.44591818263E+02  0.85664064270E+01  0.52285141853E+02  0.00000000000E+00 0.  1.
         13    1    3    3    0    0  0.57180244268E+01 -0.30181125306E+02  0.46315491710E+02  0.55576262023E+02  0.00000000000E+00 0. -1.
         21    1    1    2  502  503  0.54683283738E+02  0.58848186696E+01  0.17865815681E+03  0.18693215241E+03  0.00000000000E+00 0. -1.
         21    1    1    2  503  501  0.39465106475E+01  0.85120282667E+02 -0.27083306395E+02  0.89412208075E+02  0.00000000000E+00 0.  1.
<scales pt_clust_5="13000.00000" pt_clust_6="13000.00000" pt_clust_7="13000.00000" pt_clust_8="13000.00000" pt_clust_9="54.99902" pt_clust_10="86.19195"></scales>
<clustering>
<clus scale="   54.999">  1  9  2 -1</clus>
<clus scale="   86.192">  2 10  1 -1</clus>
<clus scale="   89.230">  5  6 -1 -1</clus>
<clus scale="   89.477">  7  8 -1 -1</clus>
<clus scale="  108.164">  1  5  2 -1</clus>
<clus scale="   54.999">  1  5  2 -1</clus>
</clustering>
</event>
<event>
10    2  0.1898324E-006  0.1088057E+03  0.7546771E-02  0.1267763E+00
         -1   -1    0    0    0  501 -0.00000000000E+00  0.00000000000E+00  0.29982354667E+03  0.29982354667E+03  0.00000000000E+00 0.  1.
          1   -1    0    0  502    0  0.00000000000E+00 -0.00000000000E+00 -0.21613388119E+03  0.21613388119E+03  0.00000000000E+00 0. -1.
         23    2    1    2    0    0  0.15639420245E+02  0.17596544316E+02  0.16961367569E+03  0.19271586373E+03  0.88410267040E+02 0.  0.
         23    2    1    2    0    0 -0.29536592486E+02  0.10980684101E+03 -0.22648832149E+02  0.15278165795E+03  0.99495290236E+02 0.  0.
        -11    1    3    3    0    0 -0.18044860829E+02 -0.28079736813E+02  0.47460356444E+02  0.58022185891E+02  0.00000000000E+00 0. -1.
         11    1    3    3    0    0  0.33684281074E+02  0.45676281129E+02  0.12215331924E+03  0.13469367784E+03  0.00000000000E+00 0.  1.
        -13    1    4    4    0    0 -0.50896238599E+02  0.95848229964E+02 -0.46302587858E+02  0.11798830422E+03  0.00000000000E+00 0. -1.
         13    1    4    4    0    0  0.21359646113E+02  0.13958611047E+02  0.23653755708E+02  0.34793353727E+02  0.00000000000E+00 0.  1.
         21    1    1    2  502  503 -0.14081351612E+02 -0.89301026821E+02 -0.79595172599E+02  0.12045060961E+03  0.00000000000E+00 0. -1.
         21    1    1    2  503  501  0.27978523853E+02 -0.38102358505E+02  0.16319994547E+02  0.50009296563E+02  0.00000000000E+00 0. -1.
<scales pt_clust_5="13000.00000" pt_clust_6="13000.00000" pt_clust_7="13000.00000" pt_clust_8="13000.00000" pt_clust_9="92.98939" pt_clust_10="47.27142"></scales>
<clustering>
<clus scale="   47.271">  1 10  2 -1</clus>
<clus scale="   88.410">  5  6 -1 -1</clus>
<clus scale="   92.989">  2  9  1 -1</clus>
<clus scale="   98.771">  1  5  2 -1</clus>
<clus scale="   99.495">  7  8 -1 -1</clus>
<clus scale="   92.989">  2  5  1 -1</clus>
</clustering>
</event>
<event>
10    2  0.1898324E-006  0.9822735E+02  0.7546771E-02  0.1285003E+00
         -2   -1    0    0    0  501 -0.00000000000E+00  0.00000000000E+00  0.65970521837E+02  0.65970521837E+02  0.00000000000E+00 0.  1.
          2   -1    0    0  502    0  0.00000000000E+00 -0.00000000000E+00 -0.42004226662E+03  0.42004226662E+03  0.00000000000E+00 0. -1.
         23    2    1    2    0    0 -0.17743846456E+02  0.36199786626E+01 -0.33146153131E+02  0.99092150894E+02  0.91611345197E+02 0.  0.
         23    2    1    2    0    0  0.11086081502E+02 -0.40422252328E+02 -0.29686413386E+03  0.31295853136E+03  0.89765632026E+02 0.  0.
        -11    1    4    4    0    0 -0.33064806122E+02  0.28171849953E+01 -0.14991679090E+03  0.15354563533E+03  0.00000000000E+00 0. -1.
         11    1    4    4    0    0  0.44150887624E+02 -0.43239437323E+02 -0.14694734296E+03  0.15941289603E+03  0.00000000000E+00 0.  1.
        -13    1    3    3    0    0  0.28897185832E+02  0.14300860145E+02  0.10922491523E+02  0.34042073541E+02  0.00000000000E+00 0.  1.
         13    1    3    3    0    0 -0.46641032288E+02 -0.10680881482E+02 -0.44068644653E+02  0.65050077353E+02  0.00000000000E+00 0. -1.
         21    1    1    2  502  503  0.26893846757E+02  0.27355459886E+02 -0.32309846168E+02  0.50155023063E+02  0.00000000000E+00 0.  1.
         21    1    1    2  503  501 -0.20236081804E+02  0.94468137788E+01  0.82483883682E+01  0.23807083148E+02  0.00000000000E+00 0.  1.
<scales pt_clust_5="13000.00000" pt_clust_6="13000.00000" pt_clust_7="13000.00000" pt_clust_8="13000.00000" pt_clust_9="37.22093" pt_clust_10="22.33252"></scales>
<clustering>
<clus scale="   22.333">  1 10  2 -1</clus>
<clus scale="   37.221">  1  9  2 -1</clus>
<clus scale="   89.766">  5  6 -1 -1</clus>
<clus scale="   91.611">  7  8 -1 -1</clus>
<clus scale="   96.508">  2  5  1 -1</clus>
<clus scale="   96.508">  2  5  1 -1</clus>
</clustering>
</event>
<event>
10    2  0.1898324E-006  0.1721411E+03  0.7546771E-02  0.1175728E+00
         -2   -1    0    0    0  501 -0.00000000000E+00  0.00000000000E+00  0.23533158089E+03  0.23533158089E+03  0.00000000000E+00 0.  1.
          2   -1    0    0  502    0  0.00000000000E+00 -0.00000000000E+00 -0.97739237510E+03  0.97739237510E+03  0.00000000000E+00 0. -1.
         23    2    1    2    0    0 -0.98438700660E+02 -0.10602405229E+03  0.18098054891E+03  0.24893441707E+03  0.91011578754E+02 0.  0.
         23    2    1    2    0    0  0.10189678321E+03  0.13150335946E+03 -0.66488220086E+03  0.69148676966E+03  0.91703454712E+02 0.  0.
        -11    1    4    4    0    0  0.10821117896E+02  0.72550732969E+02 -0.17530798237E+03  0.19003577066E+03  0.00000000000E+00 0.  1.
         11    1    4    4    0    0  0.91075665311E+02  0.58952626488E+02 -0.48957421849E+03  0.50145099899E+03  0.00000000000E+00 0. -1.
        -13    1    3    3    0    0 -0.44993684812E+02 -0.10838210120E+03  0.12086631611E+03  0.16846298675E+03  0.00000000000E+00 0.  1.
         13    1    3    3    0    0 -0.53445015848E+02  0.23580489087E+01  0.60114232798E+02  0.80471430325E+02  0.00000000000E+00 0. -1.
         21    1    1    2  502  503  0.24178351409E+02  0.86521505574E+01 -0.18647764319E+03  0.18823751963E+03  0.00000000000E+00 0. -1.
         21    1    1    2  503  501 -0.27636433956E+02 -0.34131457726E+02 -0.71681499070E+02  0.84065249641E+02  0.00000000000E+00 0.  1.
<scales pt_clust_5="13000.00000" pt_clust_6="13000.00000" pt_clust_7="13000.00000" pt_clust_8="13000.00000" pt_clust_9="25.67981" pt_clust_10="41.77547"></scales>
<clustering>
<clus scale="   25.680">  2  9  1 -1</clus>
<clus scale="   41.775">  2 10  1 -1</clus>
<clus scale="   91.012">  7  8 -1 -1</clus>
<clus scale="   91.703">  5  6 -1 -1</clus>
<clus scale="  171.774">  1  7  2 -1</clus>
<clus scale="   25.680">  2  5  1 -1</clus>
</clustering>
</event>
<event>
10    2  0.1898324E-006  0.1388301E+03  0.7546771E-02  0.1220322E+00
         -2   -1    0    0    0  501 -0.00000000000E+00  0.00000000000E+00  0.17822024499E+03  0.17822024499E+03  0.00000000000E+00 0.  1.
          2   -1    0    0  502    0  0.00000000000E+00 -0.00000000000E+00 -0.72807524993E+03  0.72807524993E+03  0.00000000000E+00 0. -1.
         23    2    1    2    0    0 -0.71254687851E+02 -0.28470153315E+02 -0.97021224772E+02  0.16626292879E+03  0.11109663930E+03 0.  0.
         23    2    1    2    0    0  0.66453336463E+02  0.10321371612E+02 -0.37361237649E+03  0.39053830378E+03  0.91713587957E+02 0.  0.
        -13    1    3    3    0    0 -0.61023069526E+02  0.95490115070E+01 -0.10884945083E+03  0.12515271304E+03  0.00000000000E+00 0.  1.
         13    1    3    3    0    0 -0.10231618325E+02 -0.38019164822E+02  0.11828226060E+02  0.41110215750E+02  0.00000000000E+00 0. -1.
        -13    1    4    4    0    0  0.66956747806E+02  0.43947163119E+02 -0.26510388789E+03  0.27693795442E+03  0.00000000000E+00 0. -1.
         13    1    4    4    0    0 -0.50341134378E+00 -0.33625791507E+02 -0.10850848860E+03  0.11360034937E+03  0.00000000000E+00 0.  1.
         21    1    1    2  502  503  0.26168599846E+02  0.14283826564E+02 -0.21243792080E+03  0.21451968095E+03  0.00000000000E+00 0. -1.
         21    1    1    2  503  501 -0.21367248458E+02  0.38649551393E+01  0.13321651713E+03  0.13497458139E+03  0.00000000000E+00 0.  1.
<scales pt_clust_5="13000.00000" pt_clust_6="13000.00000" pt_clust_7="13000.00000" pt_clust_8="13000.00000" pt_clust_9="29.41615" pt_clust_10="21.71399"></scales>
<clustering>
<clus scale="   21.714">  1 10  2 -1</clus>
<clus scale="   29.416">  2  9  1 -1</clus>
<clus scale="   91.714">  7  8 -1 -1</clus>
<clus scale="  111.097">  5  6 -1 -1</clus>
<clus scale="  123.866">  2  7  1 -1</clus>
<clus scale="   29.416">  2  5  1 -1</clus>
</clustering>
</event>
<event>
10    2  0.1898324E-006  0.9189560E+02  0.7546771E-02  0.1298332E+00
         -2   -1    0    0    0  501 -0.00000000000E+00  0.00000000000E+00  0.22152344490E+03  0.22152344490E+03  0.00000000000E+00 0.  1.
          2   -1    0    0  502    0  0.00000000000E+00 -0.00000000000E+00 -0.21119876481E+03  0.21119876481E+03  0.00000000000E+00 0. -1.
         23    2    1    2    0    0 -0.27640710361E+02  0.58632463354E+01  0.37758478654E+02  0.10317810490E+03  0.91769450767E+02 0.  0.
         23    2    1    2    0    0  0.91701073832E+01 -0.10859878833E+02 -0.53346749808E+02  0.10708613037E+03  0.91758028334E+02 0.  0.
        -11    1    4    4    0    0 -0.86561734870E+00 -0.39055534325E+02  0.70356766996E+01  0.39693636788E+02  0.00000000000E+00 0.  1.
         11    1    4    4    0    0  0.10035724732E+02  0.28195655492E+02 -0.60382426508E+02  0.67392493577E+02  0.00000000000E+00 0. -1.
        -13    1    3    3    0    0  0.28522361943E+02  0.17198572512E+02  0.30972675209E+02  0.45482113373E+02  0.00000000000E+00 0.  1.
         13    1    3    3    0    0 -0.56163072304E+02 -0.11335326177E+02  0.67858034453E+01  0.57695991529E+02  0.00000000000E+00 0. -1.
         21    1    1    2  502  503 -0.27214865096E+02  0.14016806114E+02 -0.91320238495E+02  0.96314618281E+02  0.00000000000E+00 0. -1.
         21    1    1    2  503  501  0.45685468074E+02 -0.90201736159E+01  0.11723318975E+03  0.12614335616E+03  0.00000000000E+00 0.  1.
<scales pt_clust_5="13000.00000" pt_clust_6="13000.00000" pt_clust_7="13000.00000" pt_clust_8="13000.00000" pt_clust_9="30.61241" pt_clust_10="45.45217"></scales>
<clustering>
<clus scale="   30.612">  2  9  1 -1</clus>
<clus scale="   45.452">  1 10  2 -1</clus>
<clus scale="   91.758">  5  6 -1 -1</clus>
<clus scale="   91.769">  7  8 -1 -1</clus>
<clus scale="   91.884">  2  5  1 -1</clus>
<clus scale="   30.612">  2  5  1 -1</clus>
</clustering>
</event>
<event>
10    2  0.1898324E-006  0.1154372E+03  0.7546771E-02  0.1252529E+00
          1   -1    0    0  502    0  0.00000000000E+00  0.00000000000E+00  0.10974454940E+03  0.10974454940E+03  0.00000000000E+00 0. -1.
         -1   -1    0    0    0  501 -0.00000000000E+00 -0.00000000000E+00 -0.48041526824E+03  0.48041526824E+03  0.00000000000E+00 0.  1.
         23    2    1    2    0    0 -0.46947289532E+02 -0.26351035234E+02 -0.34990809524E+03  0.36646290871E+03  0.94662364746E+02 0.  0.
         23    2    1    2    0    0  0.36452297463E+02  0.69888978469E+02 -0.15932297044E+02  0.12062593287E+03  0.89908499546E+02 0.  0.
        -13    1    3    3    0    0 -0.75199247393E+02 -0.18621662627E+02 -0.21842072899E+03  0.23175268710E+03  0.00000000000E+00 0.  1.
         13    1    3    3    0    0  0.28251957861E+02 -0.77293726069E+01 -0.13148736625E+03  0.13471022162E+03  0.00000000000E+00 0. -1.
        -13    1    4    4    0    0 -0.29908801504E+02  0.27484908527E+02 -0.87125832667E+01  0.41543539947E+02  0.00000000000E+00 0.  1.
         13    1    4    4    0    0  0.66361098968E+02  0.42404069941E+02 -0.72197137770E+01  0.79082392926E+02  0.00000000000E+00 0. -1.
         21    1    1    2  502  503  0.67179987125E+01 -0.18875146018E+02  0.43938286380E+02  0.48290533792E+02  0.00000000000E+00 0.  1.
         21    1    1    2  503  501  0.37769933557E+01 -0.24662797217E+02 -0.48768612948E+02  0.54780442261E+02  0.00000000000E+00 0. -1.
<scales pt_clust_5="13000.00000" pt_clust_6="13000.00000" pt_clust_7="13000.00000" pt_clust_8="13000.00000" pt_clust_9="20.03504" pt_clust_10="25.88039"></scales>
<clustering>
<clus scale="   20.035">  1  9  2 -1</clus>
<clus scale="   25.880">  2 10  1 -1</clus>
<clus scale="   89.908">  7  8 -1 -1</clus>
<clus scale="   94.662">  5  6 -1 -1</clus>
<clus scale="  111.572">  1  7  2 -1</clus>
<clus scale="   20.035">  1  5  2 -1</clus>
</clustering>
</event>
<event>
10    2  0.1898324E-006  0.1507736E+03  0.7546771E-02  0.1200618E+00
          3   -1    0    0  502    0  0.00000000000E+00  0.00000000000E+00  0.61735738593E+03  0.61735738593E+03  0.00000000000E+00 0. -1.
         -3   -1    0    0    0  501 -0.00000000000E+00 -0.00000000000E+00 -0.10971620654E+03  0.10971620654E+03  0.00000000000E+00 0.  1.
         23    2    1    2    0    0 -0.87886638220E+02 -0.91033314135E+02  0.42925084512E+02  0.16160096667E+03  0.90891056155E+02 0.  0.
         23    2    1    2    0    0  0.12017321683E+03  0.78898044025E+02  0.27091480541E+03  0.31822838529E+03  0.84899764541E+02 0.  0.
        -11    1    3    3    0    0 -0.60367508264E+02 -0.41677363255E+00  0.24342795721E+02  0.65092099810E+02  0.00000000000E+00 0. -1.
         11    1    3    3    0    0 -0.27519129957E+02 -0.90616540503E+02  0.18582288791E+02  0.96508866862E+02  0.00000000000E+00 0.  1.
        -13    1    4    4    0    0  0.10518927847E+03  0.22521332508E+02  0.15813675416E+03  0.19125696782E+03  0.00000000000E+00 0.  1.
         13    1    4    4    0    0  0.14983938357E+02  0.56376711518E+02  0.11277805124E+03  0.12697141746E+03  0.00000000000E+00 0. -1.
         21    1    1    2  502  503 -0.31841385694E+02 -0.20700783791E+02  0.20802040029E+03  0.21145893982E+03  0.00000000000E+00 0. -1.
         21    1    1    2  503  501 -0.44519291684E+00  0.32836053901E+02 -0.14219110822E+02  0.35785300685E+02  0.00000000000E+00 0. -1.
<scales pt_clust_5="13000.00000" pt_clust_6="13000.00000" pt_clust_7="13000.00000" pt_clust_8="13000.00000" pt_clust_9="37.62746" pt_clust_10="32.83907"></scales>
<clustering>
<clus scale="   32.839">  2 10  1 -1</clus>
<clus scale="   37.627">  1  9  2 -1</clus>
<clus scale="   84.900">  7  8 -1 -1</clus>
<clus scale="   90.891">  5  6 -1 -1</clus>
<clus scale="  147.239">  1  7  2 -1</clus>
<clus scale="   37.627">  1  5  2 -1</clus>
</clustering>
</event>
<event>
10    2  0.1898324E-006  0.1005905E+03  0.7546771E-02  0.1283603E+00
         -1   -1    0    0    0  501 -0.00000000000E+00  0.00000000000E+00  0.57480412805E+02  0.57480412805E+02  0.00000000000E+00 0.  1.
          1   -1    0    0  502    0  0.00000000000E+00 -0.00000000000E+00 -0.56186832405E+03  0.56186832405E+03  0.00000000000E+00 0. -1.
         23    2    1    2    0    0 -0.29712035343E+02 -0.15021534206E+02 -0.41502976816E+02  0.11137877179E+03  0.97848261036E+02 0.  0.
         23    2    1    2    0    0  0.44152590759E+02  0.17309671003E+02 -0.38366033615E+03  0.39675528120E+03  0.89277229165E+02 0.  0.
        -13    1    3    3    0    0  0.27538518598E+02  0.17086142721E+02 -0.31106272448E+02  0.44921113802E+02  0.00000000000E+00 0. -1.
         13    1    3    3    0    0 -0.57250553940E+02 -0.32107676926E+02 -0.10396704368E+02  0.66457657992E+02  0.00000000000E+00 0.  1.
        -13    1    4    4    0    0 -0.25266327051E+02  0.52163485418E+01 -0.56781221709E+02  0.62367497253E+02  0.00000000000E+00 0.  1.
         13    1    4    4    0    0  0.69418917810E+02  0.12093322461E+02 -0.32687911444E+03  0.33438778395E+03  0.00000000000E+00 0. -1.
         21    1    1    2  502  503 -0.30411152907E+02 -0.14673739062E+02 -0.83926536848E+02  0.90464470521E+02  0.00000000000E+00 0.  1.
         21    1    1    2  503  501  0.15970597491E+02  0.12385602264E+02  0.47019385597E+01  0.20750213346E+02  0.00000000000E+00 0.  1.
<scales pt_clust_5="13000.00000" pt_clust_6="13000.00000" pt_clust_7="13000.00000" pt_clust_8="13000.00000" pt_clust_9="32.32391" pt_clust_10="20.21047"></scales>
<clustering>
<clus scale="   20.210">  1 10  2 -1</clus>
<clus scale="   32.324">  2  9  1 -1</clus>
<clus scale="   89.277">  7  8 -1 -1</clus>
<clus scale="   92.275">  2  7  1 -1</clus>
<clus scale="   97.848">  5  6 -1 -1</clus>
<clus scale="   32.324">  2  5  1 -1</clus>
</clustering>
</event>
<event>
10    2  0.1898324E-006  0.1333250E+03  0.7546771E-02  0.1238840E+00
         -2   -1    0    0    0  501 -0.00000000000E+00  0.00000000000E+00  0.38298122039E+03  0.38298122039E+03  0.00000000000E+00 0.  1.
          2   -1    0    0  502    0  0.00000000000E+00 -0.00000000000E+00 -0.40467034714E+03  0.40467034714E+03  0.00000000000E+00 0. -1.
         23    2    1    2    0    0 -0.49903846485E+01 -0.25257578013E+02 -0.18813060333E+01  0.95441359214E+02  0.91883973304E+02 0.  0.
         23    2    1    2    0    0  0.37412224094E+02 -0.79249602409E+02  0.26836866409E+03  0.29654675349E+03  0.90763776618E+02 0.  0.
        -13    1    4    4    0    0  0.37971931435E+02  0.27394665302E+01  0.47015940757E+02  0.60496867184E+02  0.00000000000E+00 0. -1.
         13    1    4    4    0    0 -0.55970734159E+00 -0.81989068939E+02  0.22135272333E+03  0.23604988631E+03  0.00000000000E+00 0.  1.
        -13    1    3    3    0    0 -0.48306359197E+01  0.34366250926E+02  0.62596405287E+01  0.35264108463E+02  0.00000000000E+00 0. -1.
         13    1    3    3    0    0 -0.15974872873E+00 -0.59623828939E+02 -0.81409465620E+01  0.60177250751E+02  0.00000000000E+00 0.  1.
         21    1    1    2  502  503 -0.10046588823E+02  0.97517506544E+02 -0.33188750195E+03  0.34606345080E+03  0.00000000000E+00 0. -1.
         21    1    1    2  503  501 -0.22375250622E+02  0.69896738773E+01  0.43711017133E+02  0.49600004033E+02  0.00000000000E+00 0. -1.
<scales pt_clust_5="13000.00000" pt_clust_6="13000.00000" pt_clust_7="13000.00000" pt_clust_8="13000.00000" pt_clust_9="97.66007" pt_clust_10="23.44157"></scales>
<clustering>
<clus scale="   23.442">  1 10  2 -1</clus>
<clus scale="   90.764">  5  6 -1 -1</clus>
<clus scale="   91.884">  7  8 -1 -1</clus>
<clus scale="   95.384">  1  7  2 -1</clus>
<clus scale="   97.660">  2  9  1 -1</clus>
<clus scale="   97.660">  2  5  1 -1</clus>
</clustering>
</event>
<event>
10    2  0.1898324E-006  0.1720563E+03  0.7546771E-02  0.1178801E+00
          1   -1    0    0  502    0  0.00000000000E+00  0.00000000000E+00  0.73270477486E+03  0.73270477486E+03  0.00000000000E+00 0. -1.
         -1   -1    0    0    0  501 -0.00000000000E+00 -0.00000000000E+00 -0.14434109383E+03  0.14434109383E+03  0.00000000000E+00 0.  1.
         23    2    1    2    0    0 -0.66973367295E+02 -0.88887129120E+02 -0.31141225910E+02  0.14555328668E+03  0.88485194595E+02 0.  0.
         23    2    1    2    0    0  0.15963214141E+03  0.42477047224E+02  0.56636450887E+03  0.59977583168E+03  0.10805355729E+03 0.  0.
        -11    1    3    3    0    0 -0.33436539469E+02 -0.10093352092E+03 -0.19785046471E+02  0.10815278952E+03  0.00000000000E+00 0. -1.
         11    1    3    3    0    0 -0.33536827826E+02  0.12046391805E+02 -0.11356179439E+02  0.37400497157E+02  0.00000000000E+00 0.  1.
        -11    1    4    4    0    0  0.15992441426E+03  0.66614720145E+02  0.49857481653E+03  0.52781643295E+03  0.00000000000E+00 0.  1.
         11    1    4    4    0    0 -0.29227284439E+00 -0.24137672921E+02  0.67789692344E+02  0.71959398729E+02  0.00000000000E+00 0. -1.
         21    1    1    2  502  503 -0.40463753564E+02  0.27972701677E+02  0.58113812131E+02  0.76138049305E+02  0.00000000000E+00 0.  1.
         21    1    1    2  503  501 -0.52195020553E+02  0.18437380219E+02 -0.49734140599E+01  0.55578701022E+02  0.00000000000E+00 0.  1.
<scales pt_clust_5="13000.00000" pt_clust_6="13000.00000" pt_clust_7="13000.00000" pt_clust_8="13000.00000" pt_clust_9="49.19133" pt_clust_10="57.16246"></scales>
<clustering>
<clus scale="   49.191">  1  9  2 -1</clus>
<clus scale="   57.162">  2 10  1 -1</clus>
<clus scale="   88.485">  5  6 -1 -1</clus>
<clus scale="  108.054">  7  8 -1 -1</clus>
<clus scale="  160.491">  2  5  1 -1</clus>
<clus scale="   49.191">  1  5  2 -1</clus>
</clustering>
</event>
<event>
10    2  0.1898324E-006  0.1077619E+03  0.7546771E-02  0.1264870E+00
          1   -1    0    0  503    0  0.00000000000E+00  0.00000000000E+00  0.15420154294E+03  0.15420154294E+03  0.00000000000E+00 0. -1.
         -1   -1    0    0    0  501 -0.00000000000E+00 -0.00000000000E+00 -0.27581409758E+03  0.27581409758E+03  0.00000000000E+00 0.  1.
         23    2    1    2    0    0 -0.81394549563E-02 -0.59495277369E+02 -0.20614004268E+03  0.23263968012E+03  0.89932282720E+02 0.  0.
         23    2    1    2    0    0  0.89723730179E+01  0.56496886637E+02  0.18004124463E+02  0.10829887258E+03  0.90178132758E+02 0.  0.
        -11    1    4    4    0    0  0.39065554569E+02  0.63026421801E+02  0.34302395778E+01  0.74230815315E+02  0.00000000000E+00 0.  1.
         11    1    4    4    0    0 -0.30093181551E+02 -0.65295351643E+01  0.14573884885E+02  0.34068057267E+02  0.00000000000E+00 0. -1.
        -11    1    3    3    0    0  0.42106018803E+02 -0.42225039767E+02 -0.90664725494E+02  0.10851711041E+03  0.00000000000E+00 0.  1.
         11    1    3    3    0    0 -0.42114158258E+02 -0.17270237602E+02 -0.11547531718E+03  0.12412256971E+03  0.00000000000E+00 0. -1.
         21    1    1    2  502  501 -0.42533205154E+01  0.30714422920E+02  0.32066608279E+02  0.44606433137E+02  0.00000000000E+00 0. -1.
         21    1    1    2  503  502 -0.47109130476E+01 -0.27716032187E+02  0.34456755303E+02  0.44470654683E+02  0.00000000000E+00 0.  1.
<scales pt_clust_5="13000.00000" pt_clust_6="13000.00000" pt_clust_7="13000.00000" pt_clust_8="13000.00000" pt_clust_9="22.23120" pt_clust_10="28.11354"></scales>
<clustering>
<clus scale="   28.114">  1 10  2 -1</clus>
<clus scale="   22.231">  1  9  2 -1</clus>
<clus scale="   89.932">  7  8 -1 -1</clus>
<clus scale="   90.178">  5  6 -1 -1</clus>
<clus scale="  107.556">  2  7  1 -1</clus>
<clus scale="   28.114">  1  5  2 -1</clus>
</clustering>
</event>
<event>
10    2  0.1898324E-006  0.9991817E+02  0.7546771E-02  0.1280822E+00
          1   -1    0    0  502    0  0.00000000000E+00  0.00000000000E+00  0.27729373959E+03  0.27729373959E+03  0.00000000000E+00 0. -1.
         -1   -1    0    0    0  501 -0.00000000000E+00 -0.00000000000E+00 -0.24576870148E+03  0.24576870148E+03  0.00000000000E+00 0.  1.
         23    2    1    2    0    0  0.40993701794E+02 -0.32982041290E+02 -0.19744167264E+03  0.22391221402E+03  0.91570556722E+02 0.  0.
         23    2    1    2    0    0  0.19606091438E+01  0.24902653399E+02  0.20618792783E+03  0.22669163362E+03  0.90838587812E+02 0.  0.
        -11    1    3    3    0    0  0.43227370395E+02  0.12430817737E+02 -0.40530555223E+02  0.60546318530E+02  0.00000000000E+00 0. -1.
         11    1    3    3    0    0 -0.22336686015E+01 -0.45412859027E+02 -0.15691111741E+03  0.16336589549E+03  0.00000000000E+00 0.  1.
        -11    1    4    4    0    0  0.29956940356E+02  0.42149622666E+02  0.17047892861E+03  0.17814902208E+03  0.00000000000E+00 0. -1.
         11    1    4    4    0    0 -0.27996331212E+02 -0.17246969267E+02  0.35708999220E+02  0.48542611544E+02  0.00000000000E+00 0.  1.
         21    1    1    2  502  503 -0.22560945312E+02  0.10522638864E+02  0.39012580189E+02  0.46278543571E+02  0.00000000000E+00 0.  1.
         21    1    1    2  503  501 -0.20393365626E+02 -0.24432509730E+01 -0.16233797279E+02  0.26180049866E+02  0.00000000000E+00 0. -1.
<scales pt_clust_5="13000.00000" pt_clust_6="13000.00000" pt_clust_7="13000.00000" pt_clust_8="13000.00000" pt_clust_9="25.17712" pt_clust_10="20.53920"></scales>
<clustering>
<clus scale="   20.539">  2 10  1 -1</clus>
<clus scale="   25.177">  1  9  2 -1</clus>
<clus scale="   90.839">  7  8 -1 -1</clus>
<clus scale="   91.571">  5  6 -1 -1</clus>
<clus scale="   99.248">  1  7  2 -1</clus>
<clus scale="   25.177">  1  5  2 -1</clus>
</clustering>
</event>
<event>
10    2  0.1898324E-006  0.1008825E+03  0.7546771E-02  0.1279048E+00
          2   -1    0    0  502    0  0.00000000000E+00  0.00000000000E+00  0.38810021735E+03  0.38810021735E+03  0.00000000000E+00 0. -1.
         -2   -1    0    0    0  501 -0.00000000000E+00 -0.00000000000E+00 -0.77643959389E+02  0.77643959389E+02  0.00000000000E+00 0.  1.
         23    2    1    2    0    0  0.23268325397E+02  0.17079299046E+02  0.10295957529E+02  0.97654106837E+02  0.92721089391E+02 0.  0.
         23    2    1    2    0    0 -0.39702663094E+02 -0.34375577135E+02  0.12019596499E+03  0.15991614155E+03  0.91477432012E+02 0.  0.
        -13    1    3    3    0    0 -0.13490610156E+02 -0.32600478224E+02  0.26188849306E+01  0.35378613612E+02  0.00000000000E+00 0.  1.
         13    1    3    3    0    0  0.36758935553E+02  0.49679777271E+02  0.76770725982E+01  0.62275493224E+02  0.00000000000E+00 0. -1.
        -13    1    4    4    0    0 -0.20270170867E+01 -0.36031734050E+02  0.11657195181E+03  0.12203038394E+03  0.00000000000E+00 0. -1.
         13    1    4    4    0    0 -0.37675646007E+02  0.16561569152E+01  0.36240131816E+01  0.37885757605E+02  0.00000000000E+00 0.  1.
         21    1    1    2  502  503  0.27541190684E+02 -0.65939448645E+01  0.17960668774E+03  0.18182562959E+03  0.00000000000E+00 0. -1.
         21    1    1    2  503  501 -0.11106852987E+02  0.23890222953E+02  0.35764769916E+00  0.26348298767E+02  0.00000000000E+00 0.  1.
<scales pt_clust_5="13000.00000" pt_clust_6="13000.00000" pt_clust_7="13000.00000" pt_clust_8="13000.00000" pt_clust_9="28.04096" pt_clust_10="26.34587"></scales>
<clustering>
<clus scale="   26.346">  2 10  1 -1</clus>
<clus scale="   28.041">  1  9  2 -1</clus>
<clus scale="   91.477">  7  8 -1 -1</clus>
<clus scale="   92.721">  5  6 -1 -1</clus>
<clus scale="   99.741">  1  7  2 -1</clus>
<clus scale="   28.041">  1  5  2 -1</clus>
</clustering>
</event>
<event>
10    2  0.1898324E-006  0.1013853E+03  0.7546771E-02  0.1279372E+00
          2   -1    0    0  502    0  0.00000000000E+00  0.00000000000E+00  0.55525252597E+03  0.55525252597E+03  0.00000000000E+00 0. -1.
         -2   -1    0    0    0  501 -0.00000000000E+00 -0.00000000000E+00 -0.87065836075E+02  0.87065836075E+02  0.00000000000E+00 0.  1.
         23    2    1    2    0    0 -0.45445627487E+02 -0.46293662881E+02  0.59875915884E+02  0.12930210176E+03  0.94474864042E+02 0.  0.
         23    2    1    2    0    0  0.75223267755E+01  0.35338014919E+02  0.30861041310E+03  0.32361941902E+03  0.90464250353E+02 0.  0.
        -11    1    3    3    0    0 -0.24829992849E+02 -0.71355959435E+02  0.60582811909E+02  0.96842545353E+02  0.00000000000E+00 0.  1.
         11    1    3    3    0    0 -0.20615634638E+02  0.25062296553E+02 -0.70689602574E+00  0.32459556405E+02  0.00000000000E+00 0. -1.
        -13    1    4    4    0    0  0.48312942239E+02  0.10584858696E+02  0.14572039903E+03  0.15388506852E+03  0.00000000000E+00 0.  1.
         13    1    4    4    0    0 -0.40790615464E+02  0.24753156223E+02  0.16289001407E+03  0.16973435049E+03  0.00000000000E+00 0. -1.
         21    1    1    2  502  503  0.14862211856E+02 -0.15337360856E+02  0.13677335584E+03  0.13843074387E+03  0.00000000000E+00 0.  1.
         21    1    1    2  503  501  0.23061088856E+02  0.26293008819E+02 -0.37072994928E+02  0.50966097407E+02  0.00000000000E+00 0. -1.
<scales pt_clust_5="13000.00000" pt_clust_6="13000.00000" pt_clust_7="13000.00000" pt_clust_8="13000.00000" pt_clust_9="21.35697" pt_clust_10="34.94637"></scales>
<clustering>
<clus scale="   21.357">  1  9  2 -1</clus>
<clus scale="   34.946">  2 10  1 -1</clus>
<clus scale="   90.464">  7  8 -1 -1</clus>
<clus scale="   94.475">  5  6 -1 -1</clus>
<clus scale="   97.659">  1  7  2 -1</clus>
<clus scale="   21.357">  1  5  2 -1</clus>
</clustering>
</event>
<event>
10    2  0.1898324E-006  0.1463760E+03  0.7546771E-02  0.1208231E+00
          2   -1    0    0  502    0  0.00000000000E+00  0.00000000000E+00  0.26063511754E+03  0.26063511754E+03  0.00000000000E+00 0. -1.
         -2   -1    0    0    0  501 -0.00000000000E+00 -0.00000000000E+00 -0.34360001614E+03  0.34360001614E+03  0.00000000000E+00 0.  1.
         23    2    1    2    0    0  0.11564894862E+03  0.18208074795E+02 -0.27656991048E+01  0.15602891101E+03  0.10310751027E+03 0.  0.
         23    2    1    2    0    0 -0.99499265772E+02  0.66441665287E+01  0.11999072686E+03  0.17943009479E+03  0.88617918863E+02 0.  0.
        -13    1    4    4    0    0  0.17927673794E+01  0.25146239837E+02  0.61873748856E+01  0.25958254964E+02  0.00000000000E+00 0.  1.
         13    1    4    4    0    0 -0.10129203315E+03 -0.18502073308E+02  0.11380335198E+03  0.15347183982E+03  0.00000000000E+00 0. -1.
        -13    1    3    3    0    0  0.75750898145E+02  0.37477416522E+01  0.48080629156E+02  0.89799727379E+02  0.00000000000E+00 0.  1.
         13    1    3    3    0    0  0.39898050477E+02  0.14460333143E+02 -0.50846328261E+02  0.66229183629E+02  0.00000000000E+00 0. -1.
         21    1    1    2  502  503 -0.47883225791E+02 -0.98581027786E+01  0.14691460580E+02  0.51047277268E+02  0.00000000000E+00 0. -1.
         21    1    1    2  503  501  0.31733542940E+02 -0.14994138546E+02 -0.21488138694E+03  0.21772885061E+03  0.00000000000E+00 0.  1.
<scales pt_clust_5="13000.00000" pt_clust_6="13000.00000" pt_clust_7="13000.00000" pt_clust_8="13000.00000" pt_clust_9="44.98162" pt_clust_10="35.09761"></scales>
<clustering>
<clus scale="   35.098">  2 10  1 -1</clus>
<clus scale="   44.982">  2  9  1 -1</clus>
<clus scale="   88.618">  5  6 -1 -1</clus>
<clus scale="  103.108">  7  8 -1 -1</clus>
<clus scale="  136.557">  1  5  2 -1</clus>
<clus scale="  136.557">  1  5  2 -1</clus>
</clustering>
</event>
<event>
10    2  0.1898324E-006  0.1595714E+03  0.7546771E-02  0.1194433E+00
          2   -1    0    0  502    0  0.00000000000E+00  0.00000000000E+00  0.66382774849E+03  0.66382774849E+03  0.00000000000E+00 0. -1.
         -2   -1    0    0    0  501 -0.00000000000E+00 -0.00000000000E+00 -0.48865127861E+02  0.48865127861E+02  0.00000000000E+00 0.  1.
         23    2    1    2    0    0 -0.75543209884E+01  0.10701270456E+03  0.22386383911E+03  0.26459836663E+03  0.91588702673E+02 0.  0.
         23    2    1    2    0    0  0.12412338954E+02 -0.11124620712E+03  0.30357750924E+03  0.34400000861E+03  0.11682001993E+03 0.  0.
        -11    1    3    3    0    0  0.20997898906E+02 -0.29079495294E+01  0.71430957356E+02  0.74510063735E+02  0.00000000000E+00 0.  1.
         11    1    3    3    0    0 -0.28552219895E+02  0.10992065409E+03  0.15243288176E+03  0.19008830289E+03  0.00000000000E+00 0. -1.
        -13    1    4    4    0    0  0.43620069569E+02 -0.10639043145E+03  0.16025719615E+03  0.19724097772E+03  0.00000000000E+00 0.  1.
         13    1    4    4    0    0 -0.31207730615E+02 -0.48557756734E+01  0.14332031308E+03  0.14675903090E+03  0.00000000000E+00 0. -1.
         21    1    1    2  502  503  0.16734566962E+02  0.12741712576E+02  0.74648559324E+02  0.77555169911E+02  0.00000000000E+00 0. -1.
         21    1    1    2  503  501 -0.21592584928E+02 -0.85082100173E+01  0.12872712958E+02  0.26539331199E+02  0.00000000000E+00 0. -1.
<scales pt_clust_5="13000.00000" pt_clust_6="13000.00000" pt_clust_7="13000.00000" pt_clust_8="13000.00000" pt_clust_9="21.03323" pt_clust_10="22.53055"></scales>
<clustering>
<clus scale="   21.033">  1  9  2 -1</clus>
<clus scale="   22.531">  2 10  1 -1</clus>
<clus scale="   91.589">  5  6 -1 -1</clus>
<clus scale="  116.820">  7  8 -1 -1</clus>
<clus scale="  142.143">  2  5  1 -1</clus>
<clus scale="   21.033">  1  5  2 -1</clus>
</clustering>
</event>
<event>
10    2  0.1898324E-006  0.1976011E+03  0.7546771E-02  0.1152295E+00
          2   -1    0    0  502    0  0.00000000000E+00  0.00000000000E+00  0.33925973157E+03  0.33925973157E+03  0.00000000000E+00 0. -1.
         -2   -1    0    0    0  501 -0.00000000000E+00 -0.00000000000E+00 -0.38452698197E+03  0.38452698197E+03  0.00000000000E+00 0.  1.
         23    2    1    2    0    0  0.82773760455E+02  0.13626068753E+03 -0.19948303974E+03  0.26954852128E+03  0.86281236625E+02 0.  0.
         23    2    1    2    0    0 -0.78383475917E+02 -0.18482638792E+03  0.20890983421E+03  0.30386338422E+03  0.91568960222E+02 0.  0.
        -11    1    4    4    0    0  0.87718032634E+01 -0.64765014013E+02  0.31369035877E+02  0.72494606589E+02  0.00000000000E+00 0.  1.
         11    1    4    4    0    0 -0.87155279180E+02 -0.12006137391E+03  0.17754079833E+03  0.23136877763E+03  0.00000000000E+00 0. -1.
        -13    1    3    3    0    0  0.80355743312E+02  0.50058526280E+02 -0.11300178747E+03  0.14741880989E+03  0.00000000000E+00 0. -1.
         13    1    3    3    0    0  0.24180171434E+01  0.86202161247E+02 -0.86481252270E+02  0.12212971139E+03  0.00000000000E+00 0.  1.
         21    1    1    2  502  503  0.31300017840E+02  0.16312629141E+02  0.34296757449E+02  0.49214434445E+02  0.00000000000E+00 0. -1.
         21    1    1    2  503  501 -0.35690302378E+02  0.32253071250E+02 -0.88990802311E+02  0.10116037359E+03  0.00000000000E+00 0.  1.
<scales pt_clust_5="13000.00000" pt_clust_6="13000.00000" pt_clust_7="13000.00000" pt_clust_8="13000.00000" pt_clust_9="35.29579" pt_clust_10="47.85818"></scales>
<clustering>
<clus scale="   35.296">  1  9  2 -1</clus>
<clus scale="   47.858">  2 10  1 -1</clus>
<clus scale="   86.281">  7  8 -1 -1</clus>
<clus scale="   91.569">  5  6 -1 -1</clus>
<clus scale="  195.207">  2  7  1 -1</clus>
<clus scale="   35.296">  1  5  2 -1</clus>
</clustering>
</event>
<event>
10    2  0.1898324E-006  0.1111386E+03  0.7546771E-02  0.1263121E+00
          2   -1    0    0  502    0  0.00000000000E+00  0.00000000000E+00  0.14862823825E+03  0.14862823825E+03  0.00000000000E+00 0.  1.
         -2   -1    0    0    0  501 -0.00000000000E+00 -0.00000000000E+00 -0.16675238744E+03  0.16675238744E+03  0.00000000000E+00 0. -1.
         23    2    1    2    0    0  0.32392574481E+01 -0.21169797890E+02 -0.37946062789E+02  0.10219114406E+03  0.92436319219E+02 0.  0.
         23    2    1    2    0    0  0.42523979961E+02  0.37893198184E+02  0.57169062864E+02  0.13082767736E+03  0.10297279288E+03 0.  0.
        -11    1    4    4    0    0 -0.12930418670E+02  0.19875268223E+02 -0.22106622860E+02  0.32417970143E+02  0.00000000000E+00 0. -1.
         11    1    4    4    0    0  0.55454398630E+02  0.18017929961E+02  0.79275685724E+02  0.98409707217E+02  0.00000000000E+00 0.  1.
        -11    1    3    3    0    0 -0.92213494050E+01  0.25522541241E+02  0.14588166465E+02  0.30809868501E+02  0.00000000000E+00 0.  1.
         11    1    3    3    0    0  0.12460606853E+02 -0.46692339130E+02 -0.52534229253E+02  0.71381275555E+02  0.00000000000E+00 0. -1.
         21    1    1    2  502  503 -0.32880134945E+02 -0.35901152964E+02 -0.16968279200E+02  0.51555005161E+02  0.00000000000E+00 0. -1.
         21    1    1    2  503  501 -0.12883102463E+02  0.19177752670E+02 -0.20378870060E+02  0.30806799111E+02  0.00000000000E+00 0.  1.
<scales pt_clust_5="13000.00000" pt_clust_6="13000.00000" pt_clust_7="13000.00000" pt_clust_8="13000.00000" pt_clust_9="47.67439" pt_clust_10="23.10326"></scales>
<clustering>
<clus scale="   23.103">  2 10  1 -1</clus>
<clus scale="   47.674">  2  9  1 -1</clus>
<clus scale="   92.436">  7  8 -1 -1</clus>
<clus scale="  101.454">  2  7  1 -1</clus>
<clus scale="  102.973">  5  6 -1 -1</clus>
<clus scale="  111.139">  1  5  2 -1</clus>
</clustering>
</event>
<event>
10    2  0.1898324E-006  0.1652308E+03  0.7546771E-02  0.1182958E+00
         -1   -1    0    0    0  501 -0.00000000000E+00  0.00000000000E+00  0.17123194137E+03  0.17123194137E+03  0.00000000000E+00 0.  1.
          1   -1    0    0  502    0  0.00000000000E+00 -0.00000000000E+00 -0.42858650708E+03  0.42858650708E+03  0.00000000000E+00 0. -1.
         23    2    1    2    0    0  0.11947743652E+03 -0.96659635226E+01  0.45594614060E+02  0.15682943430E+03  0.90268011744E+02 0.  0.
         23    2    1    2    0    0 -0.11717238078E+03 -0.18651126668E+02 -0.23489288050E+03  0.27811468570E+03  0.89977117925E+02 0.  0.
        -11    1    3    3    0    0  0.31486570118E+02 -0.86058143814E+01  0.59378748384E+02  0.67759131478E+02  0.00000000000E+00 0. -1.
         11    1    3    3    0    0  0.87990866398E+02 -0.10601491412E+01 -0.13784134324E+02  0.89070302822E+02  0.00000000000E+00 0.  1.
        -13    1    4    4    0    0 -0.26338663332E+02 -0.43783564145E+02 -0.11317324833E+03  0.12417290290E+03  0.00000000000E+00 0.  1.
         13    1    4    4    0    0 -0.90833717445E+02  0.25132437477E+02 -0.12171963217E+03  0.15394178281E+03  0.00000000000E+00 0. -1.
         21    1    1    2  502  503 -0.37526646373E+02  0.23428170571E+02 -0.10479187985E+03  0.11374737995E+03  0.00000000000E+00 0. -1.
         21    1    1    2  503  501  0.35221590634E+02  0.48889196200E+01  0.36735580579E+02  0.51126948494E+02  0.00000000000E+00 0.  1.
<scales pt_clust_5="13000.00000" pt_clust_6="13000.00000" pt_clust_7="13000.00000" pt_clust_8="13000.00000" pt_clust_9="43.28703" pt_clust_10="35.55927"></scales>
<clustering>
<clus scale="   35.559">  1 10  2 -1</clus>
<clus scale="   43.287">  2  9  1 -1</clus>
<clus scale="   89.977">  7  8 -1 -1</clus>
<clus scale="   90.268">  5  6 -1 -1</clus>
<clus scale="  165.072">  2  7  1 -1</clus>
<clus scale="   43.287">  2  5  1 -1</clus>
</clustering>
</event>
<event>
10    2  0.1898324E-006  0.1014052E+03  0.7546771E-02  0.1281045E+00
         -2   -1    0    0    0  501 -0.00000000000E+00  0.00000000000E+00  0.16473918016E+03  0.16473918016E+03  0.00000000000E+00 0.  1.
          2   -1    0    0  502    0  0.00000000000E+00 -0.00000000000E+00 -0.31346874514E+03  0.31346874514E+03  0.00000000000E+00 0. -1.
         23    2    1    2    0    0  0.48368886929E+02  0.40258534190E+02  0.13269175200E+02  0.11150594323E+03  0.91088998053E+02 0.  0.
         23    2    1    2    0    0  0.12232970395E+02 -0.64128712870E+02 -0.14195145171E+03  0.17710222459E+03  0.83383727025E+02 0.  0.
        -11    1    3    3    0    0  0.17938661329E+02  0.67500811060E+02  0.95592136194E+01  0.70494919171E+02  0.00000000000E+00 0.  1.
         11    1    3    3    0    0  0.30430225600E+02 -0.27242276869E+02  0.37099615811E+01  0.41011024055E+02  0.00000000000E+00 0. -1.
        -11    1    4    4    0    0 -0.28700233660E+02  0.81729782356E-01 -0.28358251132E+02  0.40347248967E+02  0.00000000000E+00 0.  1.
         11    1    4    4    0    0  0.40933204055E+02 -0.64210442653E+02 -0.11359320058E+03  0.13675497562E+03  0.00000000000E+00 0. -1.
         21    1    1    2  502  503 -0.66759559120E+01  0.27561311584E+02 -0.93895084938E+02  0.98084052011E+02  0.00000000000E+00 0. -1.
         21    1    1    2  503  501 -0.53925901412E+02 -0.36911329041E+01  0.73847796467E+02  0.91515705473E+02  0.00000000000E+00 0.  1.
<scales pt_clust_5="13000.00000" pt_clust_6="13000.00000" pt_clust_7="13000.00000" pt_clust_8="13000.00000" pt_clust_9="28.35832" pt_clust_10="54.25805"></scales>
<clustering>
<clus scale="   28.358">  2  9  1 -1</clus>
<clus scale="   54.258">  1 10  2 -1</clus>
<clus scale="   83.384">  7  8 -1 -1</clus>
<clus scale="   91.089">  5  6 -1 -1</clus>
<clus scale="   94.544">  2  7  1 -1</clus>
<clus scale="   28.358">  2  5  1 -1</clus>
</clustering>
</event>
<event>
10    2  0.1898324E-006  0.1332642E+03  0.7546771E-02  0.1233284E+00
         -1   -1    0    0    0  501 -0.00000000000E+00  0.00000000000E+00  0.29873089797E+03  0.29873089797E+03  0.00000000000E+00 0.  1.
          1   -1    0    0  503    0  0.00000000000E+00 -0.00000000000E+00 -0.25314897221E+03  0.25314897221E+03  0.00000000000E+00 0. -1.
         23    2    1    2    0    0 -0.13121591193E+02 -0.79499213135E+02  0.18212899153E+03  0.21867811402E+03  0.90315264216E+02 0.  0.
         23    2    1    2    0    0  0.35189547968E+02 -0.45442325243E+02 -0.13240357710E+03  0.17075845228E+03  0.91238328505E+02 0.  0.
        -13    1    3    3    0    0 -0.30540792819E+02  0.75785992316E+01  0.58997150248E+02  0.66864332268E+02  0.00000000000E+00 0.  1.
         13    1    3    3    0    0  0.17419201626E+02 -0.87077812366E+02  0.12313184129E+03  0.15181378175E+03  0.00000000000E+00 0. -1.
        -13    1    4    4    0    0  0.40926232619E+02 -0.15840362606E+02 -0.10421925999E+02  0.45105322806E+02  0.00000000000E+00 0.  1.
         13    1    4    4    0    0 -0.57366846513E+01 -0.29601962637E+02 -0.12198165110E+03  0.12565312948E+03  0.00000000000E+00 0. -1.
         21    1    1    2  502  501 -0.36754292880E+02  0.86609782895E+00  0.53035289647E+01  0.37145061449E+02  0.00000000000E+00 0.  1.
         21    1    1    2  503  502  0.14686336105E+02  0.12407544055E+03 -0.94470176414E+01  0.12529824244E+03  0.00000000000E+00 0.  1.
<scales pt_clust_5="13000.00000" pt_clust_6="13000.00000" pt_clust_7="13000.00000" pt_clust_8="13000.00000" pt_clust_9="36.76450" pt_clust_10="97.99241"></scales>
<clustering>
<clus scale="   36.764">  1  9  2 -1</clus>
<clus scale="   90.315">  5  6 -1 -1</clus>
<clus scale="   91.238">  7  8 -1 -1</clus>
<clus scale="  107.005">  2  7  1 -1</clus>
<clus scale="   97.992">  2 10  1 -1</clus>
<clus scale="  107.005">  2  5  1 -1</clus>
</clustering>
</event>
<event>
10    2  0.1898324E-006  0.2594131E+03  0.7546771E-02  0.1107503E+00
         -2   -1    0    0    0  501 -0.00000000000E+00  0.00000000000E+00  0.55381819589E+03  0.55381819589E+03  0.00000000000E+00 0.  1.
          2   -1    0    0  502    0  0.00000000000E+00 -0.00000000000E+00 -0.12553662358E+04  0.12553662358E+04  0.00000000000E+00 0. -1.
         23    2    1    2    0    0 -0.27886411970E+03 -0.16426405074E+02  0.77417726195E+02  0.30406120238E+03  0.91786090568E+02 0.  0.
         23    2    1    2    0    0  0.24322744538E+03 -0.94540375233E+02 -0.10499662878E+04  0.10858061551E+04  0.91914787638E+02 0.  0.
        -11    1    4    4    0    0  0.17089692412E+03 -0.43376326654E+02 -0.53585964622E+03  0.56412128557E+03  0.00000000000E+00 0.  1.
         11    1    4    4    0    0  0.72330521264E+02 -0.51164048579E+02 -0.51410664154E+03  0.52168486948E+03  0.00000000000E+00 0. -1.
        -13    1    3    3    0    0 -0.41584910665E+02 -0.37272283898E+02  0.14130613476E+02  0.57603838233E+02  0.00000000000E+00 0. -1.
         13    1    3    3    0    0 -0.23727920904E+03  0.20845878824E+02  0.63287112719E+02  0.24645736414E+03  0.00000000000E+00 0.  1.
         21    1    1    2  502  503 -0.20102357797E+02  0.93893074692E+01 -0.62468926584E+02  0.66292010622E+02  0.00000000000E+00 0. -1.
         21    1    1    2  503  501  0.55739032118E+02  0.10157747284E+03  0.33346944820E+03  0.35302506366E+03  0.00000000000E+00 0.  1.
<scales pt_clust_5="13000.00000" pt_clust_6="13000.00000" pt_clust_7="13000.00000" pt_clust_8="13000.00000" pt_clust_9="22.18702" pt_clust_10="115.85386"></scales>
<clustering>
<clus scale="   22.187">  2  9  1 -1</clus>
<clus scale="   91.786">  7  8 -1 -1</clus>
<clus scale="   91.915">  5  6 -1 -1</clus>
<clus scale="  115.854">  1 10  2 -1</clus>
<clus scale="  259.368">  1  7  2 -1</clus>
<clus scale="   22.187">  2  5  1 -1</clus>
</clustering>
</event>
<event>
10    2  0.1898324E-006  0.2148160E+03  0.7546771E-02  0.1137910E+00
         -1   -1    0    0    0  501 -0.00000000000E+00  0.00000000000E+00  0.11452917626E+03  0.11452917626E+03  0.00000000000E+00 0.  1.
          1   -1    0    0  503    0  0.00000000000E+00 -0.00000000000E+00 -0.10004598463E+04  0.10004598463E+04  0.00000000000E+00 0. -1.
         23    2    1    2    0    0  0.15934933871E+03 -0.13261937796E+02 -0.22184155908E+03  0.28813534921E+03  0.90775610112E+02 0.  0.
         23    2    1    2    0    0 -0.20615034784E+03  0.65454338138E+02 -0.67512677353E+03  0.71487438962E+03  0.92016282778E+02 0.  0.
        -11    1    3    3    0    0  0.94454923691E+02  0.35749518976E+02 -0.14126853865E+03  0.17365644453E+03  0.00000000000E+00 0.  1.
         11    1    3    3    0    0  0.64894415017E+02 -0.49011456771E+02 -0.80573020427E+02  0.11447890468E+03  0.00000000000E+00 0. -1.
        -13    1    4    4    0    0 -0.48555223689E+02  0.96930973217E+01 -0.61879507404E+02  0.79250484666E+02  0.00000000000E+00 0.  1.
         13    1    4    4    0    0 -0.15759512415E+03  0.55761240816E+02 -0.61324726613E+03  0.63562390495E+03  0.00000000000E+00 0. -1.
         21    1    1    2  502  501  0.22801869824E+02 -0.21062880251E+02 -0.38042226490E+02  0.49099706600E+02  0.00000000000E+00 0. -1.
         21    1    1    2  503  502  0.23999139311E+02 -0.31129520091E+02  0.49079889063E+02  0.62879577123E+02  0.00000000000E+00 0.  1.
<scales pt_clust_5="13000.00000" pt_clust_6="13000.00000" pt_clust_7="13000.00000" pt_clust_8="13000.00000" pt_clust_9="31.04143" pt_clust_10="55.08822"></scales>
<clustering>
<clus scale="   31.041">  1  9  2 -1</clus>
<clus scale="   55.088">  1 10  2 -1</clus>
<clus scale="   90.776">  5  6 -1 -1</clus>
<clus scale="   92.016">  7  8 -1 -1</clus>
<clus scale="  214.287">  1  5  2 -1</clus>
<clus scale="  214.816">  2  5  1 -1</clus>
</clustering>
</event>
<event>
10    2  0.2920357E-006  0.3241070E+03  0.7546771E-02  0.1073790E+00
          2   -1    0    0  502    0  0.00000000000E+00  0.00000000000E+00  0.24498704901E+03  0.24498704901E+03  0.00000000000E+00 0.  1.
         -2   -1    0    0    0  501 -0.00000000000E+00 -0.00000000000E+00 -0.13082435113E+04  0.13082435113E+04  0.00000000000E+00 0. -1.
         23    2    1    2    0    0 -0.23204470191E+02  0.30512745237E+03 -0.10686361124E+04  0.11152108359E+04  0.89837955883E+02 0.  0.
         23    2    1    2    0    0  0.18155696014E+02 -0.29142331553E+03  0.32524011651E+02  0.30707387401E+03  0.89327345400E+02 0.  0.
        -11    1    4    4    0    0  0.40655042135E+02 -0.13017337698E+03  0.45452477905E+02  0.14374932442E+03  0.00000000000E+00 0.  1.
         11    1    4    4    0    0 -0.22499346122E+02 -0.16124993855E+03 -0.12928466255E+02  0.16332454959E+03  0.00000000000E+00 0. -1.
        -13    1    3    3    0    0 -0.35602834380E+01  0.17980251738E+03 -0.46886758045E+03  0.50217370388E+03  0.00000000000E+00 0. -1.
         13    1    3    3    0    0 -0.19644186753E+02  0.12532493499E+03 -0.59976853192E+03  0.61303713206E+03  0.00000000000E+00 0.  1.
         21    1    1    2  502  503  0.38770799054E+02 -0.19968913604E+02  0.37662084474E+02  0.57622608208E+02  0.00000000000E+00 0.  1.
         21    1    1    2  503  501 -0.33722024877E+02  0.62647767567E+01 -0.64806446098E+02  0.73323242191E+02  0.00000000000E+00 0.  1.
<scales pt_clust_5="13000.00000" pt_clust_6="13000.00000" pt_clust_7="13000.00000" pt_clust_8="13000.00000" pt_clust_9="43.34667" pt_clust_10="34.29901"></scales>
<clustering>
<clus scale="   34.299">  2 10  1 -1</clus>
<clus scale="   43.347">  1  9  2 -1</clus>
<clus scale="   89.327">  5  6 -1 -1</clus>
<clus scale="   89.838">  7  8 -1 -1</clus>
<clus scale="  323.966">  1  5  2 -1</clus>
<clus scale="   43.347">  1  5  2 -1</clus>
</clustering>
</event>
<event>
10    2  0.1898324E-006  0.1331802E+03  0.7546771E-02  0.1222826E+00
         -1   -1    0    0    0  501 -0.00000000000E+00  0.00000000000E+00  0.71498530915E+03  0.71498530915E+03  0.00000000000E+00 0.  1.
          1   -1    0    0  502    0  0.00000000000E+00 -0.00000000000E+00 -0.10428456982E+03  0.10428456982E+03  0.00000000000E+00 0. -1.
         23    2    1    2    0    0  0.42913807623E+02  0.63735562900E+02  0.24674844384E+03  0.27386534233E+03  0.90628992760E+02 0.  0.
         23    2    1    2    0    0 -0.68532413645E+02 -0.63683816202E+02  0.92774407164E+02  0.15994775669E+03  0.90685578120E+02 0.  0.
        -11    1    3    3    0    0  0.69440429542E+02  0.34471684995E+02  0.18472127359E+03  0.20033027539E+03  0.00000000000E+00 0.  1.
         11    1    3    3    0    0 -0.26526621919E+02  0.29263877906E+02  0.62027170252E+02  0.73535066941E+02  0.00000000000E+00 0. -1.
        -13    1    4    4    0    0 -0.31422010319E+02 -0.80405199571E+02  0.45565751643E+02  0.97614428100E+02  0.00000000000E+00 0.  1.
         13    1    4    4    0    0 -0.37110403325E+02  0.16721383369E+02  0.47208655522E+02  0.62333328588E+02  0.00000000000E+00 0. -1.
         21    1    1    2  502  503 -0.20294869512E+02 -0.46524030465E+02 -0.41787308957E+02  0.65746074629E+02  0.00000000000E+00 0. -1.
         21    1    1    2  503  501  0.45913475534E+02  0.46472283767E+02  0.31296519727E+03  0.31971070532E+03  0.00000000000E+00 0. -1.
<scales pt_clust_5="13000.00000" pt_clust_6="13000.00000" pt_clust_7="13000.00000" pt_clust_8="13000.00000" pt_clust_9="50.75793" pt_clust_10="62.17786"></scales>
<clustering>
<clus scale="   50.758">  2  9  1 -1</clus>
<clus scale="   62.178">  1 10  2 -1</clus>
<clus scale="   90.629">  5  6 -1 -1</clus>
<clus scale="   90.686">  7  8 -1 -1</clus>
<clus scale="  133.142">  1  5  2 -1</clus>
<clus scale="   50.758">  2  5  1 -1</clus>
</clustering>
</event>
<event>
10    2  0.1898324E-006  0.2389498E+03  0.7546771E-02  0.1154850E+00
         -1   -1    0    0    0  501 -0.00000000000E+00  0.00000000000E+00  0.29709125537E+03  0.29709125537E+03  0.00000000000E+00 0.  1.
          1   -1    0    0  502    0  0.00000000000E+00 -0.00000000000E+00 -0.53896078860E+03  0.53896078860E+03  0.00000000000E+00 0. -1.
         23    2    1    2    0    0 -0.14879926398E+03  0.14311174784E+03  0.92349267756E+02  0.24353326546E+03  0.90320932244E+02 0.  0.
         23    2    1    2    0    0 -0.72328937803E+01  0.50236451899E+02 -0.32180036094E+03  0.33817316697E+03  0.90717157721E+02 0.  0.
        -11    1    3    3    0    0 -0.41363328493E+02  0.81455838692E+02  0.75510278325E+02  0.11852333413E+03  0.00000000000E+00 0.  1.
         11    1    3    3    0    0 -0.10743593548E+03  0.61655909149E+02  0.16838989431E+02  0.12500993133E+03  0.00000000000E+00 0. -1.
        -13    1    4    4    0    0 -0.46475231349E+02  0.15901354438E+02 -0.19452381003E+03  0.20062979058E+03  0.00000000000E+00 0. -1.
         13    1    4    4    0    0  0.39242337569E+02  0.34335097461E+02 -0.12727655092E+03  0.13754337639E+03  0.00000000000E+00 0.  1.
         21    1    1    2  502  503  0.11286900357E+03 -0.17074374033E+03 -0.17138095536E+02  0.20539364924E+03  0.00000000000E+00 0.  1.
         21    1    1    2  503  501  0.43163154189E+02 -0.22604459410E+02  0.47196554948E+01  0.48951962297E+02  0.00000000000E+00 0. -1.
<scales pt_clust_5="13000.00000" pt_clust_6="13000.00000" pt_clust_7="13000.00000" pt_clust_8="13000.00000" pt_clust_9="227.47977" pt_clust_10="25.85401"></scales>
<clustering>
<clus scale="   25.854">  9 10 -1 -1</clus>
<clus scale="   90.321">  5  6 -1 -1</clus>
<clus scale="   90.717">  7  8 -1 -1</clus>
<clus scale="  103.950">  2  7  1 -1</clus>
<clus scale="  227.480">  2  9  1 -1</clus>
<clus scale="  103.950">  2  5  1 -1</clus>
</clustering>
</event>
<event>
10    2  0.1898324E-006  0.2390864E+03  0.7546771E-02  0.1120508E+00
         -1   -1    0    0    0  501 -0.00000000000E+00  0.00000000000E+00  0.80175766124E+03  0.80175766124E+03  0.00000000000E+00 0.  1.
          1   -1    0    0  502    0  0.00000000000E+00 -0.00000000000E+00 -0.47203223249E+03  0.47203223249E+03  0.00000000000E+00 0. -1.
         23    2    1    2    0    0  0.16254251827E+03 -0.13600738092E+03  0.68128013106E+03  0.71937822479E+03  0.91893065061E+02 0.  0.
         23    2    1    2    0    0 -0.17207894926E+03  0.14956556872E+03 -0.30178266779E+03  0.38961038453E+03  0.93501064323E+02 0.  0.
        -11    1    4    4    0    0 -0.66624812004E+02  0.11124232062E+02 -0.52308839461E+02  0.85433183245E+02  0.00000000000E+00 0.  1.
         11    1    4    4    0    0 -0.10545413725E+03  0.13844133666E+03 -0.24947382832E+03  0.30417720128E+03  0.00000000000E+00 0. -1.
        -13    1    3    3    0    0  0.14394930718E+03 -0.66244177333E+02  0.44944397670E+03  0.47656015597E+03  0.00000000000E+00 0. -1.
         13    1    3    3    0    0  0.18593211092E+02 -0.69763203588E+02  0.23183615437E+03  0.24281806882E+03  0.00000000000E+00 0.  1.
         21    1    1    2  502  503  0.20008512002E+02  0.96561660212E+01 -0.10322650350E+03  0.10559021318E+03  0.00000000000E+00 0. -1.
         21    1    1    2  503  501 -0.10472081015E+02 -0.23214353825E+02  0.53454468972E+02  0.59211071240E+02  0.00000000000E+00 0. -1.
<scales pt_clust_5="13000.00000" pt_clust_6="13000.00000" pt_clust_7="13000.00000" pt_clust_8="13000.00000" pt_clust_9="22.21671" pt_clust_10="25.33397"></scales>
<clustering>
<clus scale="   22.217">  2  9  1 -1</clus>
<clus scale="   25.334">  1 10  2 -1</clus>
<clus scale="   91.893">  7  8 -1 -1</clus>
<clus scale="   93.501">  5  6 -1 -1</clus>
<clus scale="  238.462">  1  7  2 -1</clus>
<clus scale="   22.217">  2  5  1 -1</clus>
</clustering>
</event>
<event>
10    2  0.1898324E-006  0.1071485E+03  0.7546771E-02  0.1272968E+00
          1   -1    0    0  503    0  0.00000000000E+00  0.00000000000E+00  0.95977288298E+03  0.95977288298E+03  0.00000000000E+00 0. -1.
         -1   -1    0    0    0  501 -0.00000000000E+00 -0.00000000000E+00 -0.33121774695E+02  0.33121774695E+02  0.00000000000E+00 0.  1.
         23    2    1    2    0    0 -0.52598598791E+02  0.39707571765E+02  0.15627626526E+03  0.18896502611E+03  0.83319902544E+02 0.  0.
         23    2    1    2    0    0  0.18563259584E+02  0.14021074056E+02  0.23787346343E+03  0.25845874745E+03  0.98366429248E+02 0.  0.
        -11    1    4    4    0    0  0.12668848633E+02  0.56500687916E+02  0.14622366367E+03  0.15727106307E+03  0.00000000000E+00 0.  1.
         11    1    4    4    0    0  0.58944109513E+01 -0.42479613861E+02  0.91649799758E+02  0.10118768438E+03  0.00000000000E+00 0. -1.
        -13    1    3    3    0    0  0.22452569781E+02  0.15658619226E+02  0.37795053608E+02  0.46666651081E+02  0.00000000000E+00 0. -1.
         13    1    3    3    0    0 -0.75051168572E+02  0.24048952539E+02  0.11848121165E+03  0.14229837503E+03  0.00000000000E+00 0.  1.
         21    1    1    2  502  501  0.66639753690E+02 -0.32454432957E+02  0.41828821018E+03  0.42480486551E+03  0.00000000000E+00 0. -1.
         21    1    1    2  503  502 -0.32604414483E+02 -0.21274212863E+02  0.11421316942E+03  0.12066601860E+03  0.00000000000E+00 0. -1.
<scales pt_clust_5="13000.00000" pt_clust_6="13000.00000" pt_clust_7="13000.00000" pt_clust_8="13000.00000" pt_clust_9="66.25780" pt_clust_10="38.93122"></scales>
<clustering>
<clus scale="   38.931">  1 10  2 -1</clus>
<clus scale="   66.258">  1  9  2 -1</clus>
<clus scale="   83.320">  7  8 -1 -1</clus>
<clus scale="   93.526">  2  7  1 -1</clus>
<clus scale="   98.366">  5  6 -1 -1</clus>
<clus scale="   38.931">  1  5  2 -1</clus>
</clustering>
</event>
<event>
10    2  0.1898324E-006  0.3288591E+03  0.7546771E-02  0.1071656E+00
         -1   -1    0    0    0  501 -0.00000000000E+00  0.00000000000E+00  0.15517733101E+04  0.15517733101E+04  0.00000000000E+00 0.  1.
          1   -1    0    0  502    0  0.00000000000E+00 -0.00000000000E+00 -0.20796841567E+03  0.20796841567E+03  0.00000000000E+00 0. -1.
         23    2    1    2    0    0  0.55893531717E+02  0.24817663305E+03  0.71048094391E+03  0.76016823327E+03  0.91415770719E+02 0.  0.
         23    2    1    2    0    0 -0.28680171199E+02 -0.40192195504E+03  0.16745522331E+03  0.44591758253E+03  0.91855475816E+02 0.  0.
        -13    1    4    4    0    0 -0.44329669199E+02 -0.30721234644E+03  0.91771372269E+02  0.32367658263E+03  0.00000000000E+00 0. -1.
         13    1    4    4    0    0  0.15649498000E+02 -0.94709608600E+02  0.75683851043E+02  0.12224099990E+03  0.00000000000E+00 0.  1.
        -13    1    3    3    0    0  0.65086045076E+02  0.11898266048E+03  0.28908768765E+03  0.31931921005E+03  0.00000000000E+00 0.  1.
         13    1    3    3    0    0 -0.91925133592E+01  0.12919397256E+03  0.42139325626E+03  0.44084902321E+03  0.00000000000E+00 0. -1.
         21    1    1    2  502  503  0.65717351818E+02  0.82504353266E+02  0.41367156265E+02  0.11330039830E+03  0.00000000000E+00 0.  1.
         21    1    1    2  503  501 -0.92930712336E+02  0.71240968722E+02  0.42450157099E+03  0.44035551171E+03  0.00000000000E+00 0.  1.
<scales pt_clust_5="13000.00000" pt_clust_6="13000.00000" pt_clust_7="13000.00000" pt_clust_8="13000.00000" pt_clust_9="105.47862" pt_clust_10="117.10625"></scales>
<clustering>
<clus scale="   91.416">  7  8 -1 -1</clus>
<clus scale="   91.855">  5  6 -1 -1</clus>
<clus scale="  105.479">  2  9  1 -1</clus>
<clus scale="  117.106">  1 10  2 -1</clus>
<clus scale="  328.737">  1  7  2 -1</clus>
<clus scale="  105.479">  2  5  1 -1</clus>
</clustering>
</event>
<event>
10    2  0.1898324E-006  0.1117456E+03  0.7546771E-02  0.1258932E+00
         -3   -1    0    0    0  501 -0.00000000000E+00  0.00000000000E+00  0.14512550949E+03  0.14512550949E+03  0.00000000000E+00 0.  1.
          3   -1    0    0  502    0  0.00000000000E+00 -0.00000000000E+00 -0.23671342540E+03  0.23671342540E+03  0.00000000000E+00 0. -1.
         23    2    1    2    0    0  0.66992390631E+02  0.63511431527E+02 -0.58540481865E+02  0.14343189705E+03  0.92865702689E+02 0.  0.
         23    2    1    2    0    0 -0.54161710265E+02  0.26770606783E+02 -0.39492161040E+02  0.11440407984E+03  0.88760951183E+02 0.  0.
        -13    1    4    4    0    0 -0.23495922170E+01 -0.27791506229E+02 -0.25662625802E+02  0.37900643334E+02  0.00000000000E+00 0.  1.
         13    1    4    4    0    0 -0.51812118048E+02  0.54562113012E+02 -0.13829535238E+02  0.76503436510E+02  0.00000000000E+00 0. -1.
        -13    1    3    3    0    0  0.67913225803E+02  0.14891804934E+02 -0.29718613865E+01  0.69590258322E+02  0.00000000000E+00 0.  1.
         13    1    3    3    0    0 -0.92083517250E+00  0.48619626593E+02 -0.55568620479E+02  0.73841638724E+02  0.00000000000E+00 0. -1.
         21    1    1    2  502  503 -0.32866498181E+02 -0.94247085594E+02 -0.61581373946E+01  0.10000321246E+03  0.00000000000E+00 0.  1.
         21    1    1    2  503  501  0.20035817815E+02  0.39650472836E+01  0.12602864383E+02  0.23999745543E+02  0.00000000000E+00 0.  1.
<scales pt_clust_5="13000.00000" pt_clust_6="13000.00000" pt_clust_7="13000.00000" pt_clust_8="13000.00000" pt_clust_9="96.20828" pt_clust_10="20.42439"></scales>
<clustering>
<clus scale="   20.424">  1 10  2 -1</clus>
<clus scale="   88.761">  5  6 -1 -1</clus>
<clus scale="   92.866">  7  8 -1 -1</clus>
<clus scale="   96.208">  1  9  2 -1</clus>
<clus scale="  108.358">  2  5  1 -1</clus>
<clus scale="  108.358">  2  5  1 -1</clus>
</clustering>
</event>
<event>
10    2  0.1898324E-006  0.1269473E+03  0.7546771E-02  0.1233044E+00
          2   -1    0    0  502    0  0.00000000000E+00  0.00000000000E+00  0.74170027638E+03  0.74170027638E+03  0.00000000000E+00 0. -1.
         -2   -1    0    0    0  501 -0.00000000000E+00 -0.00000000000E+00 -0.76073336468E+02  0.76073336468E+02  0.00000000000E+00 0.  1.
         23    2    1    2    0    0  0.36231899947E+02 -0.81096559772E+02  0.13908759795E+03  0.18603162058E+03  0.85866182942E+02 0.  0.
         23    2    1    2    0    0 -0.54265236658E+02  0.56507065814E+02  0.28112169746E+03  0.30525571577E+03  0.89520270493E+02 0.  0.
        -11    1    4    4    0    0 -0.29677233535E+02 -0.91198097344E+01  0.25425586422E+02  0.40129410222E+02  0.00000000000E+00 0.  1.
         11    1    4    4    0    0 -0.24588003123E+02  0.65626875549E+02  0.25569611104E+03  0.26512630555E+03  0.00000000000E+00 0. -1.
        -13    1    3    3    0    0  0.50838241440E+02 -0.45887871457E+02  0.12986023197E+03  0.14681247695E+03  0.00000000000E+00 0.  1.
         13    1    3    3    0    0 -0.14606341493E+02 -0.35208688314E+02  0.92273659763E+01  0.39219143635E+02  0.00000000000E+00 0. -1.
         21    1    1    2  502  503 -0.48729525801E+01  0.53166127588E+02  0.27454739822E+03  0.27969028703E+03  0.00000000000E+00 0.  1.
         21    1    1    2  503  501  0.22906289291E+02 -0.28576633631E+02 -0.29129753717E+02  0.46795989468E+02  0.00000000000E+00 0.  1.
<scales pt_clust_5="13000.00000" pt_clust_6="13000.00000" pt_clust_7="13000.00000" pt_clust_8="13000.00000" pt_clust_9="51.34589" pt_clust_10="36.62406"></scales>
<clustering>
<clus scale="   36.624">  2 10  1 -1</clus>
<clus scale="   51.346">  1  9  2 -1</clus>
<clus scale="   85.866">  7  8 -1 -1</clus>
<clus scale="   89.520">  5  6 -1 -1</clus>
<clus scale="  124.397">  2  7  1 -1</clus>
<clus scale="   51.346">  1  5  2 -1</clus>
</clustering>
</event>
<event>
10    2  0.1898324E-006  0.1208916E+03  0.7546771E-02  0.1242354E+00
          1   -1    0    0  502    0  0.00000000000E+00  0.00000000000E+00  0.31163282933E+03  0.31163282933E+03  0.00000000000E+00 0. -1.
         -1   -1    0    0    0  501 -0.00000000000E+00 -0.00000000000E+00 -0.17944948880E+03  0.17944948880E+03  0.00000000000E+00 0.  1.
         23    2    1    2    0    0 -0.10255425418E+03  0.43804341103E+02 -0.58346682348E+02  0.15539320662E+03  0.91140100801E+02 0.  0.
         23    2    1    2    0    0  0.10299740851E+02 -0.69270691326E+02  0.10138529704E+03  0.15188790486E+03  0.88805652124E+02 0.  0.
        -11    1    3    3    0    0 -0.28306998718E+02 -0.35373954861E+01  0.22128046073E+02  0.36103320710E+02  0.00000000000E+00 0.  1.
         11    1    3    3    0    0 -0.74247255459E+02  0.47341736589E+02 -0.80474728421E+02  0.11928988591E+03  0.00000000000E+00 0. -1.
        -13    1    4    4    0    0 -0.10299951144E+02 -0.23602866642E+02 -0.11637075093E+02  0.28259614718E+02  0.00000000000E+00 0.  1.
         13    1    4    4    0    0  0.20599691996E+02 -0.45667824684E+02  0.11302237213E+03  0.12362829014E+03  0.00000000000E+00 0. -1.
         21    1    1    2  502  503  0.40255475627E+02  0.33618987187E+01  0.11483491681E+03  0.12173275565E+03  0.00000000000E+00 0. -1.
         21    1    1    2  503  501  0.51999037699E+02  0.22104451504E+02 -0.25690190962E+02  0.62068451000E+02  0.00000000000E+00 0. -1.
<scales pt_clust_5="13000.00000" pt_clust_6="13000.00000" pt_clust_7="13000.00000" pt_clust_8="13000.00000" pt_clust_9="40.39561" pt_clust_10="60.12296"></scales>
<clustering>
<clus scale="   40.396">  1  9  2 -1</clus>
<clus scale="   60.123">  2 10  1 -1</clus>
<clus scale="   88.806">  7  8 -1 -1</clus>
<clus scale="   91.140">  5  6 -1 -1</clus>
<clus scale="  119.141">  1  7  2 -1</clus>
<clus scale="   40.396">  1  5  2 -1</clus>
</clustering>
</event>
<event>
10    2  0.1898324E-006  0.1811903E+03  0.7546771E-02  0.1194777E+00
         -2   -1    0    0    0  501 -0.00000000000E+00  0.00000000000E+00  0.16598633577E+03  0.16598633577E+03  0.00000000000E+00 0.  1.
          2   -1    0    0  502    0  0.00000000000E+00 -0.00000000000E+00 -0.48594371661E+03  0.48594371661E+03  0.00000000000E+00 0. -1.
         23    2    1    2    0    0  0.14174953611E+03 -0.89898947235E+02 -0.17995332015E+03  0.26405402276E+03  0.95742246680E+02 0.  0.
         23    2    1    2    0    0 -0.31732841626E+02  0.64254458037E+01 -0.91461607456E+02  0.13355284198E+03  0.91776229885E+02 0.  0.
        -13    1    4    4    0    0 -0.51163805902E+02  0.34278848032E+02 -0.46308902691E+02  0.77053805391E+02  0.00000000000E+00 0.  1.
         13    1    4    4    0    0  0.19430964275E+02 -0.27853402228E+02 -0.45152704765E+02  0.56499036593E+02  0.00000000000E+00 0. -1.
        -13    1    3    3    0    0  0.14959154241E+03 -0.59576414895E+02 -0.15952241882E+03  0.22665917339E+03  0.00000000000E+00 0. -1.
         13    1    3    3    0    0 -0.78420063025E+01 -0.30322532340E+02 -0.20430901326E+02  0.37394849369E+02  0.00000000000E+00 0.  1.
         21    1    1    2  502  503 -0.12825245649E+03  0.69812347602E+02 -0.11384666512E+03  0.18515809362E+03  0.00000000000E+00 0.  1.
         21    1    1    2  503  501  0.18235762008E+02  0.13661153829E+02  0.65304211896E+02  0.69165094023E+02  0.00000000000E+00 0.  1.
<scales pt_clust_5="13000.00000" pt_clust_6="13000.00000" pt_clust_7="13000.00000" pt_clust_8="13000.00000" pt_clust_9="153.82890" pt_clust_10="22.78531"></scales>
<clustering>
<clus scale="   22.785">  1 10  2 -1</clus>
<clus scale="   91.776">  5  6 -1 -1</clus>
<clus scale="   95.742">  7  8 -1 -1</clus>
<clus scale="   96.361">  2  5  1 -1</clus>
<clus scale="  153.829">  1  9  2 -1</clus>
<clus scale="   96.361">  2  5  1 -1</clus>
</clustering>
</event>
<event>
10    2  0.1898324E-006  0.1191879E+03  0.7546771E-02  0.1262362E+00
         -3   -1    0    0    0  501 -0.00000000000E+00  0.00000000000E+00  0.20096759225E+03  0.20096759225E+03  0.00000000000E+00 0.  1.
          3   -1    0    0  502    0  0.00000000000E+00 -0.00000000000E+00 -0.16218638207E+03  0.16218638207E+03  0.00000000000E+00 0. -1.
         23    2    1    2    0    0 -0.14297582862E+02 -0.16883588574E+02 -0.99064429209E+01  0.86628375039E+02  0.83167669870E+02 0.  0.
         23    2    1    2    0    0 -0.15593404910E+01 -0.13382654106E+02 -0.47881409864E+02  0.12894530416E+03  0.11896526838E+03 0.  0.
        -11    1    4    4    0    0  0.21709873729E+01 -0.63138614735E+02 -0.53848168453E+01  0.63405000665E+02  0.00000000000E+00 0. -1.
         11    1    4    4    0    0 -0.37303278638E+01  0.49755960629E+02 -0.42496593019E+02  0.65540303496E+02  0.00000000000E+00 0.  1.
        -13    1    3    3    0    0  0.33021341118E+02  0.50801719018E+01 -0.83491121772E+01  0.34437258746E+02  0.00000000000E+00 0.  1.
         13    1    3    3    0    0 -0.47318923980E+02 -0.21963760476E+02 -0.15573307437E+01  0.52191116293E+02  0.00000000000E+00 0. -1.
         21    1    1    2  502  503 -0.12986085996E+02  0.21121963130E+02 -0.16991327235E+02  0.30057959964E+02  0.00000000000E+00 0. -1.
         21    1    1    2  503  501  0.28843009349E+02  0.91442795509E+01  0.11356039021E+03  0.11752233516E+03  0.00000000000E+00 0.  1.
<scales pt_clust_5="13000.00000" pt_clust_6="13000.00000" pt_clust_7="13000.00000" pt_clust_8="13000.00000" pt_clust_9="24.79467" pt_clust_10="30.17415"></scales>
<clustering>
<clus scale="   24.795">  2  9  1 -1</clus>
<clus scale="   30.174">  1 10  2 -1</clus>
<clus scale="   83.168">  7  8 -1 -1</clus>
<clus scale="   83.486">  1  7  2 -1</clus>
<clus scale="  118.965">  5  6 -1 -1</clus>
<clus scale="   24.795">  2  5  1 -1</clus>
</clustering>
</event>
<event>
10    2  0.1898324E-006  0.1975901E+03  0.7546771E-02  0.1155641E+00
          1   -1    0    0  502    0  0.00000000000E+00  0.00000000000E+00  0.80561087560E+03  0.80561087560E+03  0.00000000000E+00 0. -1.
         -1   -1    0    0    0  501 -0.00000000000E+00 -0.00000000000E+00 -0.17785853436E+03  0.17785853436E+03  0.00000000000E+00 0.  1.
         23    2    1    2    0    0 -0.13691434034E+03  0.92366091227E+02 -0.16265305844E+02  0.18772350223E+03  0.87741220172E+02 0.  0.
         23    2    1    2    0    0  0.11229836874E+03 -0.41459124741E+02  0.18944646783E+03  0.25376181548E+03  0.11906012001E+03 0.  0.
        -11    1    4    4    0    0  0.37424561416E+02 -0.66940246049E+02  0.44569086924E+02  0.88701735313E+02  0.00000000000E+00 0. -1.
         11    1    4    4    0    0  0.74873807319E+02  0.25481121308E+02  0.14487738091E+03  0.16506008017E+03  0.00000000000E+00 0.  1.
        -13    1    3    3    0    0 -0.96640986479E+02  0.42550802832E+02  0.28740702453E+02  0.10943527341E+03  0.00000000000E+00 0.  1.
         13    1    3    3    0    0 -0.40273353859E+02  0.49815288395E+02 -0.45006008297E+02  0.78288228820E+02  0.00000000000E+00 0. -1.
         21    1    1    2  502  503  0.13214260671E+02 -0.10840541349E+03  0.46905731289E+03  0.48160265067E+03  0.00000000000E+00 0. -1.
         21    1    1    2  503  501  0.11401710931E+02  0.57498447001E+02 -0.14486133630E+02  0.60381441580E+02  0.00000000000E+00 0.  1.
<scales pt_clust_5="13000.00000" pt_clust_6="13000.00000" pt_clust_7="13000.00000" pt_clust_8="13000.00000" pt_clust_9="106.72304" pt_clust_10="58.61800"></scales>
<clustering>
<clus scale="   58.618">  2 10  1 -1</clus>
<clus scale="   87.741">  7  8 -1 -1</clus>
<clus scale="  106.723">  1  9  2 -1</clus>
<clus scale="  119.060">  5  6 -1 -1</clus>
<clus scale="  180.458">  2  7  1 -1</clus>
<clus scale="  106.723">  1  5  2 -1</clus>
</clustering>
</event>
<event>
10    2  0.1898324E-006  0.2937292E+03  0.7546771E-02  0.1088502E+00
         -1   -1    0    0    0  501 -0.00000000000E+00  0.00000000000E+00  0.14708838233E+03  0.14708838233E+03  0.00000000000E+00 0.  1.
          1   -1    0    0  502    0  0.00000000000E+00 -0.00000000000E+00 -0.96860313196E+03  0.96860313196E+03  0.00000000000E+00 0. -1.
         23    2    1    2    0    0 -0.10516894204E+03  0.25365846939E+03 -0.11565775610E+03  0.31171047458E+03  0.91561880471E+02 0.  0.
         23    2    1    2    0    0  0.13955612854E+03 -0.25723514556E+03 -0.55028890176E+03  0.62965464375E+03  0.89449772938E+02 0.  0.
        -11    1    4    4    0    0  0.10483876594E+03 -0.23428874560E+03 -0.41361129097E+03  0.48678196678E+03  0.00000000000E+00 0.  1.
         11    1    4    4    0    0  0.34717362598E+02 -0.22946399963E+02 -0.13667761078E+03  0.14287267698E+03  0.00000000000E+00 0. -1.
        -11    1    3    3    0    0 -0.88020475742E+02  0.15194161248E+03 -0.11243523624E+03  0.20850788978E+03  0.00000000000E+00 0. -1.
         11    1    3    3    0    0 -0.17148466302E+02  0.10171685691E+03 -0.32225198648E+01  0.10320258480E+03  0.00000000000E+00 0.  1.
         21    1    1    2  502  503  0.71639805239E+01  0.19851184205E+02 -0.10404991847E+03  0.10616862844E+03  0.00000000000E+00 0. -1.
         21    1    1    2  503  501 -0.41551167017E+02 -0.16274508031E+02 -0.51518173307E+02  0.68157767518E+02  0.00000000000E+00 0. -1.
<scales pt_clust_5="13000.00000" pt_clust_6="13000.00000" pt_clust_7="13000.00000" pt_clust_8="13000.00000" pt_clust_9="21.10432" pt_clust_10="43.67455"></scales>
<clustering>
<clus scale="   21.104">  2  9  1 -1</clus>
<clus scale="   43.675">  2 10  1 -1</clus>
<clus scale="   89.450">  5  6 -1 -1</clus>
<clus scale="   91.562">  7  8 -1 -1</clus>
<clus scale="  293.078">  2  5  1 -1</clus>
<clus scale="   21.104">  2  5  1 -1</clus>
</clustering>
</event>
<event>
10    2  0.1898324E-006  0.9717742E+02  0.7546771E-02  0.1287511E+00
         -2   -1    0    0    0  501 -0.00000000000E+00  0.00000000000E+00  0.46478440604E+02  0.46478440604E+02  0.00000000000E+00 0.  1.
          2   -1    0    0  502    0  0.00000000000E+00 -0.00000000000E+00 -0.59236855776E+03  0.59236855776E+03  0.00000000000E+00 0. -1.
         23    2    1    2    0    0  0.31386014026E+02  0.12031108216E+02 -0.79620042940E+02  0.12386290585E+03  0.88729018735E+02 0.  0.
         23    2    1    2    0    0  0.14574785111E+02 -0.40865556592E+02 -0.35709899872E+03  0.37105281941E+03  0.90983964662E+02 0.  0.
        -13    1    3    3    0    0  0.31101152367E+02  0.42511796951E+02 -0.18973484349E+02  0.55986852626E+02  0.00000000000E+00 0.  1.
         13    1    3    3    0    0  0.28486165974E+00 -0.30480688735E+02 -0.60646558591E+02  0.67876053221E+02  0.00000000000E+00 0. -1.
        -13    1    4    4    0    0 -0.37865637495E+02 -0.26142350576E+02 -0.14895003829E+03  0.15589529468E+03  0.00000000000E+00 0.  1.
         13    1    4    4    0    0  0.52440422606E+02 -0.14723206016E+02 -0.20814896043E+03  0.21515752472E+03  0.00000000000E+00 0. -1.
         21    1    1    2  502  503 -0.73539378228E+01  0.46053368800E+02 -0.79895657699E+02  0.92511130674E+02  0.00000000000E+00 0. -1.
         21    1    1    2  503  501 -0.38606861315E+02 -0.17218920424E+02 -0.29275417798E+02  0.51420142439E+02  0.00000000000E+00 0.  1.
<scales pt_clust_5="13000.00000" pt_clust_6="13000.00000" pt_clust_7="13000.00000" pt_clust_8="13000.00000" pt_clust_9="45.28048" pt_clust_10="42.27270"></scales>
<clustering>
<clus scale="   42.273">  1 10  2 -1</clus>
<clus scale="   45.280">  1  9  2 -1</clus>
<clus scale="   88.729">  5  6 -1 -1</clus>
<clus scale="   90.984">  7  8 -1 -1</clus>
<clus scale="   95.069">  1  5  2 -1</clus>
<clus scale="   97.177">  2  5  1 -1</clus>
</clustering>
</event>
<event>
10    2  0.1898324E-006  0.9507657E+02  0.7546771E-02  0.1291503E+00
         -1   -1    0    0    0  501 -0.00000000000E+00  0.00000000000E+00  0.20646247182E+03  0.20646247182E+03  0.00000000000E+00 0.  1.
          1   -1    0    0  502    0  0.00000000000E+00 -0.00000000000E+00 -0.13238227836E+03  0.13238227836E+03  0.00000000000E+00 0. -1.
         23    2    1    2    0    0 -0.20130924061E-02 -0.95743909477E+01  0.79269452154E+02  0.12126122908E+03  0.91263194477E+02 0.  0.
         23    2    1    2    0    0  0.70765527497E+02  0.19151774614E+02  0.37223521550E+02  0.12215518727E+03  0.90342397955E+02 0.  0.
        -11    1    4    4    0    0  0.44947672183E+02 -0.34444417886E+02  0.14339673164E+02  0.58415215352E+02  0.00000000000E+00 0.  1.
         11    1    4    4    0    0  0.25817855314E+02  0.53596192500E+02  0.22883848386E+02  0.63739971921E+02  0.00000000000E+00 0. -1.
        -11    1    3    3    0    0  0.28602510537E+01 -0.37870261148E+02  0.10070486831E+01  0.37991470919E+02  0.00000000000E+00 0.  1.
         11    1    3    3    0    0 -0.28622641461E+01  0.28295870201E+02  0.78262403471E+02  0.83269758157E+02  0.00000000000E+00 0. -1.
         21    1    1    2  502  503 -0.20358989112E+02  0.85216907441E+01 -0.34978295095E+02  0.41359264725E+02  0.00000000000E+00 0. -1.
         21    1    1    2  503  501 -0.50404525293E+02 -0.18099074410E+02 -0.74344851460E+01  0.54069069105E+02  0.00000000000E+00 0. -1.
<scales pt_clust_5="13000.00000" pt_clust_6="13000.00000" pt_clust_7="13000.00000" pt_clust_8="13000.00000" pt_clust_9="22.07052" pt_clust_10="59.07036"></scales>
<clustering>
<clus scale="   22.071">  2  9  1 -1</clus>
<clus scale="   59.070">  2 10  1 -1</clus>
<clus scale="   90.342">  5  6 -1 -1</clus>
<clus scale="   91.263">  7  8 -1 -1</clus>
<clus scale="   94.193">  2  5  1 -1</clus>
<clus scale="   22.071">  2  5  1 -1</clus>
</clustering>
</event>
<event>
10    2  0.1898324E-006  0.9372128E+02  0.7546771E-02  0.1295740E+00
         -1   -1    0    0    0  501 -0.00000000000E+00  0.00000000000E+00  0.55446824608E+02  0.55446824608E+02  0.00000000000E+00 0.  1.
          1   -1    0    0  502    0  0.00000000000E+00 -0.00000000000E+00 -0.53602521068E+03  0.53602521068E+03  0.00000000000E+00 0. -1.
         23    2    1    2    0    0  0.11529611357E+02  0.21448082898E+02 -0.97335246963E+02  0.13532757187E+03  0.90809962052E+02 0.  0.
         23    2    1    2    0    0  0.29183524230E+02  0.65397997097E+02 -0.21530022448E+03  0.24331940977E+03  0.87872478056E+02 0.  0.
        -11    1    3    3    0    0  0.38381040428E+02 -0.40359802810E+01 -0.91142857646E+01  0.39654301231E+02  0.00000000000E+00 0.  1.
         11    1    3    3    0    0 -0.26851429070E+02  0.25484063179E+02 -0.88220961199E+02  0.95673270635E+02  0.00000000000E+00 0. -1.
        -11    1    4    4    0    0  0.39579871185E+02  0.27130863360E+01 -0.13618927920E+03  0.14185008569E+03  0.00000000000E+00 0. -1.
         11    1    4    4    0    0 -0.10396346955E+02  0.62684910761E+02 -0.79110945284E+02  0.10146932409E+03  0.00000000000E+00 0.  1.
         21    1    1    2  502  503 -0.21650431047E+02 -0.36881664564E+02 -0.15067817307E+03  0.15662985087E+03  0.00000000000E+00 0.  1.
         21    1    1    2  503  501 -0.19062704540E+02 -0.49964415431E+02 -0.17264741558E+02  0.56195202774E+02  0.00000000000E+00 0.  1.
<scales pt_clust_5="13000.00000" pt_clust_6="13000.00000" pt_clust_7="13000.00000" pt_clust_8="13000.00000" pt_clust_9="42.76679" pt_clust_10="57.53280"></scales>
<clustering>
<clus scale="   42.767">  2  9  1 -1</clus>
<clus scale="   57.533">  1 10  2 -1</clus>
<clus scale="   87.872">  7  8 -1 -1</clus>
<clus scale="   90.810">  5  6 -1 -1</clus>
<clus scale="   90.878">  2  7  1 -1</clus>
<clus scale="   42.767">  2  5  1 -1</clus>
</clustering>
</event>
<event>
10    2  0.1898324E-006  0.1256327E+03  0.7546771E-02  0.1234267E+00
         -2   -1    0    0    0  501 -0.00000000000E+00  0.00000000000E+00  0.37874284103E+03  0.37874284103E+03  0.00000000000E+00 0.  1.
          2   -1    0    0  502    0  0.00000000000E+00 -0.00000000000E+00 -0.35810613670E+03  0.35810613670E+03  0.00000000000E+00 0. -1.
         23    2    1    2    0    0 -0.54984823481E+01  0.16483409421E+02  0.12807538878E+03  0.15824964129E+03  0.91311048957E+02 0.  0.
         23    2    1    2    0    0 -0.77335839780E+02 -0.87476790558E+02 -0.18142312393E+03  0.23402326269E+03  0.90661549640E+02 0.  0.
        -11    1    3    3    0    0 -0.19340354598E+00  0.45548479613E+02  0.11887871567E+03  0.12730612884E+03  0.00000000000E+00 0.  1.
         11    1    3    3    0    0 -0.53050788022E+01 -0.29065070192E+02  0.91966731090E+01  0.30943512448E+02  0.00000000000E+00 0. -1.
        -13    1    4    4    0    0 -0.25758377288E+02  0.17200757808E+02 -0.42571462334E+02  0.52646837274E+02  0.00000000000E+00 0.  1.
         13    1    4    4    0    0 -0.51577462492E+02 -0.10467754837E+03 -0.13885166159E+03  0.18137642542E+03  0.00000000000E+00 0. -1.
         21    1    1    2  502  503  0.16370943842E+02  0.13326289997E+02 -0.12512309819E+03  0.12689124283E+03  0.00000000000E+00 0. -1.
         21    1    1    2  503  501  0.66463378287E+02  0.57667091140E+02  0.19910753767E+03  0.21768483092E+03  0.00000000000E+00 0.  1.
<scales pt_clust_5="13000.00000" pt_clust_6="13000.00000" pt_clust_7="13000.00000" pt_clust_8="13000.00000" pt_clust_9="21.10919" pt_clust_10="88.83798"></scales>
<clustering>
<clus scale="   21.109">  2  9  1 -1</clus>
<clus scale="   88.838">  1 10  2 -1</clus>
<clus scale="   90.662">  7  8 -1 -1</clus>
<clus scale="   91.311">  5  6 -1 -1</clus>
<clus scale="  125.161">  2  7  1 -1</clus>
<clus scale="   21.109">  2  5  1 -1</clus>
</clustering>
</event>
<event>
10    2  0.1898324E-006  0.1725303E+03  0.7546771E-02  0.1184739E+00
         -1   -1    0    0    0  501 -0.00000000000E+00  0.00000000000E+00  0.55681836705E+03  0.55681836705E+03  0.00000000000E+00 0.  1.
          1   -1    0    0  502    0  0.00000000000E+00 -0.00000000000E+00 -0.37769658181E+03  0.37769658181E+03  0.00000000000E+00 0. -1.
         23    2    1    2    0    0 -0.70879886887E+02 -0.10799927362E+03  0.40416922890E+03  0.43419336877E+03  0.92104909899E+02 0.  0.
         23    2    1    2    0    0 -0.98829784489E+02  0.10003200466E+03 -0.81199178016E+01  0.16790695291E+03  0.91395205082E+02 0.  0.
        -13    1    4    4    0    0 -0.14368385309E+02 -0.17580841759E+02 -0.39660907600E+01  0.23049216239E+02  0.00000000000E+00 0. -1.
         13    1    4    4    0    0 -0.84461399180E+02  0.11761284642E+03 -0.41538270416E+01  0.14485773667E+03  0.00000000000E+00 0.  1.
        -13    1    3    3    0    0 -0.87909303902E+02 -0.90674297273E+02  0.27304697790E+03  0.30083970157E+03  0.00000000000E+00 0.  1.
         13    1    3    3    0    0  0.17029417016E+02 -0.17324976345E+02  0.13112225100E+03  0.13335366721E+03  0.00000000000E+00 0. -1.
         21    1    1    2  502  503  0.15383563343E+03 -0.18258950907E+02 -0.24564161119E+03  0.29041107512E+03  0.00000000000E+00 0. -1.
         21    1    1    2  503  501  0.15874037941E+02  0.26226219865E+02  0.28714085337E+02  0.42003552060E+02  0.00000000000E+00 0. -1.
<scales pt_clust_5="13000.00000" pt_clust_6="13000.00000" pt_clust_7="13000.00000" pt_clust_8="13000.00000" pt_clust_9="146.33399" pt_clust_10="30.65615"></scales>
<clustering>
<clus scale="   30.656">  1 10  2 -1</clus>
<clus scale="   91.395">  5  6 -1 -1</clus>
<clus scale="   92.105">  7  8 -1 -1</clus>
<clus scale="  139.340">  1  7  2 -1</clus>
<clus scale="  146.334">  2  9  1 -1</clus>
<clus scale="  146.334">  2  5  1 -1</clus>
</clustering>
</event>
<event>
10    2  0.1898324E-006  0.1805199E+03  0.7546771E-02  0.1170663E+00
         -1   -1    0    0    0  501 -0.00000000000E+00  0.00000000000E+00  0.15152113389E+03  0.15152113389E+03  0.00000000000E+00 0.  1.
          1   -1    0    0  502    0  0.00000000000E+00 -0.00000000000E+00 -0.15177851278E+04  0.15177851278E+04  0.00000000000E+00 0. -1.
         23    2    1    2    0    0 -0.12615984508E+03  0.93660204939E+02  0.38532901774E+01  0.19515795490E+03  0.11568594995E+03 0.  0.
         23    2    1    2    0    0  0.18198703997E+03  0.13811965365E+02 -0.22659091155E+03  0.30558579261E+03  0.93430093335E+02 0.  0.
        -13    1    3    3    0    0 -0.21474830176E+02  0.87638433394E+02  0.56821845779E-01  0.90231184008E+02  0.00000000000E+00 0. -1.
         13    1    3    3    0    0 -0.10468501491E+03  0.60217715453E+01  0.37964683317E+01  0.10492677090E+03  0.00000000000E+00 0.  1.
        -13    1    4    4    0    0  0.93048669186E+02 -0.27939359402E+02 -0.66438942610E+02  0.11769790031E+03  0.00000000000E+00 0.  1.
         13    1    4    4    0    0  0.88938370789E+02  0.41751324768E+02 -0.16015196894E+03  0.18788789231E+03  0.00000000000E+00 0. -1.
         21    1    1    2  502  503 -0.98464885964E+02 -0.10310303339E+03 -0.10932036404E+04  0.11024607788E+04  0.00000000000E+00 0.  1.
         21    1    1    2  503  501  0.42637691073E+02 -0.43691369149E+01 -0.50322732090E+02  0.66101735397E+02  0.00000000000E+00 0. -1.
<scales pt_clust_5="13000.00000" pt_clust_6="13000.00000" pt_clust_7="13000.00000" pt_clust_8="13000.00000" pt_clust_9="141.72483" pt_clust_10="42.86096"></scales>
<clustering>
<clus scale="   42.861">  1 10  2 -1</clus>
<clus scale="   93.430">  7  8 -1 -1</clus>
<clus scale="  115.686">  5  6 -1 -1</clus>
<clus scale="  141.725">  2  9  1 -1</clus>
<clus scale="  167.133">  2  7  1 -1</clus>
<clus scale="  141.725">  2  5  1 -1</clus>
</clustering>
</event>
<event>
10    2  0.1898324E-006  0.1106601E+03  0.7546771E-02  0.1259443E+00
          1   -1    0    0  502    0  0.00000000000E+00  0.00000000000E+00  0.19579407563E+03  0.19579407563E+03  0.00000000000E+00 0. -1.
         -1   -1    0    0    0  501 -0.00000000000E+00 -0.00000000000E+00 -0.28855503206E+03  0.28855503206E+03  0.00000000000E+00 0.  1.
         23    2    1    2    0    0  0.88598755291E+02  0.23945766922E+02 -0.72749540573E+02  0.14819663346E+03  0.90810832624E+02 0.  0.
         23    2    1    2    0    0 -0.28383702313E+02 -0.96607544388E+01  0.10819554055E+03  0.14455334597E+03  0.91051799013E+02 0.  0.
        -13    1    3    3    0    0  0.90308188817E+01 -0.18890327548E+02  0.12147571102E+02  0.24206686023E+02  0.00000000000E+00 0. -1.
         13    1    3    3    0    0  0.79567936409E+02  0.42836094470E+02 -0.84897111675E+02  0.12398994743E+03  0.00000000000E+00 0.  1.
        -13    1    4    4    0    0 -0.23642953739E+01  0.39622612319E+02  0.38284754586E+02  0.55147653924E+02  0.00000000000E+00 0. -1.
         13    1    4    4    0    0 -0.26019406940E+02 -0.49283366758E+02  0.69910785964E+02  0.89405692048E+02  0.00000000000E+00 0.  1.
         21    1    1    2  502  503 -0.24846571157E+02 -0.29578801472E+02  0.16384766087E+02  0.41960912223E+02  0.00000000000E+00 0.  1.
         21    1    1    2  503  501 -0.35368481820E+02  0.15293788989E+02 -0.14459172249E+03  0.14963821604E+03  0.00000000000E+00 0.  1.
<scales pt_clust_5="13000.00000" pt_clust_6="13000.00000" pt_clust_7="13000.00000" pt_clust_8="13000.00000" pt_clust_9="39.76811" pt_clust_10="38.53349"></scales>
<clustering>
<clus scale="   38.533">  2 10  1 -1</clus>
<clus scale="   39.768">  1  9  2 -1</clus>
<clus scale="   90.811">  5  6 -1 -1</clus>
<clus scale="   91.052">  7  8 -1 -1</clus>
<clus scale="  110.462">  2  5  1 -1</clus>
<clus scale="   39.768">  1  5  2 -1</clus>
</clustering>
</event>
<event>
10    2  0.1898324E-006  0.1772105E+03  0.7546771E-02  0.1191138E+00
         -1   -1    0    0    0  501 -0.00000000000E+00  0.00000000000E+00  0.21287029337E+03  0.21287029337E+03  0.00000000000E+00 0.  1.
          1   -1    0    0  502    0  0.00000000000E+00 -0.00000000000E+00 -0.70307389577E+03  0.70307389577E+03  0.00000000000E+00 0. -1.
         23    2    1    2    0    0 -0.14074991637E+03  0.11828209751E+03 -0.80483063324E+02  0.22083454192E+03  0.92136734672E+02 0.  0.
         23    2    1    2    0    0  0.77245863235E+02  0.27589713656E+02 -0.59111208421E+02  0.13714453542E+03  0.92662683685E+02 0.  0.
        -11    1    3    3    0    0 -0.38751122146E+02  0.91302088176E+02 -0.49629656100E+02  0.11090907780E+03  0.00000000000E+00 0. -1.
         11    1    3    3    0    0 -0.10199879422E+03  0.26980009330E+02 -0.30853407224E+02  0.10992546413E+03  0.00000000000E+00 0.  1.
        -13    1    4    4    0    0  0.21201240751E+02 -0.29090799613E+02  0.29585270601E+01  0.36118141063E+02  0.00000000000E+00 0.  1.
         13    1    4    4    0    0  0.56044622483E+02  0.56680513269E+02 -0.62069735482E+02  0.10102639436E+03  0.00000000000E+00 0. -1.
         21    1    1    2  502  503 -0.47456170536E+02 -0.59293846429E+02 -0.40126284335E+03  0.40838672578E+03  0.00000000000E+00 0. -1.
         21    1    1    2  503  501  0.11096022367E+03 -0.86577964734E+02  0.50653512697E+02  0.14957838601E+03  0.00000000000E+00 0.  1.
<scales pt_clust_5="13000.00000" pt_clust_6="13000.00000" pt_clust_7="13000.00000" pt_clust_8="13000.00000" pt_clust_9="75.94635" pt_clust_10="151.37493"></scales>
<clustering>
<clus scale="   75.946">  2  9  1 -1</clus>
<clus scale="   92.137">  5  6 -1 -1</clus>
<clus scale="   92.663">  7  8 -1 -1</clus>
<clus scale="  111.580">  2  7  1 -1</clus>
<clus scale="  151.375">  1 10  2 -1</clus>
<clus scale="   75.946">  2  5  1 -1</clus>
</clustering>
</event>
<event>
10    2  0.1898324E-006  0.1148426E+03  0.7546771E-02  0.1252100E+00
         -2   -1    0    0    0  501 -0.00000000000E+00  0.00000000000E+00  0.17670889192E+03  0.17670889192E+03  0.00000000000E+00 0.  1.
          2   -1    0    0  502    0  0.00000000000E+00 -0.00000000000E+00 -0.35775946101E+03  0.35775946101E+03  0.00000000000E+00 0. -1.
         23    2    1    2    0    0  0.67853786293E+02  0.12176232977E+02  0.10904247564E+03  0.15766827784E+03  0.90645614223E+02 0.  0.
         23    2    1    2    0    0 -0.65708032853E+02 -0.76826075115E+02 -0.14803220875E+03  0.20055513909E+03  0.89939077098E+02 0.  0.
        -11    1    4    4    0    0 -0.63496641624E+02 -0.37396523619E+02 -0.36494296669E+02  0.82232336496E+02  0.00000000000E+00 0.  1.
         11    1    4    4    0    0 -0.22113912296E+01 -0.39429551497E+02 -0.11153791208E+03  0.11832280259E+03  0.00000000000E+00 0. -1.
        -11    1    3    3    0    0  0.42993188405E+02  0.44174366452E+02  0.97819616262E+02  0.11562208364E+03  0.00000000000E+00 0.  1.
         11    1    3    3    0    0  0.24860597888E+02 -0.31998133475E+02  0.11222859379E+02  0.42046194190E+02  0.00000000000E+00 0. -1.
         21    1    1    2  502  503  0.28589926249E+02 -0.24804282934E+01 -0.26196391875E+02  0.38855982226E+02  0.00000000000E+00 0.  1.
         21    1    1    2  503  501 -0.30735679689E+02  0.67130270432E+02 -0.11586444411E+03  0.13738895379E+03  0.00000000000E+00 0.  1.
<scales pt_clust_5="13000.00000" pt_clust_6="13000.00000" pt_clust_7="13000.00000" pt_clust_8="13000.00000" pt_clust_9="28.69732" pt_clust_10="69.00783"></scales>
<clustering>
<clus scale="   28.697">  2  9  1 -1</clus>
<clus scale="   69.008">  2 10  1 -1</clus>
<clus scale="   89.939">  5  6 -1 -1</clus>
<clus scale="   90.646">  7  8 -1 -1</clus>
<clus scale="  114.286">  2  5  1 -1</clus>
<clus scale="   28.697">  2  5  1 -1</clus>
</clustering>
</event>
<event>
10    2  0.1898324E-006  0.2244130E+03  0.7546771E-02  0.1166845E+00
          1   -1    0    0  502    0  0.00000000000E+00  0.00000000000E+00  0.51528673263E+03  0.51528673263E+03  0.00000000000E+00 0. -1.
         -1   -1    0    0    0  501 -0.00000000000E+00 -0.00000000000E+00 -0.20017239564E+03  0.20017239564E+03  0.00000000000E+00 0.  1.
         23    2    1    2    0    0 -0.17796863696E+03  0.13291077864E+03  0.25843574665E+03  0.35317406605E+03  0.92761926271E+02 0.  0.
         23    2    1    2    0    0 -0.34782256461E+01 -0.27356938432E+02  0.72129232140E+02  0.11952205918E+03  0.91227169024E+02 0.  0.
        -11    1    4    4    0    0  0.38124821862E+02 -0.31627377096E+02  0.21898839607E+02  0.54160430206E+02  0.00000000000E+00 0.  1.
         11    1    4    4    0    0 -0.41603047508E+02  0.42704386647E+01  0.50230392533E+02  0.65361628976E+02  0.00000000000E+00 0. -1.
        -13    1    3    3    0    0 -0.19432277316E+02  0.23789195974E+02 -0.28486773961E+00  0.30718404849E+02  0.00000000000E+00 0.  1.
         13    1    3    3    0    0 -0.15853635964E+03  0.10912158266E+03  0.25872061439E+03  0.32245566120E+03  0.00000000000E+00 0. -1.
         21    1    1    2  502  503  0.15138665898E+03 -0.11232647406E+03  0.26869896309E+02  0.19041309991E+03  0.00000000000E+00 0.  1.
         21    1    1    2  503  501  0.30060203629E+02  0.67726338476E+01 -0.42320538105E+02  0.52349903122E+02  0.00000000000E+00 0.  1.
<scales pt_clust_5="13000.00000" pt_clust_6="13000.00000" pt_clust_7="13000.00000" pt_clust_8="13000.00000" pt_clust_9="204.34383" pt_clust_10="30.81370"></scales>
<clustering>
<clus scale="   30.814">  2 10  1 -1</clus>
<clus scale="   91.227">  5  6 -1 -1</clus>
<clus scale="   92.762">  7  8 -1 -1</clus>
<clus scale="   94.952">  1  5  2 -1</clus>
<clus scale="  204.344">  2  9  1 -1</clus>
<clus scale="   94.952">  1  5  2 -1</clus>
</clustering>
</event>
<event>
10    2  0.1898324E-006  0.1174069E+03  0.7546771E-02  0.1248716E+00
          2   -1    0    0  502    0  0.00000000000E+00  0.00000000000E+00  0.30793744251E+03  0.30793744251E+03  0.00000000000E+00 0. -1.
         -2   -1    0    0    0  501 -0.00000000000E+00 -0.00000000000E+00 -0.21673706936E+03  0.21673706936E+03  0.00000000000E+00 0.  1.
         23    2    1    2    0    0 -0.91142778002E+01  0.43368758355E+02  0.30133472740E+02  0.10259502158E+03  0.87485958941E+02 0.  0.
         23    2    1    2    0    0 -0.54350139567E+02 -0.78215754427E+02  0.18028535050E+03  0.22342139614E+03  0.91338221667E+02 0.  0.
        -11    1    4    4    0    0 -0.38316464140E+02 -0.41975122540E+02  0.17431382503E+03  0.18334495339E+03  0.00000000000E+00 0. -1.
         11    1    4    4    0    0 -0.16033675427E+02 -0.36240631887E+02  0.59715254700E+01  0.40076442753E+02  0.00000000000E+00 0.  1.
        -13    1    3    3    0    0  0.10517572586E+02  0.56842117003E+02 -0.72633295598E+01  0.58261492898E+02  0.00000000000E+00 0.  1.
         13    1    3    3    0    0 -0.19631850386E+02 -0.13473358647E+02  0.37396802299E+02  0.44333528678E+02  0.00000000000E+00 0. -1.
         21    1    1    2  502  503  0.11657964157E+02 -0.17987271860E+02  0.27184073123E+02  0.34618259760E+02  0.00000000000E+00 0. -1.
         21    1    1    2  503  501  0.51806453210E+02  0.52834267932E+02 -0.14640252322E+03  0.16403983439E+03  0.00000000000E+00 0.  1.
<scales pt_clust_5="13000.00000" pt_clust_6="13000.00000" pt_clust_7="13000.00000" pt_clust_8="13000.00000" pt_clust_9="21.43479" pt_clust_10="73.84972"></scales>
<clustering>
<clus scale="   21.435">  1  9  2 -1</clus>
<clus scale="   73.850">  2 10  1 -1</clus>
<clus scale="   87.486">  7  8 -1 -1</clus>
<clus scale="   91.338">  5  6 -1 -1</clus>
<clus scale="  114.436">  2  7  1 -1</clus>
<clus scale="   21.435">  1  5  2 -1</clus>
</clustering>
</event>
<event>
10    2  0.1898324E-006  0.1304369E+03  0.7546771E-02  0.1227460E+00
          1   -1    0    0  502    0  0.00000000000E+00  0.00000000000E+00  0.40754948096E+02  0.40754948096E+02  0.00000000000E+00 0. -1.
         -1   -1    0    0    0  501 -0.00000000000E+00 -0.00000000000E+00 -0.99734275291E+03  0.99734275291E+03  0.00000000000E+00 0.  1.
         23    2    1    2    0    0 -0.11428768961E+03  0.61629089897E+02 -0.38416386917E+03  0.41514846602E+03  0.88918781738E+02 0.  0.
         23    2    1    2    0    0  0.74061337051E+02 -0.20518806907E+02 -0.16543983709E+03  0.20405037699E+03  0.91433656659E+02 0.  0.
        -11    1    3    3    0    0 -0.55512686845E+02 -0.17860217756E+02 -0.15275620789E+03  0.16350873013E+03  0.00000000000E+00 0. -1.
         11    1    3    3    0    0 -0.58775002766E+02  0.79489307653E+02 -0.23140766128E+03  0.25163973589E+03  0.00000000000E+00 0.  1.
        -11    1    4    4    0    0  0.68191839310E+02  0.27075190281E+01 -0.16663043859E+03  0.18006432371E+03  0.00000000000E+00 0.  1.
         11    1    4    4    0    0  0.58694977406E+01 -0.23226325935E+02  0.11906014966E+01  0.23986053283E+02  0.00000000000E+00 0. -1.
         21    1    1    2  502  503  0.56303242897E+02 -0.20001814883E+01 -0.20989166427E+03  0.21732134413E+03  0.00000000000E+00 0.  1.
         21    1    1    2  503  501 -0.16076890337E+02 -0.39110101502E+02 -0.19709243429E+03  0.20157751387E+03  0.00000000000E+00 0.  1.
<scales pt_clust_5="13000.00000" pt_clust_6="13000.00000" pt_clust_7="13000.00000" pt_clust_8="13000.00000" pt_clust_9="53.47393" pt_clust_10="42.28553"></scales>
<clustering>
<clus scale="   42.286">  2 10  1 -1</clus>
<clus scale="   53.474">  2  9  1 -1</clus>
<clus scale="   88.919">  5  6 -1 -1</clus>
<clus scale="   91.434">  7  8 -1 -1</clus>
<clus scale="  128.686">  2  5  1 -1</clus>
<clus scale="  130.437">  1  5  2 -1</clus>
</clustering>
</event>
<event>
10    2  0.1898324E-006  0.1125453E+03  0.7546771E-02  0.1256188E+00
          1   -1    0    0  502    0  0.00000000000E+00  0.00000000000E+00  0.45001792567E+03  0.45001792567E+03  0.00000000000E+00 0. -1.
         -1   -1    0    0    0  501 -0.00000000000E+00 -0.00000000000E+00 -0.94033048339E+02  0.94033048339E+02  0.00000000000E+00 0.  1.
         23    2    1    2    0    0  0.34176907934E+02 -0.28008210170E+02  0.64397552385E+00  0.10153990471E+03  0.91418907626E+02 0.  0.
         23    2    1    2    0    0 -0.81257375755E+02  0.71969837091E+02  0.25312530035E+03  0.28996956222E+03  0.90705627005E+02 0.  0.
        -11    1    4    4    0    0 -0.39059187120E+01  0.61499293099E+02  0.13479337735E+03  0.14821158467E+03  0.00000000000E+00 0.  1.
         11    1    4    4    0    0 -0.77351457043E+02  0.10470543992E+02  0.11833192300E+03  0.14175797755E+03  0.00000000000E+00 0. -1.
        -13    1    3    3    0    0  0.55470297077E+02 -0.11940643604E+02 -0.27248923892E+02  0.62944711301E+02  0.00000000000E+00 0.  1.
         13    1    3    3    0    0 -0.21293389144E+02 -0.16067566566E+02  0.27892899416E+02  0.38595193411E+02  0.00000000000E+00 0. -1.
         21    1    1    2  502  503  0.21677295379E+02 -0.49168020388E+02  0.11247730272E+03  0.12465369225E+03  0.00000000000E+00 0.  1.
         21    1    1    2  503  501  0.25403172443E+02  0.52063934675E+01 -0.10261701264E+02  0.27887814829E+02  0.00000000000E+00 0.  1.
<scales pt_clust_5="13000.00000" pt_clust_6="13000.00000" pt_clust_7="13000.00000" pt_clust_8="13000.00000" pt_clust_9="54.21904" pt_clust_10="25.93121"></scales>
<clustering>
<clus scale="   25.931">  2 10  1 -1</clus>
<clus scale="   54.219">  1  9  2 -1</clus>
<clus scale="   90.706">  5  6 -1 -1</clus>
<clus scale="   91.419">  7  8 -1 -1</clus>
<clus scale="  111.967">  1  5  2 -1</clus>
<clus scale="   54.219">  1  5  2 -1</clus>
</clustering>
</event>
<event>
10    2  0.1898324E-006  0.9900269E+02  0.7546771E-02  0.1284226E+00
          1   -1    0    0  502    0  0.00000000000E+00  0.00000000000E+00  0.24074548729E+03  0.24074548729E+03  0.00000000000E+00 0. -1.
         -1   -1    0    0    0  501 -0.00000000000E+00 -0.00000000000E+00 -0.15324636953E+03  0.15324636953E+03  0.00000000000E+00 0.  1.
         23    2    1    2    0    0  0.21884631106E+02  0.24877296422E+02 -0.86483109380E+01  0.97191245514E+02  0.90958935606E+02 0.  0.
         23    2    1    2    0    0 -0.54633568238E+02 -0.78247419049E+01  0.12018855998E+03  0.16253346842E+03  0.94476372927E+02 0.  0.
        -11    1    3    3    0    0 -0.29572507995E+02 -0.95221603914E+01  0.98465464439E+01  0.32590784656E+02  0.00000000000E+00 0. -1.
         11    1    3    3    0    0  0.51457139101E+02  0.34399456813E+02 -0.18494857382E+02  0.64600460858E+02  0.00000000000E+00 0.  1.
        -13    1    4    4    0    0  0.39935491608E+01 -0.29087771472E+02  0.26563392820E+01  0.29480553293E+02  0.00000000000E+00 0.  1.
         13    1    4    4    0    0 -0.58627117398E+02  0.21263029567E+02  0.11753222070E+03  0.13305291512E+03  0.00000000000E+00 0. -1.
         21    1    1    2  502  503  0.38209076837E+02  0.27884007543E+01  0.46809596527E+02  0.60488404331E+02  0.00000000000E+00 0. -1.
         21    1    1    2  503  501 -0.54601397049E+01 -0.19840955271E+02 -0.70850727810E+02  0.73778738555E+02  0.00000000000E+00 0.  1.
<scales pt_clust_5="13000.00000" pt_clust_6="13000.00000" pt_clust_7="13000.00000" pt_clust_8="13000.00000" pt_clust_9="37.76402" pt_clust_10="20.57855"></scales>
<clustering>
<clus scale="   20.579">  2 10  1 -1</clus>
<clus scale="   37.764">  1  9  2 -1</clus>
<clus scale="   90.959">  5  6 -1 -1</clus>
<clus scale="   94.476">  7  8 -1 -1</clus>
<clus scale="   95.652">  2  5  1 -1</clus>
<clus scale="   37.764">  1  5  2 -1</clus>
</clustering>
</event>
<event>
10    2  0.1898324E-006  0.2048485E+03  0.7546771E-02  0.1145804E+00
          2   -1    0    0  502    0  0.00000000000E+00  0.00000000000E+00  0.45035461875E+03  0.45035461875E+03  0.00000000000E+00 0. -1.
         -2   -1    0    0    0  501 -0.00000000000E+00 -0.00000000000E+00 -0.18614345813E+03  0.18614345813E+03  0.00000000000E+00 0.  1.
         23    2    1    2    0    0  0.11442907890E+03  0.13697789081E+03 -0.53005538399E+02  0.20784624209E+03  0.92377034922E+02 0.  0.
         23    2    1    2    0    0 -0.90423318599E+02 -0.17713431707E+03  0.26769968628E+03  0.34631470029E+03  0.93369196051E+02 0.  0.
        -11    1    4    4    0    0 -0.49216573854E+02 -0.88849066671E+02  0.20950931930E+03  0.23283166164E+03  0.00000000000E+00 0.  1.
         11    1    4    4    0    0 -0.41206744744E+02 -0.88285250404E+02  0.58190366980E+02  0.11348303865E+03  0.00000000000E+00 0. -1.
        -13    1    3    3    0    0  0.13333948107E+02  0.80873468819E+02 -0.40874854236E+02  0.91591843740E+02  0.00000000000E+00 0.  1.
         13    1    3    3    0    0  0.10109513080E+03  0.56104421995E+02 -0.12130684163E+02  0.11625439835E+03  0.00000000000E+00 0. -1.
         21    1    1    2  502  503 -0.23675353326E+01  0.24912262033E+02  0.49946526701E+02  0.55864850779E+02  0.00000000000E+00 0.  1.
         21    1    1    2  503  501 -0.21638224973E+02  0.15244164228E+02 -0.42951396669E+00  0.26472283718E+02  0.00000000000E+00 0. -1.
<scales pt_clust_5="13000.00000" pt_clust_6="13000.00000" pt_clust_7="13000.00000" pt_clust_8="13000.00000" pt_clust_9="25.02451" pt_clust_10="27.00945"></scales>
<clustering>
<clus scale="   25.025">  1  9  2 -1</clus>
<clus scale="   27.009">  2 10  1 -1</clus>
<clus scale="   92.377">  7  8 -1 -1</clus>
<clus scale="   93.369">  5  6 -1 -1</clus>
<clus scale="  204.398">  2  7  1 -1</clus>
<clus scale="   25.025">  1  5  2 -1</clus>
</clustering>
</event>
<event>
10    2  0.1898324E-006  0.1285584E+03  0.7546771E-02  0.1231522E+00
         -2   -1    0    0    0  501 -0.00000000000E+00  0.00000000000E+00  0.44388586654E+02  0.44388586654E+02  0.00000000000E+00 0.  1.
          2   -1    0    0  502    0  0.00000000000E+00 -0.00000000000E+00 -0.97574020137E+03  0.97574020137E+03  0.00000000000E+00 0. -1.
         23    2    1    2    0    0 -0.68500415349E+02 -0.10113955887E+03 -0.21650226442E+03  0.26515459808E+03  0.92261655718E+02 0.  0.
         23    2    1    2    0    0  0.46688661642E+02  0.52475600833E+02 -0.46975006529E+03  0.48255311886E+03  0.85198995760E+02 0.  0.
        -13    1    3    3    0    0 -0.24753058908E+02 -0.95800680418E+02 -0.18863622957E+03  0.21301199826E+03  0.00000000000E+00 0.  1.
         13    1    3    3    0    0 -0.43747356441E+02 -0.53388784481E+01 -0.27866034845E+02  0.52142599826E+02  0.00000000000E+00 0. -1.
        -13    1    4    4    0    0  0.64704374537E+02  0.20287300225E+02 -0.37083768275E+03  0.37698649523E+03  0.00000000000E+00 0. -1.
         13    1    4    4    0    0 -0.18015712895E+02  0.32188300608E+02 -0.98912382534E+02  0.10556662364E+03  0.00000000000E+00 0.  1.
         21    1    1    2  502  503 -0.13512894029E+02  0.28555238553E+02 -0.22475973169E+03  0.22696902199E+03  0.00000000000E+00 0. -1.
         21    1    1    2  503  501  0.35324647736E+02  0.20108719480E+02 -0.20339553318E+02  0.45452049084E+02  0.00000000000E+00 0. -1.
<scales pt_clust_5="13000.00000" pt_clust_6="13000.00000" pt_clust_7="13000.00000" pt_clust_8="13000.00000" pt_clust_9="31.59114" pt_clust_10="40.77513"></scales>
<clustering>
<clus scale="   31.591">  2  9  1 -1</clus>
<clus scale="   40.775">  1 10  2 -1</clus>
<clus scale="   85.199">  7  8 -1 -1</clus>
<clus scale="   92.262">  5  6 -1 -1</clus>
<clus scale="  123.588">  2  7  1 -1</clus>
<clus scale="   31.591">  2  5  1 -1</clus>
</clustering>
</event>
<event>
10    2  0.1898324E-006  0.1726057E+03  0.7546771E-02  0.1176797E+00
          1   -1    0    0  503    0  0.00000000000E+00  0.00000000000E+00  0.60722193098E+03  0.60722193098E+03  0.00000000000E+00 0. -1.
         -1   -1    0    0    0  501 -0.00000000000E+00 -0.00000000000E+00 -0.17581739298E+03  0.17581739298E+03  0.00000000000E+00 0.  1.
         23    2    1    2    0    0 -0.73500922664E+02 -0.43524203569E+02 -0.54578083445E+02  0.13477220128E+03  0.88814622197E+02 0.  0.
         23    2    1    2    0    0  0.11375378677E+02  0.16700536801E+03  0.42624677762E+03  0.46418047880E+03  0.75874958235E+02 0.  0.
        -13    1    4    4    0    0 -0.70201873525E+00  0.59996748662E+02  0.70933857170E+02  0.92907022196E+02  0.00000000000E+00 0.  1.
         13    1    4    4    0    0  0.12077397412E+02  0.10700861935E+03  0.35531292045E+03  0.37127345660E+03  0.00000000000E+00 0. -1.
        -13    1    3    3    0    0 -0.37551584748E+02 -0.42178669770E+02  0.13239444392E+02  0.58003832533E+02  0.00000000000E+00 0. -1.
         13    1    3    3    0    0 -0.35949337915E+02 -0.13455337986E+01 -0.67817527837E+02  0.76768368744E+02  0.00000000000E+00 0.  1.
         21    1    1    2  502  501 -0.22749763414E+02 -0.67840637513E+02  0.34867796430E+02  0.79596903592E+02  0.00000000000E+00 0.  1.
         21    1    1    2  503  502  0.84875307401E+02 -0.55640526926E+02  0.24868047399E+02  0.10448974028E+03  0.00000000000E+00 0.  1.
<scales pt_clust_5="13000.00000" pt_clust_6="13000.00000" pt_clust_7="13000.00000" pt_clust_8="13000.00000" pt_clust_9="71.55350" pt_clust_10="107.70781"></scales>
<clustering>
<clus scale="   71.554">  2  9  1 -1</clus>
<clus scale="   75.875">  5  6 -1 -1</clus>
<clus scale="   88.815">  7  8 -1 -1</clus>
<clus scale="  107.708">  2 10  1 -1</clus>
<clus scale="  166.318">  1  5  2 -1</clus>
<clus scale="  166.318">  1  5  2 -1</clus>
</clustering>
</event>
<event>
10    2  0.1898324E-006  0.1703643E+03  0.7546771E-02  0.1189244E+00
          1   -1    0    0  502    0  0.00000000000E+00  0.00000000000E+00  0.14005820267E+03  0.14005820267E+03  0.00000000000E+00 0. -1.
         -1   -1    0    0    0  501 -0.00000000000E+00 -0.00000000000E+00 -0.82243649107E+03  0.82243649107E+03  0.00000000000E+00 0.  1.
         23    2    1    2    0    0 -0.36667045720E+02  0.11444379132E+03 -0.14278211197E+03  0.20708418760E+03  0.89751187412E+02 0.  0.
         23    2    1    2    0    0 -0.10666182122E+03  0.49630399125E+02 -0.73790582626E+02  0.16968627956E+03  0.97511346850E+02 0.  0.
        -11    1    4    4    0    0 -0.16862506903E+02 -0.16744060378E+02  0.14053916627E+02  0.27608336957E+02  0.00000000000E+00 0. -1.
         11    1    4    4    0    0 -0.89799314314E+02  0.66374459503E+02 -0.87844499253E+02  0.14207794260E+03  0.00000000000E+00 0.  1.
        -13    1    3    3    0    0  0.23223801446E+02  0.38223550064E+01 -0.15832277352E+02  0.28365760302E+02  0.00000000000E+00 0. -1.
         13    1    3    3    0    0 -0.59890847165E+02  0.11062143631E+03 -0.12694983461E+03  0.17871842729E+03  0.00000000000E+00 0.  1.
         21    1    1    2  502  503  0.12147592362E+03 -0.10958631397E+03 -0.57792780948E+02  0.17350955523E+03  0.00000000000E+00 0. -1.
         21    1    1    2  503  501  0.21852943321E+02 -0.54487876476E+02 -0.40801281287E+03  0.41221467135E+03  0.00000000000E+00 0. -1.
<scales pt_clust_5="13000.00000" pt_clust_6="13000.00000" pt_clust_7="13000.00000" pt_clust_8="13000.00000" pt_clust_9="139.69806" pt_clust_10="58.70673"></scales>
<clustering>
<clus scale="   58.707">  2 10  1 -1</clus>
<clus scale="   89.751">  7  8 -1 -1</clus>
<clus scale="   97.511">  5  6 -1 -1</clus>
<clus scale="  130.944">  2  7  1 -1</clus>
<clus scale="  139.698">  2  9  1 -1</clus>
<clus scale="  170.364">  1  5  2 -1</clus>
</clustering>
</event>
<event>
10    2  0.1898324E-006  0.1286388E+03  0.7546771E-02  0.1246517E+00
         -4   -1    0    0    0  501 -0.00000000000E+00  0.00000000000E+00  0.13029149038E+03  0.13029149038E+03  0.00000000000E+00 0.  1.
          4   -1    0    0  502    0  0.00000000000E+00 -0.00000000000E+00 -0.47340908816E+03  0.47340908816E+03  0.00000000000E+00 0. -1.
         23    2    1    2    0    0  0.14559865778E+01  0.77715333091E+02 -0.12649108830E+02  0.11945477917E+03  0.89820105870E+02 0.  0.
         23    2    1    2    0    0  0.99843769623E+01 -0.17850237540E+01 -0.30342043943E+03  0.31634528606E+03  0.88924140995E+02 0.  0.
        -11    1    4    4    0    0 -0.34668614137E+02  0.18873253978E+02 -0.15670802069E+03  0.16160295873E+03  0.00000000000E+00 0. -1.
         11    1    4    4    0    0  0.44652991100E+02 -0.20658277732E+02 -0.14671241874E+03  0.15474232733E+03  0.00000000000E+00 0.  1.
        -13    1    3    3    0    0  0.37792892109E+02  0.10214140256E+02 -0.16979468897E+02  0.42672399969E+02  0.00000000000E+00 0.  1.
         13    1    3    3    0    0 -0.36336905531E+02  0.67501192835E+02  0.43303600668E+01  0.76782379203E+02  0.00000000000E+00 0. -1.
         21    1    1    2  502  503  0.36697470406E+00  0.23629263514E+02 -0.58281737281E+02  0.62890680272E+02  0.00000000000E+00 0. -1.
         21    1    1    2  503  501 -0.11807338244E+02 -0.99559572851E+02  0.31233687759E+02  0.10500983303E+03  0.00000000000E+00 0.  1.
<scales pt_clust_5="13000.00000" pt_clust_6="13000.00000" pt_clust_7="13000.00000" pt_clust_8="13000.00000" pt_clust_9="23.63211" pt_clust_10="92.08854"></scales>
<clustering>
<clus scale="   23.632">  2  9  1 -1</clus>
<clus scale="   88.924">  5  6 -1 -1</clus>
<clus scale="   89.820">  7  8 -1 -1</clus>
<clus scale="   90.924">  2  5  1 -1</clus>
<clus scale="   92.089">  1 10  2 -1</clus>
<clus scale="   23.632">  2  5  1 -1</clus>
</clustering>
</event>
<event>
10    2  0.1898324E-006  0.1260828E+03  0.7546771E-02  0.1233827E+00
          3   -1    0    0  502    0  0.00000000000E+00  0.00000000000E+00  0.27472682079E+03  0.27472682079E+03  0.00000000000E+00 0. -1.
         -3   -1    0    0    0  501 -0.00000000000E+00 -0.00000000000E+00 -0.47974774619E+03  0.47974774619E+03  0.00000000000E+00 0.  1.
         23    2    1    2    0    0  0.12263358569E+02 -0.53006470259E+02 -0.13592746326E+03  0.17171018240E+03  0.89710844497E+02 0.  0.
         23    2    1    2    0    0 -0.93728133130E+02  0.11946932486E+03 -0.18751827791E+03  0.25798013856E+03  0.91283978976E+02 0.  0.
        -11    1    4    4    0    0 -0.42723669946E+02  0.10608659380E+03 -0.84318402224E+02  0.14208895211E+03  0.00000000000E+00 0. -1.
         11    1    4    4    0    0 -0.51004463184E+02  0.13382731061E+02 -0.10319987569E+03  0.11589118645E+03  0.00000000000E+00 0.  1.
        -11    1    3    3    0    0 -0.16219964634E+02  0.17425652441E+02 -0.12798031830E+02  0.27028322819E+02  0.00000000000E+00 0. -1.
         11    1    3    3    0    0  0.28483323202E+02 -0.70432122700E+02 -0.12312943143E+03  0.14468185958E+03  0.00000000000E+00 0.  1.
         21    1    1    2  502  503  0.46349224541E+02 -0.90287189004E+02  0.20478929142E+03  0.22855782855E+03  0.00000000000E+00 0. -1.
         21    1    1    2  503  501  0.35115550021E+02  0.23824334406E+02 -0.86364475651E+02  0.96226417462E+02  0.00000000000E+00 0. -1.
<scales pt_clust_5="13000.00000" pt_clust_6="13000.00000" pt_clust_7="13000.00000" pt_clust_8="13000.00000" pt_clust_9="101.33945" pt_clust_10="42.43466"></scales>
<clustering>
<clus scale="   42.435">  2 10  1 -1</clus>
<clus scale="   89.711">  7  8 -1 -1</clus>
<clus scale="   91.284">  5  6 -1 -1</clus>
<clus scale="  101.339">  1  9  2 -1</clus>
<clus scale="  124.949">  2  7  1 -1</clus>
<clus scale="  101.339">  1  5  2 -1</clus>
</clustering>
</event>
<event>
10    2  0.1898324E-006  0.9554154E+02  0.7546771E-02  0.1291283E+00
          1   -1    0    0  502    0  0.00000000000E+00  0.00000000000E+00  0.97645425516E+02  0.97645425516E+02  0.00000000000E+00 0. -1.
         -1   -1    0    0    0  501 -0.00000000000E+00 -0.00000000000E+00 -0.20253258368E+03  0.20253258368E+03  0.00000000000E+00 0.  1.
         23    2    1    2    0    0 -0.23660046724E+01  0.27008149894E+00 -0.82936173727E+02  0.12391215602E+03  0.92033377499E+02 0.  0.
         23    2    1    2    0    0  0.20266670181E+02 -0.50771132731E+02 -0.18291983123E+02  0.10654900837E+03  0.89608307090E+02 0.  0.
        -13    1    4    4    0    0  0.22793007196E+01 -0.68266867195E+02 -0.34654191163E+02  0.76592906548E+02  0.00000000000E+00 0.  1.
         13    1    4    4    0    0  0.17987369461E+02  0.17495734464E+02  0.16362208040E+02  0.29956101824E+02  0.00000000000E+00 0. -1.
        -13    1    3    3    0    0 -0.53686955318E+01 -0.27116141893E+02  0.80948958925E+01  0.28803391855E+02  0.00000000000E+00 0.  1.
         13    1    3    3    0    0  0.30026908594E+01  0.27386223392E+02 -0.91031069619E+02  0.95108764160E+02  0.00000000000E+00 0. -1.
         21    1    1    2  502  503  0.12792233857E+01  0.37527412777E+02  0.14539345846E+02  0.40265813041E+02  0.00000000000E+00 0. -1.
         21    1    1    2  503  501 -0.19179888894E+02  0.12973638455E+02 -0.18198347159E+02  0.29451031766E+02  0.00000000000E+00 0. -1.
<scales pt_clust_5="13000.00000" pt_clust_6="13000.00000" pt_clust_7="13000.00000" pt_clust_8="13000.00000" pt_clust_9="38.46138" pt_clust_10="23.15564"></scales>
<clustering>
<clus scale="   23.156">  2 10  1 -1</clus>
<clus scale="   38.461">  1  9  2 -1</clus>
<clus scale="   89.608">  5  6 -1 -1</clus>
<clus scale="   92.033">  7  8 -1 -1</clus>
<clus scale="   93.208">  1  5  2 -1</clus>
<clus scale="   38.461">  1  5  2 -1</clus>
</clustering>
</event>
<event>
10    2  0.1898324E-006  0.1537478E+03  0.7546771E-02  0.1196111E+00
          1   -1    0    0  502    0  0.00000000000E+00  0.00000000000E+00  0.87445610120E+03  0.87445610120E+03  0.00000000000E+00 0. -1.
         -1   -1    0    0    0  501 -0.00000000000E+00 -0.00000000000E+00 -0.51324481616E+02  0.51324481616E+02  0.00000000000E+00 0.  1.
         23    2    1    2    0    0 -0.56085392406E+02 -0.10287883803E+03  0.30986782208E+03  0.34268053919E+03  0.87648492417E+02 0.  0.
         23    2    1    2    0    0  0.59811951286E+02  0.11970668965E+03  0.39607652337E+03  0.42736386876E+03  0.88634659652E+02 0.  0.
        -11    1    3    3    0    0 -0.14131831730E+02  0.14756385986E+02  0.59116882983E+02  0.62548105079E+02  0.00000000000E+00 0. -1.
         11    1    3    3    0    0 -0.41953560676E+02 -0.11763522401E+03  0.25075093910E+03  0.28013243411E+03  0.00000000000E+00 0.  1.
        -13    1    4    4    0    0  0.37726838227E+02  0.61358089859E+02  0.32457146281E+03  0.33246768864E+03  0.00000000000E+00 0. -1.
         13    1    4    4    0    0  0.22085113059E+02  0.58348599796E+02  0.71505060557E+02  0.94896180125E+02  0.00000000000E+00 0.  1.
         21    1    1    2  502  503  0.21448310999E+02 -0.12374135322E+02  0.12621668779E+03  0.12862271007E+03  0.00000000000E+00 0.  1.
         21    1    1    2  503  501 -0.25174869879E+02 -0.44537163037E+01 -0.90294136536E+01  0.27113464797E+02  0.00000000000E+00 0.  1.
<scales pt_clust_5="13000.00000" pt_clust_6="13000.00000" pt_clust_7="13000.00000" pt_clust_8="13000.00000" pt_clust_9="24.76185" pt_clust_10="25.33698"></scales>
<clustering>
<clus scale="   24.762">  1  9  2 -1</clus>
<clus scale="   25.337">  2 10  1 -1</clus>
<clus scale="   87.648">  5  6 -1 -1</clus>
<clus scale="   88.635">  7  8 -1 -1</clus>
<clus scale="  153.181">  2  5  1 -1</clus>
<clus scale="   24.762">  1  5  2 -1</clus>
</clustering>
</event>
<event>
10    2  0.1898324E-006  0.1381790E+03  0.7546771E-02  0.1215870E+00
          2   -1    0    0  502    0  0.00000000000E+00  0.00000000000E+00  0.96749135573E+03  0.96749135573E+03  0.00000000000E+00 0. -1.
         -2   -1    0    0    0  501 -0.00000000000E+00 -0.00000000000E+00 -0.51629233843E+02  0.51629233843E+02  0.00000000000E+00 0.  1.
         23    2    1    2    0    0 -0.14366270463E+03 -0.56530416408E+02  0.35725237233E+03  0.39948984559E+03  0.90156633202E+02 0.  0.
         23    2    1    2    0    0  0.54690604573E+02  0.34031827520E+02  0.32467624777E+03  0.34298127895E+03  0.89845780808E+02 0.  0.
        -11    1    3    3    0    0 -0.12320471031E+03 -0.55906074141E+02  0.35373022560E+03  0.37872148377E+03  0.00000000000E+00 0.  1.
         11    1    3    3    0    0 -0.20457994324E+02 -0.62434226700E+00  0.35221467354E+01  0.20768361819E+02  0.00000000000E+00 0. -1.
        -13    1    4    4    0    0  0.59811724255E+02  0.40232785433E+01  0.29291674919E+03  0.29898804505E+03  0.00000000000E+00 0.  1.
         13    1    4    4    0    0 -0.51211196821E+01  0.30008548977E+02  0.31759498585E+02  0.43993233898E+02  0.00000000000E+00 0. -1.
         21    1    1    2  502  503  0.49744784962E+02  0.10366571007E+02  0.22983477225E+03  0.23538485924E+03  0.00000000000E+00 0. -1.
         21    1    1    2  503  501  0.39227315096E+02  0.12132017882E+02  0.40987295335E+01  0.41264605794E+02  0.00000000000E+00 0.  1.
<scales pt_clust_5="13000.00000" pt_clust_6="13000.00000" pt_clust_7="13000.00000" pt_clust_8="13000.00000" pt_clust_9="54.24711" pt_clust_10="41.06054"></scales>
<clustering>
<clus scale="   41.061">  2 10  1 -1</clus>
<clus scale="   54.247">  1  9  2 -1</clus>
<clus scale="   89.846">  7  8 -1 -1</clus>
<clus scale="   90.157">  5  6 -1 -1</clus>
<clus scale="  137.976">  1  7  2 -1</clus>
<clus scale="   54.247">  1  5  2 -1</clus>
</clustering>
</event>
<event>
10    2  0.1898324E-006  0.9968098E+02  0.7546771E-02  0.1281432E+00
          1   -1    0    0  502    0  0.00000000000E+00  0.00000000000E+00  0.55366678773E+03  0.55366678773E+03  0.00000000000E+00 0. -1.
         -1   -1    0    0    0  501 -0.00000000000E+00 -0.00000000000E+00 -0.58800845239E+02  0.58800845239E+02  0.00000000000E+00 0.  1.
         23    2    1    2    0    0  0.36320428227E+01 -0.23032166995E+02  0.41443569604E+02  0.10354789010E+03  0.91983279090E+02 0.  0.
         23    2    1    2    0    0  0.62274909548E+00  0.38425013594E+02  0.26697661982E+03  0.28467685802E+03  0.91035863678E+02 0.  0.
        -13    1    4    4    0    0 -0.20828152566E+02 -0.58394361223E+01  0.11480674771E+02  0.24489116904E+02  0.00000000000E+00 0.  1.
         13    1    4    4    0    0  0.21450901661E+02  0.44264449716E+02  0.25549594505E+03  0.26018774112E+03  0.00000000000E+00 0. -1.
        -13    1    3    3    0    0 -0.13987018757E+02 -0.54929204945E+02  0.15333378724E+02  0.58719389921E+02  0.00000000000E+00 0.  1.
         13    1    3    3    0    0  0.17619061579E+02  0.31897037950E+02  0.26110190880E+02  0.44828500184E+02  0.00000000000E+00 0. -1.
         21    1    1    2  502  503  0.35534208268E+02  0.72561959644E-01  0.17698659575E+03  0.18051853173E+03  0.00000000000E+00 0.  1.
         21    1    1    2  503  501 -0.39789000187E+02 -0.15465408559E+02  0.94591573104E+01  0.43724353109E+02  0.00000000000E+00 0.  1.
<scales pt_clust_5="13000.00000" pt_clust_6="13000.00000" pt_clust_7="13000.00000" pt_clust_8="13000.00000" pt_clust_9="35.53428" pt_clust_10="40.34813"></scales>
<clustering>
<clus scale="   35.534">  1  9  2 -1</clus>
<clus scale="   40.348">  2 10  1 -1</clus>
<clus scale="   91.036">  5  6 -1 -1</clus>
<clus scale="   91.983">  7  8 -1 -1</clus>
<clus scale="   98.807">  1  5  2 -1</clus>
<clus scale="   35.534">  1  5  2 -1</clus>
</clustering>
</event>
<event>
10    2  0.1898324E-006  0.2727491E+03  0.7546771E-02  0.1099819E+00
         -1   -1    0    0    0  501 -0.00000000000E+00  0.00000000000E+00  0.34620155777E+03  0.34620155777E+03  0.00000000000E+00 0.  1.
          1   -1    0    0  502    0  0.00000000000E+00 -0.00000000000E+00 -0.60429518135E+03  0.60429518135E+03  0.00000000000E+00 0. -1.
         23    2    1    2    0    0 -0.17771040061E+03 -0.15903934400E+03  0.20771219819E+03  0.32894731530E+03  0.90484692292E+02 0.  0.
         23    2    1    2    0    0  0.14780378403E+03  0.22092574935E+03 -0.30617203863E+03  0.41590469337E+03  0.92635044299E+02 0.  0.
        -11    1    3    3    0    0 -0.61246388983E+02 -0.12726342438E+02  0.24595001378E+02  0.67216025233E+02  0.00000000000E+00 0. -1.
         11    1    3    3    0    0 -0.11646401163E+03 -0.14631300156E+03  0.18311719681E+03  0.26173129006E+03  0.00000000000E+00 0.  1.
        -11    1    4    4    0    0  0.64447781991E+02  0.92514675799E+02 -0.64708761761E+02  0.12999886803E+03  0.00000000000E+00 0.  1.
         11    1    4    4    0    0  0.83356002041E+02  0.12841107355E+03 -0.24146327687E+03  0.28590582534E+03  0.00000000000E+00 0. -1.
         21    1    1    2  502  503  0.47366000541E+02 -0.47557862681E+02 -0.16850296275E+03  0.18137953789E+03  0.00000000000E+00 0. -1.
         21    1    1    2  503  501 -0.17459383961E+02 -0.14328542665E+02  0.88691796057E+01  0.24265192562E+02  0.00000000000E+00 0. -1.
<scales pt_clust_5="13000.00000" pt_clust_6="13000.00000" pt_clust_7="13000.00000" pt_clust_8="13000.00000" pt_clust_9="67.08053" pt_clust_10="22.58622"></scales>
<clustering>
<clus scale="   22.586">  1 10  2 -1</clus>
<clus scale="   67.081">  2  9  1 -1</clus>
<clus scale="   90.485">  5  6 -1 -1</clus>
<clus scale="   92.635">  7  8 -1 -1</clus>
<clus scale="  272.026">  1  5  2 -1</clus>
<clus scale="   67.081">  2  5  1 -1</clus>
</clustering>
</event>
<event>
10    2  0.1898324E-006  0.1064705E+03  0.7546771E-02  0.1267455E+00
         -2   -1    0    0    0  501 -0.00000000000E+00  0.00000000000E+00  0.31876836439E+03  0.31876836439E+03  0.00000000000E+00 0.  1.
          2   -1    0    0  502    0  0.00000000000E+00 -0.00000000000E+00 -0.28929504352E+03  0.28929504352E+03  0.00000000000E+00 0. -1.
         23    2    1    2    0    0 -0.11107602883E+03 -0.70668956421E+01 -0.25054162160E+02  0.14586528871E+03  0.90890847797E+02 0.  0.
         23    2    1    2    0    0  0.28777451538E+02  0.34859980001E+02 -0.12514447799E+03  0.16085846753E+03  0.90393286720E+02 0.  0.
        -13    1    3    3    0    0 -0.99390542785E+02  0.14580485180E+02  0.12230833756E+02  0.10119616513E+03  0.00000000000E+00 0. -1.
         13    1    3    3    0    0 -0.11685486046E+02 -0.21647380822E+02 -0.37284995915E+02  0.44669123575E+02  0.00000000000E+00 0.  1.
        -13    1    4    4    0    0  0.29062688689E+02  0.64615779552E+02 -0.94885538514E+02  0.11841918873E+03  0.00000000000E+00 0.  1.
         13    1    4    4    0    0 -0.28523715107E+00 -0.29755799551E+02 -0.30258939473E+02  0.42439278802E+02  0.00000000000E+00 0. -1.
         21    1    1    2  502  503  0.51704282504E+02 -0.55996262946E+02 -0.34142278250E+02  0.83514127292E+02  0.00000000000E+00 0.  1.
         21    1    1    2  503  501  0.30594294789E+02  0.28203178587E+02  0.21381423927E+03  0.21782552437E+03  0.00000000000E+00 0.  1.
<scales pt_clust_5="13000.00000" pt_clust_6="13000.00000" pt_clust_7="13000.00000" pt_clust_8="13000.00000" pt_clust_9="76.87463" pt_clust_10="41.61046"></scales>
<clustering>
<clus scale="   41.610">  1 10  2 -1</clus>
<clus scale="   76.875">  1  9  2 -1</clus>
<clus scale="   90.393">  7  8 -1 -1</clus>
<clus scale="   90.891">  5  6 -1 -1</clus>
<clus scale="  106.046">  2  7  1 -1</clus>
<clus scale="  106.046">  2  5  1 -1</clus>
</clustering>
</event>
<event>
10    2  0.1898324E-006  0.1735805E+03  0.7546771E-02  0.1174276E+00
         -2   -1    0    0    0  501 -0.00000000000E+00  0.00000000000E+00  0.12227329760E+03  0.12227329760E+03  0.00000000000E+00 0.  1.
          2   -1    0    0  502    0  0.00000000000E+00 -0.00000000000E+00 -0.71256280003E+03  0.71256280003E+03  0.00000000000E+00 0. -1.
         23    2    1    2    0    0  0.14803647124E+03  0.30009512691E+02 -0.53246732132E+02  0.18394140228E+03  0.90464674428E+02 0.  0.
         23    2    1    2    0    0 -0.12507694641E+03 -0.66846006620E+02 -0.48077593278E+03  0.50950408247E+03  0.91303238672E+02 0.  0.
        -11    1    3    3    0    0  0.79402506358E+02  0.39574901754E+02  0.11057745303E+02  0.89404723566E+02  0.00000000000E+00 0.  1.
         11    1    3    3    0    0  0.68633964883E+02 -0.95653890632E+01 -0.64304477435E+02  0.94536678711E+02  0.00000000000E+00 0. -1.
        -13    1    4    4    0    0 -0.36402334975E+02  0.22487482149E+02 -0.12419620904E+03  0.13136024964E+03  0.00000000000E+00 0.  1.
         13    1    4    4    0    0 -0.88674611437E+02 -0.89333488769E+02 -0.35657972374E+03  0.37814383283E+03  0.00000000000E+00 0. -1.
         21    1    1    2  502  503 -0.15322805031E+02  0.15783614738E+02 -0.94529762105E+02  0.97055585990E+02  0.00000000000E+00 0.  1.
         21    1    1    2  503  501 -0.76367197975E+01  0.21052879191E+02  0.38262924590E+02  0.44335026894E+02  0.00000000000E+00 0.  1.
<scales pt_clust_5="13000.00000" pt_clust_6="13000.00000" pt_clust_7="13000.00000" pt_clust_8="13000.00000" pt_clust_9="21.99797" pt_clust_10="22.49396"></scales>
<clustering>
<clus scale="   21.998">  2  9  1 -1</clus>
<clus scale="   22.494">  1 10  2 -1</clus>
<clus scale="   90.465">  5  6 -1 -1</clus>
<clus scale="   91.303">  7  8 -1 -1</clus>
<clus scale="  173.141">  1  5  2 -1</clus>
<clus scale="   21.998">  2  5  1 -1</clus>
</clustering>
</event>
<event>
10    2  0.1898324E-006  0.1611967E+03  0.7546771E-02  0.1205095E+00
         -1   -1    0    0    0  501 -0.00000000000E+00  0.00000000000E+00  0.77337782702E+02  0.77337782702E+02  0.00000000000E+00 0.  1.
          1   -1    0    0  502    0  0.00000000000E+00 -0.00000000000E+00 -0.93207435723E+03  0.93207435723E+03  0.00000000000E+00 0. -1.
         23    2    1    2    0    0  0.61045242530E+02  0.10099533628E+03 -0.33411961571E+03  0.36576231475E+03  0.90661864640E+02 0.  0.
         23    2    1    2    0    0 -0.86449995579E+02 -0.17813362877E+02 -0.17328256366E+03  0.21324456101E+03  0.87495590157E+02 0.  0.
        -11    1    3    3    0    0  0.38598103939E+02  0.51932789515E+02 -0.66602375314E+02  0.92858519544E+02  0.00000000000E+00 0.  1.
         11    1    3    3    0    0  0.22447138591E+02  0.49062546760E+02 -0.26751724040E+03  0.27290379520E+03  0.00000000000E+00 0. -1.
        -13    1    4    4    0    0 -0.34054674989E+02 -0.51228258284E+02 -0.96886706792E+02  0.11476536624E+03  0.00000000000E+00 0.  1.
         13    1    4    4    0    0 -0.52395320590E+02  0.33414895407E+02 -0.76395856870E+02  0.98479194766E+02  0.00000000000E+00 0. -1.
         21    1    1    2  502  503  0.74989662204E+02  0.48119635996E+02 -0.23274161603E+03  0.24921398163E+03  0.00000000000E+00 0. -1.
         21    1    1    2  503  501 -0.49584909155E+02 -0.13130160939E+03 -0.11459277912E+03  0.18119128255E+03  0.00000000000E+00 0.  1.
<scales pt_clust_5="13000.00000" pt_clust_6="13000.00000" pt_clust_7="13000.00000" pt_clust_8="13000.00000" pt_clust_9="89.10078" pt_clust_10="133.28465"></scales>
<clustering>
<clus scale="   87.496">  7  8 -1 -1</clus>
<clus scale="   89.101">  2  9  1 -1</clus>
<clus scale="   90.662">  5  6 -1 -1</clus>
<clus scale="  109.371">  2  7  1 -1</clus>
<clus scale="  133.285">  1 10  2 -1</clus>
<clus scale="   89.101">  2  5  1 -1</clus>
</clustering>
</event>
<event>
10    2  0.1898324E-006  0.1652150E+03  0.7546771E-02  0.1183385E+00
          1   -1    0    0  502    0  0.00000000000E+00  0.00000000000E+00  0.34174032372E+03  0.34174032372E+03  0.00000000000E+00 0. -1.
         -1   -1    0    0    0  501 -0.00000000000E+00 -0.00000000000E+00 -0.12645936375E+03  0.12645936375E+03  0.00000000000E+00 0.  1.
         23    2    1    2    0    0 -0.12470218175E+03 -0.11940081951E+02  0.33190927342E+00  0.15459050014E+03  0.90580974160E+02 0.  0.
         23    2    1    2    0    0  0.13173766566E+03  0.37903376831E+02  0.20369973737E+03  0.26065747120E+03  0.87505746997E+02 0.  0.
        -11    1    3    3    0    0 -0.66582970853E+02  0.36620876777E+02 -0.14644232992E+02  0.77387558325E+02  0.00000000000E+00 0.  1.
         11    1    3    3    0    0 -0.58119210893E+02 -0.48560958728E+02  0.14976142266E+02  0.77202941813E+02  0.00000000000E+00 0. -1.
        -13    1    4    4    0    0  0.25223347755E+02  0.47295000250E+02  0.88618393134E+02  0.10356762970E+03  0.00000000000E+00 0.  1.
         13    1    4    4    0    0  0.10651431791E+03 -0.93916234195E+01  0.11508134424E+03  0.15708984150E+03  0.00000000000E+00 0. -1.
         21    1    1    2  502  503  0.16835607141E+02 -0.17900416386E+02  0.12801117685E+02  0.27707962548E+02  0.00000000000E+00 0. -1.
         21    1    1    2  503  501 -0.23871091059E+02 -0.80628784947E+01 -0.15518043556E+01  0.25243753578E+02  0.00000000000E+00 0. -1.
<scales pt_clust_5="13000.00000" pt_clust_6="13000.00000" pt_clust_7="13000.00000" pt_clust_8="13000.00000" pt_clust_9="24.57362" pt_clust_10="24.83301"></scales>
<clustering>
<clus scale="   24.574">  1  9  2 -1</clus>
<clus scale="   24.833">  2 10  1 -1</clus>
<clus scale="   87.506">  7  8 -1 -1</clus>
<clus scale="   90.581">  5  6 -1 -1</clus>
<clus scale="  163.549">  1  7  2 -1</clus>
<clus scale="   24.574">  1  5  2 -1</clus>
</clustering>
</event>
<event>
10    2  0.1898324E-006  0.1535966E+03  0.7546771E-02  0.1215901E+00
         -1   -1    0    0    0  501 -0.00000000000E+00  0.00000000000E+00  0.32165983637E+03  0.32165983637E+03  0.00000000000E+00 0.  1.
          1   -1    0    0  502    0  0.00000000000E+00 -0.00000000000E+00 -0.86853535180E+03  0.86853535180E+03  0.00000000000E+00 0. -1.
         23    2    1    2    0    0 -0.37682931276E+02 -0.78132928719E+00  0.53638687960E+02  0.11238348364E+03  0.91281568587E+02 0.  0.
         23    2    1    2    0    0  0.69879621645E+02  0.15266135422E+03  0.16199921759E+03  0.25084900501E+03  0.92156531074E+02 0.  0.
        -13    1    3    3    0    0  0.14350378834E+02  0.33346479156E+02  0.23469688344E+02  0.43229010118E+02  0.00000000000E+00 0.  1.
         13    1    3    3    0    0 -0.52033310109E+02 -0.34127808444E+02  0.30168999616E+02  0.69154473521E+02  0.00000000000E+00 0. -1.
        -13    1    4    4    0    0  0.81834727262E+02  0.76852903054E+02  0.11572956107E+03  0.16123468175E+03  0.00000000000E+00 0.  1.
         13    1    4    4    0    0 -0.11955105617E+02  0.75808451162E+02  0.46269656526E+02  0.89614323257E+02  0.00000000000E+00 0. -1.
         21    1    1    2  502  503 -0.21764418955E+02 -0.12000302914E+03 -0.77976521160E+03  0.78924533712E+03  0.00000000000E+00 0. -1.
         21    1    1    2  503  501 -0.10432271415E+02 -0.31876995787E+02  0.17251790628E+02  0.37717362410E+02  0.00000000000E+00 0.  1.
<scales pt_clust_5="13000.00000" pt_clust_6="13000.00000" pt_clust_7="13000.00000" pt_clust_8="13000.00000" pt_clust_9="122.87832" pt_clust_10="33.54065"></scales>
<clustering>
<clus scale="   33.541">  1 10  2 -1</clus>
<clus scale="   91.282">  5  6 -1 -1</clus>
<clus scale="   92.157">  7  8 -1 -1</clus>
<clus scale="  100.391">  1  5  2 -1</clus>
<clus scale="  122.878">  2  9  1 -1</clus>
<clus scale="  122.878">  2  5  1 -1</clus>
</clustering>
</event>
<event>
10    2  0.1898324E-006  0.1191930E+03  0.7546771E-02  0.1244847E+00
         -2   -1    0    0    0  501 -0.00000000000E+00  0.00000000000E+00  0.17379035456E+03  0.17379035456E+03  0.00000000000E+00 0.  1.
          2   -1    0    0  502    0  0.00000000000E+00 -0.00000000000E+00 -0.77818270576E+03  0.77818270576E+03  0.00000000000E+00 0. -1.
         23    2    1    2    0    0  0.86337615847E+02  0.91304537312E+01  0.53074394053E+02  0.13733857951E+03  0.92235812034E+02 0.  0.
         23    2    1    2    0    0 -0.16419656625E+02 -0.51802908952E+02 -0.13761140888E+03  0.17367467845E+03  0.90955195458E+02 0.  0.
        -11    1    3    3    0    0  0.93728244059E+02  0.33733516755E+02  0.50023939027E+02  0.11146895695E+03  0.00000000000E+00 0. -1.
         11    1    3    3    0    0 -0.73906282121E+01 -0.24603063024E+02  0.30504550253E+01  0.25869622560E+02  0.00000000000E+00 0.  1.
        -11    1    4    4    0    0  0.33118290020E+02 -0.38169353244E+02 -0.44531550759E+02  0.67355620953E+02  0.00000000000E+00 0.  1.
         11    1    4    4    0    0 -0.49537946646E+02 -0.13633555709E+02 -0.93079858119E+02  0.10631905750E+03  0.00000000000E+00 0. -1.
         21    1    1    2  502  503 -0.77908282657E+02  0.62585228162E+02 -0.57404420646E+03  0.58267775164E+03  0.00000000000E+00 0. -1.
         21    1    1    2  503  501  0.79903234360E+01 -0.19912772941E+02  0.54188870090E+02  0.58282050722E+02  0.00000000000E+00 0.  1.
<scales pt_clust_5="13000.00000" pt_clust_6="13000.00000" pt_clust_7="13000.00000" pt_clust_8="13000.00000" pt_clust_9="99.24709" pt_clust_10="21.45609"></scales>
<clustering>
<clus scale="   21.456">  1 10  2 -1</clus>
<clus scale="   90.955">  7  8 -1 -1</clus>
<clus scale="   92.236">  5  6 -1 -1</clus>
<clus scale="   99.247">  2  9  1 -1</clus>
<clus scale="  118.205">  2  7  1 -1</clus>
<clus scale="   99.247">  2  5  1 -1</clus>
</clustering>
</event>
<event>
10    2  0.1898324E-006  0.1288335E+03  0.7546771E-02  0.1241042E+00
         -1   -1    0    0    0  501 -0.00000000000E+00  0.00000000000E+00  0.23907600819E+03  0.23907600819E+03  0.00000000000E+00 0.  1.
          1   -1    0    0  502    0  0.00000000000E+00 -0.00000000000E+00 -0.27623577691E+03  0.27623577691E+03  0.00000000000E+00 0. -1.
         23    2    1    2    0    0  0.44091524447E+02 -0.31634139795E+02 -0.37699326132E+01  0.12947551950E+03  0.11749432510E+03 0.  0.
         23    2    1    2    0    0 -0.24496196729E+02  0.53255560731E+02 -0.96102228938E+01  0.10466370575E+03  0.86173757684E+02 0.  0.
        -11    1    4    4    0    0 -0.54135709685E+02  0.48742620911E+02 -0.14532239467E+02  0.74281250261E+02  0.00000000000E+00 0.  1.
         11    1    4    4    0    0  0.29639512956E+02  0.45129398191E+01  0.49220165737E+01  0.30382455484E+02  0.00000000000E+00 0. -1.
        -13    1    3    3    0    0 -0.33362990474E+02  0.13242756017E+02 -0.15680238246E+02  0.39170519421E+02  0.00000000000E+00 0.  1.
         13    1    3    3    0    0  0.77454514922E+02 -0.44876895812E+02  0.11910305633E+02  0.90305000081E+02  0.00000000000E+00 0. -1.
         21    1    1    2  502  503 -0.44302323376E+01 -0.39581736621E+02 -0.14876062591E+03  0.15400020991E+03  0.00000000000E+00 0. -1.
         21    1    1    2  503  501 -0.15165095381E+02  0.17960315685E+02  0.12498101269E+03  0.12717234995E+03  0.00000000000E+00 0.  1.
<scales pt_clust_5="13000.00000" pt_clust_6="13000.00000" pt_clust_7="13000.00000" pt_clust_8="13000.00000" pt_clust_9="39.45618" pt_clust_10="23.50645"></scales>
<clustering>
<clus scale="   23.506">  1 10  2 -1</clus>
<clus scale="   39.456">  2  9  1 -1</clus>
<clus scale="   86.174">  5  6 -1 -1</clus>
<clus scale="  101.089">  2  5  1 -1</clus>
<clus scale="  117.494">  7  8 -1 -1</clus>
<clus scale="   39.456">  2  5  1 -1</clus>
</clustering>
</event>
<event>
10    2  0.1898324E-006  0.9292113E+02  0.7546771E-02  0.1297067E+00
         -2   -1    0    0    0  501 -0.00000000000E+00  0.00000000000E+00  0.27351819886E+03  0.27351819886E+03  0.00000000000E+00 0.  1.
          2   -1    0    0  502    0  0.00000000000E+00 -0.00000000000E+00 -0.54316232103E+03  0.54316232103E+03  0.00000000000E+00 0. -1.
         23    2    1    2    0    0  0.50471596652E+01 -0.56440725006E+02  0.22039946599E+03  0.24449218907E+03  0.89383872418E+02 0.  0.
         23    2    1    2    0    0 -0.44545110368E+02  0.55838187592E+02 -0.20900811679E+03  0.23752704899E+03  0.87364386709E+02 0.  0.
        -11    1    3    3    0    0  0.17653213967E+02 -0.77756623026E+02  0.15019336056E+03  0.17004638762E+03  0.00000000000E+00 0.  1.
         11    1    3    3    0    0 -0.12606054302E+02  0.21315898020E+02  0.70206105427E+02  0.74445801445E+02  0.00000000000E+00 0. -1.
        -13    1    4    4    0    0 -0.32181535214E+02  0.74762693840E+01 -0.13404024231E+02  0.35654083612E+02  0.00000000000E+00 0.  1.
         13    1    4    4    0    0 -0.12363575154E+02  0.48361918208E+02 -0.19560409256E+03  0.20187296538E+03  0.00000000000E+00 0. -1.
         21    1    1    2  502  503  0.43728462694E+02 -0.37163067376E+02 -0.28999412909E+03  0.29561777168E+03  0.00000000000E+00 0.  1.
         21    1    1    2  503  501 -0.42305119917E+01  0.37765604791E+02  0.89586577265E+01  0.39043510154E+02  0.00000000000E+00 0. -1.
<scales pt_clust_5="13000.00000" pt_clust_6="13000.00000" pt_clust_7="13000.00000" pt_clust_8="13000.00000" pt_clust_9="57.07586" pt_clust_10="38.00182"></scales>
<clustering>
<clus scale="   38.002">  1 10  2 -1</clus>
<clus scale="   57.076">  2  9  1 -1</clus>
<clus scale="   87.364">  7  8 -1 -1</clus>
<clus scale="   89.384">  5  6 -1 -1</clus>
<clus scale="   90.980">  2  7  1 -1</clus>
<clus scale="   57.076">  2  5  1 -1</clus>
</clustering>
</event>
<event>
10    2  0.1898324E-006  0.1303120E+03  0.7546771E-02  0.1242817E+00
         -2   -1    0    0    0  501 -0.00000000000E+00  0.00000000000E+00  0.84527096112E+02  0.84527096112E+02  0.00000000000E+00 0.  1.
          2   -1    0    0  502    0  0.00000000000E+00 -0.00000000000E+00 -0.52547072534E+03  0.52547072534E+03  0.00000000000E+00 0. -1.
         23    2    1    2    0    0  0.35126459169E+02 -0.69350029160E+02 -0.11424754604E+03  0.16294392976E+03  0.86341923714E+02 0.  0.
         23    2    1    2    0    0  0.15323770374E+02  0.22127075645E+02 -0.16326463809E+03  0.18976617359E+03  0.92905506690E+02 0.  0.
        -11    1    4    4    0    0 -0.29320201040E+02 -0.75070771235E+01 -0.11047705477E+03  0.11454785038E+03  0.00000000000E+00 0. -1.
         11    1    4    4    0    0  0.44643971413E+02  0.29634152768E+02 -0.52787583321E+02  0.75218323211E+02  0.00000000000E+00 0.  1.
        -13    1    3    3    0    0 -0.22706974250E+02  0.34107532852E+01 -0.27266128854E+02  0.35646622565E+02  0.00000000000E+00 0.  1.
         13    1    3    3    0    0  0.57833433419E+02 -0.72760782445E+02 -0.86981417185E+02  0.12729730719E+03  0.00000000000E+00 0. -1.
         21    1    1    2  502  503  0.10149045714E+01 -0.46767427461E+02 -0.13998561557E+03  0.14759469797E+03  0.00000000000E+00 0. -1.
         21    1    1    2  503  501 -0.51465134113E+02  0.93990380976E+02 -0.23445829538E+02  0.10969302014E+03  0.00000000000E+00 0.  1.
<scales pt_clust_5="13000.00000" pt_clust_6="13000.00000" pt_clust_7="13000.00000" pt_clust_8="13000.00000" pt_clust_9="46.77844" pt_clust_10="97.60277"></scales>
<clustering>
<clus scale="   46.778">  2  9  1 -1</clus>
<clus scale="   86.342">  7  8 -1 -1</clus>
<clus scale="   92.906">  5  6 -1 -1</clus>
<clus scale="   94.240">  2  5  1 -1</clus>
<clus scale="   97.603">  1 10  2 -1</clus>
<clus scale="   46.778">  2  5  1 -1</clus>
</clustering>
</event>
<event>
10    2  0.1898324E-006  0.1050217E+03  0.7546771E-02  0.1270341E+00
         -1   -1    0    0    0  501 -0.00000000000E+00  0.00000000000E+00  0.14317207020E+03  0.14317207020E+03  0.00000000000E+00 0.  1.
          1   -1    0    0  502    0  0.00000000000E+00 -0.00000000000E+00 -0.21992752975E+03  0.21992752975E+03  0.00000000000E+00 0. -1.
         23    2    1    2    0    0 -0.43472469762E+01 -0.40915727638E+02  0.27385579653E+02  0.10183458921E+03  0.89035488780E+02 0.  0.
         23    2    1    2    0    0  0.28171645767E+02  0.65567002232E+02 -0.71939551774E+02  0.13530481011E+03  0.89662807906E+02 0.  0.
        -11    1    3    3    0    0  0.37382223043E+02  0.13536798594E+01  0.26753532908E+01  0.37502274118E+02  0.00000000000E+00 0.  1.
         11    1    3    3    0    0 -0.41729470019E+02 -0.42269407497E+02  0.24710226362E+02  0.64332315092E+02  0.00000000000E+00 0. -1.
        -13    1    4    4    0    0  0.14510280841E+02 -0.16943175539E+02  0.36133025471E+01  0.22598128302E+02  0.00000000000E+00 0. -1.
         13    1    4    4    0    0  0.13661364926E+02  0.82510177771E+02 -0.75552854322E+02  0.11270668181E+03  0.00000000000E+00 0.  1.
         21    1    1    2  502  503  0.13264726858E+02 -0.24527745447E+02 -0.68565164744E+02  0.74018545593E+02  0.00000000000E+00 0. -1.
         21    1    1    2  503  501 -0.37089125649E+02 -0.12352914675E+00  0.36363677315E+02  0.51941655044E+02  0.00000000000E+00 0.  1.
<scales pt_clust_5="13000.00000" pt_clust_6="13000.00000" pt_clust_7="13000.00000" pt_clust_8="13000.00000" pt_clust_9="27.88482" pt_clust_10="36.42127"></scales>
<clustering>
<clus scale="   27.885">  2  9  1 -1</clus>
<clus scale="   36.421">  1 10  2 -1</clus>
<clus scale="   89.035">  5  6 -1 -1</clus>
<clus scale="   89.663">  7  8 -1 -1</clus>
<clus scale="  104.487">  1  5  2 -1</clus>
<clus scale="   27.885">  2  5  1 -1</clus>
</clustering>
</event>
<event>
10    2  0.1951532E-006  0.1358903E+03  0.7546771E-02  0.1219531E+00
         -1   -1    0    0    0  501 -0.00000000000E+00  0.00000000000E+00  0.16020938231E+03  0.16020938231E+03  0.00000000000E+00 0.  1.
          1   -1    0    0  502    0  0.00000000000E+00 -0.00000000000E+00 -0.39104397354E+03  0.39104397354E+03  0.00000000000E+00 0. -1.
         23    2    1    2    0    0  0.43140904128E+02 -0.60297006429E+02  0.90290679978E+02  0.14875246250E+03  0.92076172893E+02 0.  0.
         23    2    1    2    0    0 -0.78066993792E+02  0.96797549179E+02 -0.26578012283E+03  0.30683833768E+03  0.89702122215E+02 0.  0.
        -11    1    3    3    0    0 -0.20311394519E+02  0.10660610073E+02  0.15326614021E+02  0.27588157818E+02  0.00000000000E+00 0. -1.
         11    1    3    3    0    0  0.63452298647E+02 -0.70957616503E+02  0.74964065956E+02  0.12116430468E+03  0.00000000000E+00 0.  1.
        -11    1    4    4    0    0  0.14475564038E+02  0.44464538035E+02 -0.73203788783E+02  0.86864444907E+02  0.00000000000E+00 0.  1.
         11    1    4    4    0    0 -0.92542557830E+02  0.52333011144E+02 -0.19257633405E+03  0.21997389277E+03  0.00000000000E+00 0. -1.
         21    1    1    2  502  503  0.23367313249E+02 -0.12061669698E+02 -0.62406859238E+02  0.67720981124E+02  0.00000000000E+00 0. -1.
         21    1    1    2  503  501  0.11558776415E+02 -0.24438873052E+02  0.70617108588E+01  0.27941574553E+02  0.00000000000E+00 0.  1.
<scales pt_clust_5="13000.00000" pt_clust_6="13000.00000" pt_clust_7="13000.00000" pt_clust_8="13000.00000" pt_clust_9="26.29668" pt_clust_10="27.70838"></scales>
<clustering>
<clus scale="   26.297">  2  9  1 -1</clus>
<clus scale="   27.708">  1 10  2 -1</clus>
<clus scale="   89.702">  7  8 -1 -1</clus>
<clus scale="   92.076">  5  6 -1 -1</clus>
<clus scale="  134.293">  2  7  1 -1</clus>
<clus scale="   26.297">  2  5  1 -1</clus>
</clustering>
</event>
<event>
10    2  0.1898324E-006  0.1109121E+03  0.7546771E-02  0.1261482E+00
         -1   -1    0    0    0  501 -0.00000000000E+00  0.00000000000E+00  0.22178142972E+03  0.22178142972E+03  0.00000000000E+00 0.  1.
          1   -1    0    0  502    0  0.00000000000E+00 -0.00000000000E+00 -0.56316311340E+03  0.56316311340E+03  0.00000000000E+00 0. -1.
         23    2    1    2    0    0 -0.80728521364E+02  0.13799756486E+02  0.17474627541E+03  0.21048715221E+03  0.84030072193E+02 0.  0.
         23    2    1    2    0    0 -0.44920857210E+00 -0.38562389429E+02 -0.17296833803E+03  0.19914238707E+03  0.90842637010E+02 0.  0.
        -11    1    3    3    0    0 -0.86380120049E+02  0.34893865758E+02  0.12281741507E+03  0.15415324989E+03  0.00000000000E+00 0.  1.
         11    1    3    3    0    0  0.56515986852E+01 -0.21094109272E+02  0.51928860345E+02  0.56333902318E+02  0.00000000000E+00 0. -1.
        -13    1    4    4    0    0  0.45053945290E+02 -0.19348165283E+02 -0.78899738386E+02  0.92894446569E+02  0.00000000000E+00 0.  1.
         13    1    4    4    0    0 -0.45503153862E+02 -0.19214224146E+02 -0.94068599648E+02  0.10624794050E+03  0.00000000000E+00 0. -1.
         21    1    1    2  502  503  0.71641494580E+02  0.43515050110E+02 -0.34419219154E+03  0.35425178623E+03  0.00000000000E+00 0. -1.
         21    1    1    2  503  501  0.95362353555E+01 -0.18752417166E+02  0.10325704731E+01  0.21063217611E+02  0.00000000000E+00 0.  1.
<scales pt_clust_5="13000.00000" pt_clust_6="13000.00000" pt_clust_7="13000.00000" pt_clust_8="13000.00000" pt_clust_9="83.78529" pt_clust_10="21.03789"></scales>
<clustering>
<clus scale="   21.038">  1 10  2 -1</clus>
<clus scale="   83.785">  2  9  1 -1</clus>
<clus scale="   84.030">  5  6 -1 -1</clus>
<clus scale="   90.843">  7  8 -1 -1</clus>
<clus scale="  105.405">  1  5  2 -1</clus>
<clus scale="   83.785">  2  5  1 -1</clus>
</clustering>
</event>
<event>
10    2  0.1898324E-006  0.1335608E+03  0.7546771E-02  0.1225678E+00
          1   -1    0    0  502    0  0.00000000000E+00  0.00000000000E+00  0.56126998000E+03  0.56126998000E+03  0.00000000000E+00 0. -1.
         -1   -1    0    0    0  501 -0.00000000000E+00 -0.00000000000E+00 -0.11594059767E+03  0.11594059767E+03  0.00000000000E+00 0.  1.
         23    2    1    2    0    0 -0.56670611856E+02 -0.91671965812E+02  0.11054240018E+02  0.14185704980E+03  0.91574662384E+02 0.  0.
         23    2    1    2    0    0  0.60475149025E+02  0.99885261905E+02  0.19705329581E+03  0.24183324890E+03  0.77582276915E+02 0.  0.
        -11    1    3    3    0    0 -0.22121195918E+02  0.16152012024E+02  0.82212622823E+01  0.28597621488E+02  0.00000000000E+00 0.  1.
         11    1    3    3    0    0 -0.34549415939E+02 -0.10782397784E+03  0.28329777362E+01  0.11325942831E+03  0.00000000000E+00 0. -1.
        -11    1    4    4    0    0  0.32680954078E+02  0.11482111150E+02  0.10757930093E+03  0.11301853664E+03  0.00000000000E+00 0. -1.
         11    1    4    4    0    0  0.27794194947E+02  0.88403150754E+02  0.89473994879E+02  0.12881471226E+03  0.00000000000E+00 0.  1.
         21    1    1    2  502  503 -0.36730249336E+01 -0.38346093637E+02  0.25542653145E+03  0.25831497629E+03  0.00000000000E+00 0. -1.
         21    1    1    2  503  501 -0.13151223468E+00  0.30132797544E+02 -0.18204684936E+02  0.35205302682E+02  0.00000000000E+00 0.  1.
<scales pt_clust_5="13000.00000" pt_clust_6="13000.00000" pt_clust_7="13000.00000" pt_clust_8="13000.00000" pt_clust_9="38.03638" pt_clust_10="30.13308"></scales>
<clustering>
<clus scale="   30.133">  2 10  1 -1</clus>
<clus scale="   38.036">  1  9  2 -1</clus>
<clus scale="   77.582">  7  8 -1 -1</clus>
<clus scale="   91.575">  5  6 -1 -1</clus>
<clus scale="  124.385">  1  7  2 -1</clus>
<clus scale="   38.036">  1  5  2 -1</clus>
</clustering>
</event>
<event>
10    2  0.1898324E-006  0.1187364E+03  0.7546771E-02  0.1246273E+00
          1   -1    0    0  502    0  0.00000000000E+00  0.00000000000E+00  0.23171810198E+03  0.23171810198E+03  0.00000000000E+00 0. -1.
         -1   -1    0    0    0  501 -0.00000000000E+00 -0.00000000000E+00 -0.24617596099E+03  0.24617596099E+03  0.00000000000E+00 0.  1.
         23    2    1    2    0    0 -0.99836048408E+02  0.78865073830E+02  0.18567788824E+02  0.15797180280E+03  0.91779035000E+02 0.  0.
         23    2    1    2    0    0  0.17765652101E+02 -0.25104463079E+02  0.25321789283E+02  0.10299575231E+03  0.94979363660E+02 0.  0.
        -11    1    3    3    0    0 -0.11915229988E+02 -0.18535161031E+02 -0.91570555324E+01  0.23861612815E+02  0.00000000000E+00 0.  1.
         11    1    3    3    0    0 -0.87920818420E+02  0.97400234861E+02  0.27724844356E+02  0.13411018998E+03  0.00000000000E+00 0. -1.
        -13    1    4    4    0    0  0.60501125976E+01 -0.57239956311E+02  0.35105367233E+02  0.67419605972E+02  0.00000000000E+00 0.  1.
         13    1    4    4    0    0  0.11715539503E+02  0.32135493231E+02 -0.97835779496E+01  0.35576146342E+02  0.00000000000E+00 0. -1.
         21    1    1    2  502  503  0.33224570864E+02 -0.85647992551E+01  0.66850383357E+02  0.75141211398E+02  0.00000000000E+00 0.  1.
         21    1    1    2  503  501  0.48845825443E+02 -0.45195811495E+02 -0.12519782048E+03  0.14178529646E+03  0.00000000000E+00 0.  1.
<scales pt_clust_5="13000.00000" pt_clust_6="13000.00000" pt_clust_7="13000.00000" pt_clust_8="13000.00000" pt_clust_9="34.31075" pt_clust_10="68.11132"></scales>
<clustering>
<clus scale="   34.311">  1  9  2 -1</clus>
<clus scale="   68.111">  2 10  1 -1</clus>
<clus scale="   91.779">  5  6 -1 -1</clus>
<clus scale="   94.979">  7  8 -1 -1</clus>
<clus scale="  116.192">  2  5  1 -1</clus>
<clus scale="   34.311">  1  5  2 -1</clus>
</clustering>
</event>
<event>
10    2  0.1898324E-006  0.1422775E+03  0.7546771E-02  0.1210432E+00
          2   -1    0    0  502    0  0.00000000000E+00  0.00000000000E+00  0.33542551217E+03  0.33542551217E+03  0.00000000000E+00 0. -1.
         -2   -1    0    0    0  501 -0.00000000000E+00 -0.00000000000E+00 -0.18556402581E+03  0.18556402581E+03  0.00000000000E+00 0.  1.
         23    2    1    2    0    0  0.18223195672E+02  0.12303173766E+03 -0.13056986784E+02  0.15462095924E+03  0.90929988448E+02 0.  0.
         23    2    1    2    0    0  0.89442233075E+01 -0.90517932228E+02  0.16330887097E+03  0.20759396392E+03  0.90288267973E+02 0.  0.
        -11    1    3    3    0    0 -0.10913851326E+02  0.32863714244E+02 -0.43031333896E+02  0.55234333177E+02  0.00000000000E+00 0.  1.
         11    1    3    3    0    0  0.29137046998E+02  0.90168023421E+02  0.29974347112E+02  0.99386626063E+02  0.00000000000E+00 0. -1.
        -11    1    4    4    0    0 -0.19170127915E+02  0.58062218902E+01  0.58265629807E+01  0.20860365603E+02  0.00000000000E+00 0.  1.
         11    1    4    4    0    0  0.28114351223E+02 -0.96324154118E+02  0.15748230799E+03  0.18673359832E+03  0.00000000000E+00 0. -1.
         21    1    1    2  502  503 -0.50773806094E+02 -0.17204725274E+02  0.66964045278E+02  0.85779748874E+02  0.00000000000E+00 0. -1.
         21    1    1    2  503  501  0.23606387114E+02 -0.15309080163E+02 -0.67354443105E+02  0.72994865943E+02  0.00000000000E+00 0. -1.
<scales pt_clust_5="13000.00000" pt_clust_6="13000.00000" pt_clust_7="13000.00000" pt_clust_8="13000.00000" pt_clust_9="52.21828" pt_clust_10="28.13591"></scales>
<clustering>
<clus scale="   28.136">  2 10  1 -1</clus>
<clus scale="   52.218">  1  9  2 -1</clus>
<clus scale="   90.288">  7  8 -1 -1</clus>
<clus scale="   90.930">  5  6 -1 -1</clus>
<clus scale="  141.868">  1  7  2 -1</clus>
<clus scale="   52.218">  1  5  2 -1</clus>
</clustering>
</event>
<event>
10    2  0.1898324E-006  0.1192642E+03  0.7546771E-02  0.1244568E+00
          2   -1    0    0  503    0  0.00000000000E+00  0.00000000000E+00  0.74134901862E+03  0.74134901862E+03  0.00000000000E+00 0. -1.
         -2   -1    0    0    0  501 -0.00000000000E+00 -0.00000000000E+00 -0.35218369611E+02  0.35218369611E+02  0.00000000000E+00 0.  1.
         23    2    1    2    0    0 -0.64484170828E+02 -0.57389636550E+02  0.14526280057E+03  0.19138632772E+03  0.89864712417E+02 0.  0.
         23    2    1    2    0    0  0.46479375857E+02  0.33217947672E+02  0.38539879216E+03  0.40001932031E+03  0.90661255230E+02 0.  0.
        -11    1    4    4    0    0  0.67211255110E+02  0.26931212579E+00  0.21652687608E+03  0.22671857755E+03  0.00000000000E+00 0.  1.
         11    1    4    4    0    0 -0.20731879253E+02  0.32948635547E+02  0.16887191608E+03  0.17330074276E+03  0.00000000000E+00 0. -1.
        -11    1    3    3    0    0  0.22293341406E+02 -0.37912326137E+01  0.26422142781E+02  0.34777811100E+02  0.00000000000E+00 0. -1.
         11    1    3    3    0    0 -0.86777512234E+02 -0.53598403937E+02  0.11884065779E+03  0.15660851662E+03  0.00000000000E+00 0.  1.
         21    1    1    2  502  501 -0.11040716337E+01  0.35611577983E+02  0.12539053161E+03  0.13035409037E+03  0.00000000000E+00 0. -1.
         21    1    1    2  503  502  0.19108866604E+02 -0.11439889105E+02  0.50078524673E+02  0.54807649823E+02  0.00000000000E+00 0. -1.
<scales pt_clust_5="13000.00000" pt_clust_6="13000.00000" pt_clust_7="13000.00000" pt_clust_8="13000.00000" pt_clust_9="33.57713" pt_clust_10="22.27150"></scales>
<clustering>
<clus scale="   22.272">  1 10  2 -1</clus>
<clus scale="   33.577">  1  9  2 -1</clus>
<clus scale="   89.865">  7  8 -1 -1</clus>
<clus scale="   90.661">  5  6 -1 -1</clus>
<clus scale="  118.660">  2  7  1 -1</clus>
<clus scale="   22.272">  1  5  2 -1</clus>
</clustering>
</event>
<event>
10    2  0.1898324E-006  0.9105243E+02  0.7546771E-02  0.1300404E+00
         -1   -1    0    0    0  501 -0.00000000000E+00  0.00000000000E+00  0.15249628583E+03  0.15249628583E+03  0.00000000000E+00 0.  1.
          1   -1    0    0  502    0  0.00000000000E+00 -0.00000000000E+00 -0.37845477398E+03  0.37845477398E+03  0.00000000000E+00 0. -1.
         23    2    1    2    0    0 -0.82866079156E+01 -0.25465470154E+01  0.10086917147E+03  0.13561831792E+03  0.90236276686E+02 0.  0.
         23    2    1    2    0    0  0.37023387770E+02 -0.14110398974E+02 -0.89807752969E+02  0.13324028144E+03  0.90098310209E+02 0.  0.
        -13    1    3    3    0    0  0.88572540341E+01  0.29405777116E+02  0.93767216334E+02  0.98668341103E+02  0.00000000000E+00 0.  1.
         13    1    3    3    0    0 -0.17143861950E+02 -0.31952324132E+02  0.71019551320E+01  0.36949976816E+02  0.00000000000E+00 0. -1.
        -13    1    4    4    0    0  0.49220890437E+02  0.26045255050E+02 -0.42873618999E+02  0.70279432070E+02  0.00000000000E+00 0. -1.
         13    1    4    4    0    0 -0.12197502666E+02 -0.40155654024E+02 -0.46934133970E+02  0.62960849366E+02  0.00000000000E+00 0.  1.
         21    1    1    2  502  503 -0.80024527364E+01 -0.30020461953E+02 -0.19046861745E+03  0.19298591041E+03  0.00000000000E+00 0. -1.
         21    1    1    2  503  501 -0.20734327118E+02  0.46677407942E+02 -0.46551289202E+02  0.69106550049E+02  0.00000000000E+00 0. -1.
<scales pt_clust_5="13000.00000" pt_clust_6="13000.00000" pt_clust_7="13000.00000" pt_clust_8="13000.00000" pt_clust_9="31.06875" pt_clust_10="44.00119"></scales>
<clustering>
<clus scale="   31.069">  2  9  1 -1</clus>
<clus scale="   44.001">  2 10  1 -1</clus>
<clus scale="   90.098">  7  8 -1 -1</clus>
<clus scale="   90.236">  5  6 -1 -1</clus>
<clus scale="   90.916">  2  7  1 -1</clus>
<clus scale="   31.069">  2  5  1 -1</clus>
</clustering>
</event>
<event>
10    2  0.1898324E-006  0.9565348E+02  0.7546771E-02  0.1292984E+00
         -3   -1    0    0    0  501 -0.00000000000E+00  0.00000000000E+00  0.22715688785E+03  0.22715688785E+03  0.00000000000E+00 0.  1.
          3   -1    0    0  502    0  0.00000000000E+00 -0.00000000000E+00 -0.10249122241E+03  0.10249122241E+03  0.00000000000E+00 0. -1.
         23    2    1    2    0    0 -0.95177057062E+01  0.87386480637E+01  0.10550269272E+03  0.14288402716E+03  0.95488618974E+02 0.  0.
         23    2    1    2    0    0 -0.94668132875E+01 -0.22625308749E+02  0.69429317205E+01  0.93349095377E+02  0.89801582152E+02 0.  0.
        -11    1    3    3    0    0  0.38384385913E+02  0.21141036235E+02  0.31932232246E+02  0.54221508197E+02  0.00000000000E+00 0.  1.
         11    1    3    3    0    0 -0.47902091619E+02 -0.12402388171E+02  0.73570460473E+02  0.88662518958E+02  0.00000000000E+00 0. -1.
        -11    1    4    4    0    0 -0.22425672622E+02 -0.52713564349E+02  0.15777482920E+02  0.59418512488E+02  0.00000000000E+00 0. -1.
         11    1    4    4    0    0  0.12958859334E+02  0.30088255600E+02 -0.88345511995E+01  0.33930582890E+02  0.00000000000E+00 0.  1.
         21    1    1    2  502  503  0.79904970247E+01  0.33761272315E+02 -0.29743921291E+02  0.45698713383E+02  0.00000000000E+00 0.  1.
         21    1    1    2  503  501  0.10994021969E+02 -0.19874611630E+02  0.41963962289E+02  0.47716274346E+02  0.00000000000E+00 0. -1.
<scales pt_clust_5="13000.00000" pt_clust_6="13000.00000" pt_clust_7="13000.00000" pt_clust_8="13000.00000" pt_clust_9="33.96509" pt_clust_10="22.71274"></scales>
<clustering>
<clus scale="   22.713">  1 10  2 -1</clus>
<clus scale="   33.965">  2  9  1 -1</clus>
<clus scale="   89.802">  7  8 -1 -1</clus>
<clus scale="   89.977">  2  7  1 -1</clus>
<clus scale="   95.489">  5  6 -1 -1</clus>
<clus scale="   33.965">  2  5  1 -1</clus>
</clustering>
</event>
<event>
10    2  0.1898324E-006  0.1540189E+03  0.7546771E-02  0.1212809E+00
          1   -1    0    0  502    0  0.00000000000E+00  0.00000000000E+00  0.52752931733E+03  0.52752931733E+03  0.00000000000E+00 0. -1.
         -1   -1    0    0    0  501 -0.00000000000E+00 -0.00000000000E+00 -0.10196878837E+03  0.10196878837E+03  0.00000000000E+00 0.  1.
         23    2    1    2    0    0  0.74247347603E+02  0.24910297889E+02  0.26158316405E+03  0.28839243373E+03  0.92796834836E+02 0.  0.
         23    2    1    2    0    0  0.52516162373E+02  0.23040066689E+02  0.15877733907E+03  0.19108244806E+03  0.89517967869E+02 0.  0.
        -11    1    3    3    0    0  0.39489314525E+02 -0.27749418967E+02  0.17319340646E+03  0.17979263682E+03  0.00000000000E+00 0. -1.
         11    1    3    3    0    0  0.34758033078E+02  0.52659716857E+02  0.88389757586E+02  0.10859979691E+03  0.00000000000E+00 0.  1.
        -11    1    4    4    0    0  0.11515684206E+01  0.46084268605E+02  0.46478733269E+02  0.65462650183E+02  0.00000000000E+00 0.  1.
         11    1    4    4    0    0  0.51364593953E+02 -0.23044201917E+02  0.11229860581E+03  0.12561979788E+03  0.00000000000E+00 0. -1.
         21    1    1    2  502  503 -0.57200279839E+02  0.31665058398E+01  0.23259383049E+02  0.61829585739E+02  0.00000000000E+00 0.  1.
         21    1    1    2  503  501 -0.69563230138E+02 -0.51116870418E+02 -0.18059357216E+02  0.88193638158E+02  0.00000000000E+00 0.  1.
<scales pt_clust_5="13000.00000" pt_clust_6="13000.00000" pt_clust_7="13000.00000" pt_clust_8="13000.00000" pt_clust_9="52.23652" pt_clust_10="138.64442"></scales>
<clustering>
<clus scale="   52.237">  9 10 -1 -1</clus>
<clus scale="   89.518">  7  8 -1 -1</clus>
<clus scale="   92.797">  5  6 -1 -1</clus>
<clus scale="  106.312">  1  7  2 -1</clus>
<clus scale="  138.644">  2  9  1 -1</clus>
<clus scale="  106.312">  1  5  2 -1</clus>
</clustering>
</event>
<event>
10    2  0.1898324E-006  0.3615543E+03  0.7546771E-02  0.1058252E+00
          2   -1    0    0  502    0  0.00000000000E+00  0.00000000000E+00  0.37651982523E+03  0.37651982523E+03  0.00000000000E+00 0. -1.
         -2   -1    0    0    0  501 -0.00000000000E+00 -0.00000000000E+00 -0.66102432387E+03  0.66102432387E+03  0.00000000000E+00 0.  1.
         23    2    1    2    0    0  0.23262340050E+03 -0.27083294723E+03 -0.66208010814E+02  0.37761963078E+03  0.10367715800E+03 0.  0.
         23    2    1    2    0    0 -0.24380447406E+03  0.23319080433E+03 -0.90096637410E+02  0.36143354381E+03  0.93264300400E+02 0.  0.
        -13    1    3    3    0    0  0.23571467018E+02 -0.73847663619E+02  0.15357256716E+02  0.79024912611E+02  0.00000000000E+00 0. -1.
         13    1    3    3    0    0  0.20905193348E+03 -0.19698528361E+03 -0.81565267530E+02  0.29859471817E+03  0.00000000000E+00 0.  1.
        -13    1    4    4    0    0 -0.19129902862E+02  0.63931421864E+02 -0.32817427948E+02  0.74365068831E+02  0.00000000000E+00 0.  1.
         13    1    4    4    0    0 -0.22467457119E+03  0.16925938246E+03 -0.57279209462E+02  0.28706847498E+03  0.00000000000E+00 0. -1.
         21    1    1    2  502  503  0.16724332851E+02 -0.18840152878E+02  0.79385653511E+02  0.83287073746E+02  0.00000000000E+00 0.  1.
         21    1    1    2  503  501 -0.55432592947E+01  0.56482295780E+02 -0.20758550393E+03  0.21520390076E+03  0.00000000000E+00 0. -1.
<scales pt_clust_5="13000.00000" pt_clust_6="13000.00000" pt_clust_7="13000.00000" pt_clust_8="13000.00000" pt_clust_9="25.19235" pt_clust_10="56.49094"></scales>
<clustering>
<clus scale="   25.192">  1  9  2 -1</clus>
<clus scale="   56.491">  2 10  1 -1</clus>
<clus scale="   93.264">  7  8 -1 -1</clus>
<clus scale="  103.677">  5  6 -1 -1</clus>
<clus scale="  358.707">  1  7  2 -1</clus>
<clus scale="   25.192">  1  5  2 -1</clus>
</clustering>
</event>
<event>
10    2  0.1898324E-006  0.1784675E+03  0.7546771E-02  0.1169693E+00
          1   -1    0    0  502    0  0.00000000000E+00  0.00000000000E+00  0.18485309425E+03  0.18485309425E+03  0.00000000000E+00 0. -1.
         -1   -1    0    0    0  501 -0.00000000000E+00 -0.00000000000E+00 -0.85315012869E+03  0.85315012869E+03  0.00000000000E+00 0.  1.
         23    2    1    2    0    0  0.86791140746E+02  0.12306743403E+03 -0.63602625886E+03  0.65965630856E+03  0.89099652295E+02 0.  0.
         23    2    1    2    0    0 -0.12144719978E+03 -0.68983940980E+02  0.10747887545E+03  0.19893506162E+03  0.92278077721E+02 0.  0.
        -11    1    4    4    0    0 -0.10887618098E+03 -0.90972964191E+02  0.87687217227E+02  0.16679074034E+03  0.00000000000E+00 0. -1.
         11    1    4    4    0    0 -0.12571018795E+02  0.21989023212E+02  0.19791658220E+02  0.32144321278E+02  0.00000000000E+00 0.  1.
        -11    1    3    3    0    0  0.77964673550E+02  0.35479615462E+02 -0.27379190643E+03  0.28687854828E+03  0.00000000000E+00 0.  1.
         11    1    3    3    0    0  0.88264671962E+01  0.87587818569E+02 -0.36223435242E+03  0.37277776028E+03  0.00000000000E+00 0. -1.
         21    1    1    2  502  503  0.84605613140E+01 -0.37246977366E+02 -0.20669614218E+01  0.38251676436E+02  0.00000000000E+00 0.  1.
         21    1    1    2  503  501  0.26195497718E+02 -0.16836515686E+02 -0.13768268961E+03  0.14116017632E+03  0.00000000000E+00 0. -1.
<scales pt_clust_5="13000.00000" pt_clust_6="13000.00000" pt_clust_7="13000.00000" pt_clust_8="13000.00000" pt_clust_9="38.82831" pt_clust_10="31.13956"></scales>
<clustering>
<clus scale="   31.140">  2 10  1 -1</clus>
<clus scale="   38.828">  1  9  2 -1</clus>
<clus scale="   89.100">  7  8 -1 -1</clus>
<clus scale="   92.278">  5  6 -1 -1</clus>
<clus scale="  176.845">  2  7  1 -1</clus>
<clus scale="   38.828">  1  5  2 -1</clus>
</clustering>
</event>
<event>
10    2  0.1898324E-006  0.1121237E+03  0.7546771E-02  0.1257041E+00
         -1   -1    0    0    0  501 -0.00000000000E+00  0.00000000000E+00  0.90551703101E+02  0.90551703101E+02  0.00000000000E+00 0.  1.
          1   -1    0    0  502    0  0.00000000000E+00 -0.00000000000E+00 -0.69131989642E+03  0.69131989642E+03  0.00000000000E+00 0. -1.
         23    2    1    2    0    0 -0.66558963211E+02  0.17995756447E+01 -0.25225315890E+02  0.11585478507E+03  0.91393000857E+02 0.  0.
         23    2    1    2    0    0  0.33189163679E+02  0.71903279450E+02 -0.74835781711E+02  0.14282610623E+03  0.92343382090E+02 0.  0.
        -11    1    4    4    0    0  0.93598289891E+01  0.87815321098E+02 -0.72165695946E+02  0.11404834365E+03  0.00000000000E+00 0.  1.
         11    1    4    4    0    0  0.23829334690E+02 -0.15912041648E+02 -0.26700857659E+01  0.28777762582E+02  0.00000000000E+00 0. -1.
        -13    1    3    3    0    0 -0.59918791886E+02  0.39412927008E+02 -0.32577623059E+01  0.71793129557E+02  0.00000000000E+00 0. -1.
         13    1    3    3    0    0 -0.66401713251E+01 -0.37613351364E+02 -0.21967553584E+02  0.44061655513E+02  0.00000000000E+00 0.  1.
         21    1    1    2  502  503  0.52631784607E+02 -0.45747004450E+02 -0.47630175637E+03  0.48137953456E+03  0.00000000000E+00 0. -1.
         21    1    1    2  503  501 -0.19261985076E+02 -0.27955850645E+02 -0.24405339346E+02  0.41811173661E+02  0.00000000000E+00 0. -1.
<scales pt_clust_5="13000.00000" pt_clust_6="13000.00000" pt_clust_7="13000.00000" pt_clust_8="13000.00000" pt_clust_9="69.86021" pt_clust_10="33.94928"></scales>
<clustering>
<clus scale="   33.949">  1 10  2 -1</clus>
<clus scale="   69.860">  2  9  1 -1</clus>
<clus scale="   91.393">  7  8 -1 -1</clus>
<clus scale="   92.343">  5  6 -1 -1</clus>
<clus scale="  111.342">  1  7  2 -1</clus>
<clus scale="   69.860">  2  5  1 -1</clus>
</clustering>
</event>
<event>
10    2  0.1898324E-006  0.1249300E+03  0.7546771E-02  0.1238450E+00
         -1   -1    0    0    0  501 -0.00000000000E+00  0.00000000000E+00  0.13048279059E+03  0.13048279059E+03  0.00000000000E+00 0.  1.
          1   -1    0    0  502    0  0.00000000000E+00 -0.00000000000E+00 -0.39683608440E+03  0.39683608440E+03  0.00000000000E+00 0. -1.
         23    2    1    2    0    0  0.34539538541E+02 -0.36510001958E+02 -0.51880702710E+01  0.11149811570E+03  0.99392926141E+02 0.  0.
         23    2    1    2    0    0 -0.10063735326E+03  0.29167616032E+02 -0.15574289678E+03  0.20775439072E+03  0.89036005470E+02 0.  0.
        -11    1    4    4    0    0 -0.37531113562E+02  0.30634162513E+02 -0.10761069754E+02  0.49626978755E+02  0.00000000000E+00 0.  1.
         11    1    4    4    0    0 -0.63106239703E+02 -0.14665464815E+01 -0.14498182702E+03  0.15812741197E+03  0.00000000000E+00 0. -1.
        -13    1    3    3    0    0  0.63835850954E+02 -0.23338054290E+02  0.19809447373E+02  0.70796149968E+02  0.00000000000E+00 0.  1.
         13    1    3    3    0    0 -0.29296312414E+02 -0.13171947668E+02 -0.24997517644E+02  0.40701965736E+02  0.00000000000E+00 0. -1.
         21    1    1    2  502  503  0.37073669933E+02  0.19407628170E+02 -0.14875803105E+03  0.15453175996E+03  0.00000000000E+00 0. -1.
         21    1    1    2  503  501  0.29024144791E+02 -0.12065242244E+02  0.43335704296E+02  0.53534608601E+02  0.00000000000E+00 0.  1.
<scales pt_clust_5="13000.00000" pt_clust_6="13000.00000" pt_clust_7="13000.00000" pt_clust_8="13000.00000" pt_clust_9="42.56265" pt_clust_10="31.43201"></scales>
<clustering>
<clus scale="   31.432">  1 10  2 -1</clus>
<clus scale="   42.563">  2  9  1 -1</clus>
<clus scale="   89.036">  5  6 -1 -1</clus>
<clus scale="   99.393">  7  8 -1 -1</clus>
<clus scale="  116.859">  2  5  1 -1</clus>
<clus scale="   42.563">  2  5  1 -1</clus>
</clustering>
</event>
<event>
10    2  0.1898324E-006  0.1161924E+03  0.7546771E-02  0.1249782E+00
          3   -1    0    0  502    0  0.00000000000E+00  0.00000000000E+00  0.14631910846E+03  0.14631910846E+03  0.00000000000E+00 0. -1.
         -3   -1    0    0    0  501 -0.00000000000E+00 -0.00000000000E+00 -0.20874228931E+03  0.20874228931E+03  0.00000000000E+00 0.  1.
         23    2    1    2    0    0  0.51748958458E+02 -0.98307305915E+01 -0.53936843303E+02  0.11914133789E+03  0.92254416493E+02 0.  0.
         23    2    1    2    0    0 -0.92308056817E+02 -0.22796570932E+02 -0.63290329727E+02  0.14731243379E+03  0.93031318988E+02 0.  0.
        -11    1    3    3    0    0  0.45471692578E+02 -0.42812696895E+02 -0.58111789842E+02  0.85308744921E+02  0.00000000000E+00 0. -1.
         11    1    3    3    0    0  0.62772658803E+01  0.32981966304E+02  0.41749465394E+01  0.33832592966E+02  0.00000000000E+00 0.  1.
        -13    1    4    4    0    0 -0.51870338309E+02 -0.35488329662E+02  0.90240729544E+01  0.63493207756E+02  0.00000000000E+00 0. -1.
         13    1    4    4    0    0 -0.40437718509E+02  0.12691758731E+02 -0.72314402682E+02  0.83819226035E+02  0.00000000000E+00 0.  1.
         21    1    1    2  502  503  0.13644697214E+02  0.20530402418E+02  0.53689947408E+02  0.59078639441E+02  0.00000000000E+00 0.  1.
         21    1    1    2  503  501  0.26914401146E+02  0.12096899106E+02  0.11140447784E+01  0.29528986653E+02  0.00000000000E+00 0.  1.
<scales pt_clust_5="13000.00000" pt_clust_6="13000.00000" pt_clust_7="13000.00000" pt_clust_8="13000.00000" pt_clust_9="24.65107" pt_clust_10="33.13766"></scales>
<clustering>
<clus scale="   24.651">  1  9  2 -1</clus>
<clus scale="   33.138">  1 10  2 -1</clus>
<clus scale="   92.254">  5  6 -1 -1</clus>
<clus scale="   93.031">  7  8 -1 -1</clus>
<clus scale="  115.571">  2  5  1 -1</clus>
<clus scale="   24.651">  1  5  2 -1</clus>
</clustering>
</event>
<event>
10    2  0.1898324E-006  0.1162135E+03  0.7546771E-02  0.1249747E+00
          1   -1    0    0  502    0  0.00000000000E+00  0.00000000000E+00  0.35708592727E+03  0.35708592727E+03  0.00000000000E+00 0. -1.
         -1   -1    0    0    0  501 -0.00000000000E+00 -0.00000000000E+00 -0.14333671515E+03  0.14333671515E+03  0.00000000000E+00 0.  1.
         23    2    1    2    0    0  0.36107964746E+02 -0.35372840933E+01 -0.46204446796E+02  0.10934158099E+03  0.92219482389E+02 0.  0.
         23    2    1    2    0    0 -0.94849385008E+02  0.93272881155E+01  0.10831324862E+03  0.17165195931E+03  0.93001242828E+02 0.  0.
        -11    1    3    3    0    0  0.34489851211E+01 -0.22653266114E+02  0.21729329419E+02  0.31578944267E+02  0.00000000000E+00 0. -1.
         11    1    3    3    0    0  0.32658979625E+02  0.19115982021E+02 -0.67933776215E+02  0.77762636720E+02  0.00000000000E+00 0.  1.
        -13    1    4    4    0    0 -0.10498102522E+03 -0.88268715060E+01  0.65487263508E+02  0.12404640663E+03  0.00000000000E+00 0. -1.
         13    1    4    4    0    0  0.10131640210E+02  0.18154159621E+02  0.42825985110E+02  0.47605552675E+02  0.00000000000E+00 0.  1.
         21    1    1    2  502  503  0.21280870547E+02  0.86022872601E+01  0.17262440897E+03  0.17414379509E+03  0.00000000000E+00 0.  1.
         21    1    1    2  503  501  0.37460549715E+02 -0.14392291282E+02 -0.20983998671E+02  0.45285307038E+02  0.00000000000E+00 0.  1.
<scales pt_clust_5="13000.00000" pt_clust_6="13000.00000" pt_clust_7="13000.00000" pt_clust_8="13000.00000" pt_clust_9="22.95375" pt_clust_10="41.25307"></scales>
<clustering>
<clus scale="   22.954">  1  9  2 -1</clus>
<clus scale="   41.253">  2 10  1 -1</clus>
<clus scale="   92.219">  5  6 -1 -1</clus>
<clus scale="   93.001">  7  8 -1 -1</clus>
<clus scale="  115.589">  2  5  1 -1</clus>
<clus scale="   22.954">  1  5  2 -1</clus>
</clustering>
</event>
<event>
10    2  0.1898324E-006  0.1090293E+03  0.7546771E-02  0.1262692E+00
          1   -1    0    0  502    0  0.00000000000E+00  0.00000000000E+00  0.44724550175E+03  0.44724550175E+03  0.00000000000E+00 0. -1.
         -1   -1    0    0    0  501 -0.00000000000E+00 -0.00000000000E+00 -0.95847458635E+02  0.95847458635E+02  0.00000000000E+00 0.  1.
         23    2    1    2    0    0 -0.14750773352E+02  0.26647378958E+02  0.33893452632E+02  0.10156558314E+03  0.90769672405E+02 0.  0.
         23    2    1    2    0    0  0.24800285501E+02 -0.94489156655E+02  0.51351720380E+02  0.14238788695E+03  0.89966973256E+02 0.  0.
        -11    1    3    3    0    0 -0.38106729958E+02  0.30760410392E+01 -0.16164916142E+02  0.41507703025E+02  0.00000000000E+00 0.  1.
         11    1    3    3    0    0  0.23355956606E+02  0.23571337919E+02  0.50058368773E+02  0.60057880120E+02  0.00000000000E+00 0. -1.
        -13    1    4    4    0    0 -0.27869990154E+02 -0.16596129168E+02 -0.49181573457E+01  0.32807866834E+02  0.00000000000E+00 0.  1.
         13    1    4    4    0    0  0.52670275655E+02 -0.77893027487E+02  0.56269877725E+02  0.10958002011E+03  0.00000000000E+00 0. -1.
         21    1    1    2  502  503 -0.15673105282E+02  0.45368017891E+02  0.27121214480E+03  0.27542681562E+03  0.00000000000E+00 0.  1.
         21    1    1    2  503  501  0.56235931326E+01  0.22473759807E+02 -0.50592746963E+01  0.23712674670E+02  0.00000000000E+00 0. -1.
<scales pt_clust_5="13000.00000" pt_clust_6="13000.00000" pt_clust_7="13000.00000" pt_clust_8="13000.00000" pt_clust_9="48.50210" pt_clust_10="23.16667"></scales>
<clustering>
<clus scale="   23.167">  2 10  1 -1</clus>
<clus scale="   48.502">  1  9  2 -1</clus>
<clus scale="   89.967">  7  8 -1 -1</clus>
<clus scale="   90.770">  5  6 -1 -1</clus>
<clus scale="  108.362">  1  7  2 -1</clus>
<clus scale="   48.502">  1  5  2 -1</clus>
</clustering>
</event>
<event>
10    2  0.1898324E-006  0.1448570E+03  0.7546771E-02  0.1219305E+00
         -2   -1    0    0    0  501 -0.00000000000E+00  0.00000000000E+00  0.11479767956E+03  0.11479767956E+03  0.00000000000E+00 0.  1.
          2   -1    0    0  502    0  0.00000000000E+00 -0.00000000000E+00 -0.80874237291E+03  0.80874237291E+03  0.00000000000E+00 0. -1.
         23    2    1    2    0    0 -0.27399722139E+02  0.27221273631E+02 -0.32183109291E+02  0.10397879464E+03  0.91017002258E+02 0.  0.
         23    2    1    2    0    0 -0.42492453186E+02 -0.13342814841E+03 -0.15841246979E+03  0.23011228136E+03  0.90821099308E+02 0.  0.
        -11    1    3    3    0    0 -0.57065054189E+02  0.35971758591E+02 -0.17216666026E+02  0.69618973095E+02  0.00000000000E+00 0.  1.
         11    1    3    3    0    0  0.29665332050E+02 -0.87504849604E+01 -0.14966443265E+02  0.34359821546E+02  0.00000000000E+00 0. -1.
        -11    1    4    4    0    0 -0.65806233449E+02 -0.10076872884E+03 -0.14353656531E+03  0.18731669080E+03  0.00000000000E+00 0.  1.
         11    1    4    4    0    0  0.23313780262E+02 -0.32659419572E+02 -0.14875904488E+02  0.42795590558E+02  0.00000000000E+00 0. -1.
         21    1    1    2  502  503  0.98088493560E+02  0.56953654991E+02 -0.51845728678E+03  0.53071935107E+03  0.00000000000E+00 0. -1.
         21    1    1    2  503  501 -0.28196318234E+02  0.49253219792E+02  0.15108172525E+02  0.58729625394E+02  0.00000000000E+00 0.  1.
<scales pt_clust_5="13000.00000" pt_clust_6="13000.00000" pt_clust_7="13000.00000" pt_clust_8="13000.00000" pt_clust_9="112.84978" pt_clust_10="56.75308"></scales>
<clustering>
<clus scale="   56.753">  1 10  2 -1</clus>
<clus scale="   90.821">  7  8 -1 -1</clus>
<clus scale="   91.017">  5  6 -1 -1</clus>
<clus scale="  111.393">  1  5  2 -1</clus>
<clus scale="  112.850">  2  9  1 -1</clus>
<clus scale="  112.850">  2  5  1 -1</clus>
</clustering>
</event>
<event>
10    2  0.1898324E-006  0.1735149E+03  0.7546771E-02  0.1176847E+00
         -1   -1    0    0    0  501 -0.00000000000E+00  0.00000000000E+00  0.94876607554E+02  0.94876607554E+02  0.00000000000E+00 0.  1.
          1   -1    0    0  502    0  0.00000000000E+00 -0.00000000000E+00 -0.10063345273E+04  0.10063345273E+04  0.00000000000E+00 0. -1.
         23    2    1    2    0    0  0.76171660739E+02 -0.93171406878E+02 -0.37149673745E+02  0.14378230502E+03  0.69355749706E+02 0.  0.
         23    2    1    2    0    0 -0.15971808214E+03  0.10335303448E+03 -0.57525760490E+03  0.61260774780E+03  0.90416951780E+02 0.  0.
        -11    1    4    4    0    0 -0.85282574201E+02  0.33526419797E+01 -0.25724399975E+03  0.27103290036E+03  0.00000000000E+00 0.  1.
         11    1    4    4    0    0 -0.74435507941E+02  0.10000039250E+03 -0.31801360515E+03  0.34157484744E+03  0.00000000000E+00 0. -1.
        -11    1    3    3    0    0  0.85738978346E+02 -0.61860963912E+02 -0.23468736002E+02  0.10829927439E+03  0.00000000000E+00 0.  1.
         11    1    3    3    0    0 -0.95673176070E+01 -0.31310442966E+02 -0.13680937743E+02  0.35483030627E+02  0.00000000000E+00 0. -1.
         21    1    1    2  502  503  0.88506489993E+02  0.34840918644E+02 -0.27994279884E+03  0.29566071603E+03  0.00000000000E+00 0.  1.
         21    1    1    2  503  501 -0.49600685902E+01 -0.45022546242E+02 -0.19107842270E+02  0.49160366015E+02  0.00000000000E+00 0.  1.
<scales pt_clust_5="13000.00000" pt_clust_6="13000.00000" pt_clust_7="13000.00000" pt_clust_8="13000.00000" pt_clust_9="93.12345" pt_clust_10="45.29494"></scales>
<clustering>
<clus scale="   45.295">  1 10  2 -1</clus>
<clus scale="   69.356">  7  8 -1 -1</clus>
<clus scale="   90.417">  5  6 -1 -1</clus>
<clus scale="   93.123">  2  9  1 -1</clus>
<clus scale="  163.531">  1  7  2 -1</clus>
<clus scale="   93.123">  2  5  1 -1</clus>
</clustering>
</event>
<event>
10    2  0.1898324E-006  0.1266403E+03  0.7546771E-02  0.1234159E+00
          1   -1    0    0  502    0  0.00000000000E+00  0.00000000000E+00  0.56516130977E+03  0.56516130977E+03  0.00000000000E+00 0. -1.
         -1   -1    0    0    0  501 -0.00000000000E+00 -0.00000000000E+00 -0.10489102783E+03  0.10489102783E+03  0.00000000000E+00 0.  1.
         23    2    1    2    0    0 -0.45963902141E+02 -0.77527223307E+02  0.21758361453E+03  0.25154422004E+03  0.88366932004E+02 0.  0.
         23    2    1    2    0    0  0.18999911613E+02  0.80189308527E+02  0.28630220740E+03  0.31242294661E+03  0.94062860674E+02 0.  0.
        -11    1    3    3    0    0 -0.60361073066E+02 -0.40356842858E+02  0.18907469676E+03  0.20253734190E+03  0.00000000000E+00 0.  1.
         11    1    3    3    0    0  0.14397170925E+02 -0.37170380449E+02  0.28508917767E+02  0.49006878146E+02  0.00000000000E+00 0. -1.
        -13    1    4    4    0    0  0.55308212959E+02  0.47575616758E+02  0.20502541543E+03  0.21761860835E+03  0.00000000000E+00 0. -1.
         13    1    4    4    0    0 -0.36308301346E+02  0.32613691769E+02  0.81276791976E+02  0.94804338252E+02  0.00000000000E+00 0.  1.
         21    1    1    2  502  503  0.19229922163E+02  0.20115232622E+02  0.22463902976E+02  0.35763660701E+02  0.00000000000E+00 0. -1.
         21    1    1    2  503  501  0.77340683655E+01 -0.22777317843E+02 -0.66079442969E+02  0.70321510256E+02  0.00000000000E+00 0.  1.
<scales pt_clust_5="13000.00000" pt_clust_6="13000.00000" pt_clust_7="13000.00000" pt_clust_8="13000.00000" pt_clust_9="26.10077" pt_clust_10="24.05456"></scales>
<clustering>
<clus scale="   24.055">  2 10  1 -1</clus>
<clus scale="   26.101">  2  9  1 -1</clus>
<clus scale="   88.367">  5  6 -1 -1</clus>
<clus scale="   94.063">  7  8 -1 -1</clus>
<clus scale="  122.469">  2  5  1 -1</clus>
<clus scale="  126.640">  1  5  2 -1</clus>
</clustering>
</event>
<event>
10    2  0.1898324E-006  0.3102017E+03  0.7546771E-02  0.1080283E+00
          1   -1    0    0  502    0  0.00000000000E+00  0.00000000000E+00  0.19044480798E+04  0.19044480798E+04  0.00000000000E+00 0. -1.
         -1   -1    0    0    0  501 -0.00000000000E+00 -0.00000000000E+00 -0.31803871440E+03  0.31803871440E+03  0.00000000000E+00 0.  1.
         23    2    1    2    0    0 -0.45636152662E+03 -0.37670174705E+02  0.80812791435E+03  0.93321472765E+03  0.90189339222E+02 0.  0.
         23    2    1    2    0    0  0.25502065765E+03 -0.29715750230E+02  0.90753217569E+03  0.94754605566E+03  0.91160934882E+02 0.  0.
        -11    1    3    3    0    0 -0.17035796794E+03  0.86683341080E+01  0.22786532359E+03  0.28463939108E+03  0.00000000000E+00 0.  1.
         11    1    3    3    0    0 -0.28600355867E+03 -0.46338508813E+02  0.58026259076E+03  0.64857533657E+03  0.00000000000E+00 0. -1.
        -13    1    4    4    0    0  0.64762310207E+02 -0.44846780043E+02  0.33094801288E+03  0.34019402954E+03  0.00000000000E+00 0.  1.
         13    1    4    4    0    0  0.19025834744E+03  0.15131029813E+02  0.57658416281E+03  0.60735202612E+03  0.00000000000E+00 0. -1.
         21    1    1    2  502  503 -0.25165678009E+02  0.55505438426E+01  0.43270335049E+02  0.50363099407E+02  0.00000000000E+00 0. -1.
         21    1    1    2  503  501  0.22650654698E+03  0.61835381092E+02 -0.17252105966E+03  0.29136291151E+03  0.00000000000E+00 0.  1.
<scales pt_clust_5="13000.00000" pt_clust_6="13000.00000" pt_clust_7="13000.00000" pt_clust_8="13000.00000" pt_clust_9="25.77052" pt_clust_10="234.06580"></scales>
<clustering>
<clus scale="   25.771">  1  9  2 -1</clus>
<clus scale="   90.189">  5  6 -1 -1</clus>
<clus scale="   91.161">  7  8 -1 -1</clus>
<clus scale="  234.066">  2 10  1 -1</clus>
<clus scale="  309.918">  2  5  1 -1</clus>
<clus scale="   25.771">  1  5  2 -1</clus>
</clustering>
</event>
<event>
10    2  0.1898324E-006  0.1898278E+03  0.7546771E-02  0.1159074E+00
          2   -1    0    0  502    0  0.00000000000E+00  0.00000000000E+00  0.39247365814E+02  0.39247365814E+02  0.00000000000E+00 0. -1.
         -2   -1    0    0    0  501 -0.00000000000E+00 -0.00000000000E+00 -0.14069083515E+04  0.14069083515E+04  0.00000000000E+00 0.  1.
         23    2    1    2    0    0  0.53220816810E+02  0.15578910731E+03 -0.85925416275E+03  0.87966013533E+03  0.91550730102E+02 0.  0.
         23    2    1    2    0    0 -0.43477725606E+02 -0.15108784012E+03 -0.34044294255E+03  0.38699080392E+03  0.95617138273E+02 0.  0.
        -11    1    3    3    0    0  0.37659934978E+02  0.12975096144E+03 -0.81428139697E+03  0.82541370000E+03  0.00000000000E+00 0.  1.
         11    1    3    3    0    0  0.15560881831E+02  0.26038145869E+02 -0.44972765777E+02  0.54246435324E+02  0.00000000000E+00 0. -1.
        -13    1    4    4    0    0  0.15730320188E+02 -0.92103205180E+02 -0.12621011793E+03  0.15703323612E+03  0.00000000000E+00 0.  1.
         13    1    4    4    0    0 -0.59208045794E+02 -0.58984634939E+02 -0.21423282461E+03  0.22995756780E+03  0.00000000000E+00 0. -1.
         21    1    1    2  502  503  0.12601365421E+02 -0.16361120179E+02 -0.17870456127E+02  0.27309959103E+02  0.00000000000E+00 0. -1.
         21    1    1    2  503  501 -0.22344456625E+02  0.11659852986E+02 -0.15009342427E+03  0.15219481898E+03  0.00000000000E+00 0.  1.
<scales pt_clust_5="13000.00000" pt_clust_6="13000.00000" pt_clust_7="13000.00000" pt_clust_8="13000.00000" pt_clust_9="20.65141" pt_clust_10="24.63483"></scales>
<clustering>
<clus scale="   20.651">  1  9  2 -1</clus>
<clus scale="   24.635">  2 10  1 -1</clus>
<clus scale="   91.551">  5  6 -1 -1</clus>
<clus scale="   95.617">  7  8 -1 -1</clus>
<clus scale="  187.812">  2  5  1 -1</clus>
<clus scale="   20.651">  1  5  2 -1</clus>
</clustering>
</event>
<event>
10    2  0.1898324E-006  0.1118262E+03  0.7546771E-02  0.1259846E+00
         -1   -1    0    0    0  501 -0.00000000000E+00  0.00000000000E+00  0.45406645926E+03  0.45406645926E+03  0.00000000000E+00 0.  1.
          1   -1    0    0  502    0  0.00000000000E+00 -0.00000000000E+00 -0.46311067192E+02  0.46311067192E+02  0.00000000000E+00 0. -1.
         23    2    1    2    0    0  0.23509210235E+02  0.63773557530E+02  0.14605057764E+03  0.18466371267E+03  0.90278269479E+02 0.  0.
         23    2    1    2    0    0 -0.23898780548E+02 -0.56794572244E+02  0.17931194663E+03  0.20705658900E+03  0.83203856255E+02 0.  0.
        -11    1    4    4    0    0  0.21158898272E+02 -0.52012716958E+02  0.11935694412E+03  0.13190565496E+03  0.00000000000E+00 0. -1.
         11    1    4    4    0    0 -0.45057678820E+02 -0.47818552858E+01  0.59955002513E+02  0.75150934039E+02  0.00000000000E+00 0.  1.
        -11    1    3    3    0    0  0.33352638512E+02  0.40503973279E+02  0.15016263935E+03  0.15906535954E+03  0.00000000000E+00 0.  1.
         11    1    3    3    0    0 -0.98434282763E+01  0.23269584251E+02 -0.41120617108E+01  0.25598353130E+02  0.00000000000E+00 0. -1.
         21    1    1    2  502  503  0.25442531149E+02  0.15934134514E+02  0.15835660952E+02  0.33940936813E+02  0.00000000000E+00 0.  1.
         21    1    1    2  503  501 -0.25052960836E+02 -0.22913119801E+02  0.66557206845E+02  0.74716287974E+02  0.00000000000E+00 0. -1.
<scales pt_clust_5="13000.00000" pt_clust_6="13000.00000" pt_clust_7="13000.00000" pt_clust_8="13000.00000" pt_clust_9="30.02031" pt_clust_10="30.72345"></scales>
<clustering>
<clus scale="   30.020">  2  9  1 -1</clus>
<clus scale="   30.723">  1 10  2 -1</clus>
<clus scale="   83.204">  5  6 -1 -1</clus>
<clus scale="   90.278">  7  8 -1 -1</clus>
<clus scale="  106.197">  2  5  1 -1</clus>
<clus scale="   30.020">  2  5  1 -1</clus>
</clustering>
</event>
<event>
10    2  0.1898324E-006  0.1187937E+03  0.7546771E-02  0.1245340E+00
          1   -1    0    0  502    0  0.00000000000E+00  0.00000000000E+00  0.22004062068E+03  0.22004062068E+03  0.00000000000E+00 0. -1.
         -1   -1    0    0    0  501 -0.00000000000E+00 -0.00000000000E+00 -0.30124063878E+03  0.30124063878E+03  0.00000000000E+00 0.  1.
         23    2    1    2    0    0 -0.68028892201E+01 -0.86837282508E+02 -0.24122632165E+03  0.27287628873E+03  0.93189794284E+02 0.  0.
         23    2    1    2    0    0 -0.27791064737E+02  0.49660953307E+02  0.97795055442E+02  0.14704500327E+03  0.93913825160E+02 0.  0.
        -11    1    3    3    0    0  0.40134339629E+02 -0.43022181641E+02 -0.15165331511E+03  0.16266653409E+03  0.00000000000E+00 0.  1.
         11    1    3    3    0    0 -0.46937228849E+02 -0.43815100867E+02 -0.89573006542E+02  0.11020975464E+03  0.00000000000E+00 0. -1.
        -13    1    4    4    0    0  0.32540587172E-02 -0.26087746828E+02  0.40152968091E+02  0.47883518998E+02  0.00000000000E+00 0.  1.
         13    1    4    4    0    0 -0.27794318795E+02  0.75748700135E+02  0.57642087351E+02  0.99161484275E+02  0.00000000000E+00 0. -1.
         21    1    1    2  502  503  0.15963072237E+02  0.24378385004E+02  0.71285161705E+02  0.77011035637E+02  0.00000000000E+00 0. -1.
         21    1    1    2  503  501  0.18630881720E+02  0.12797944197E+02 -0.90539136021E+01  0.24348931822E+02  0.00000000000E+00 0. -1.
<scales pt_clust_5="13000.00000" pt_clust_6="13000.00000" pt_clust_7="13000.00000" pt_clust_8="13000.00000" pt_clust_9="29.35030" pt_clust_10="22.60303"></scales>
<clustering>
<clus scale="   22.603">  2 10  1 -1</clus>
<clus scale="   29.350">  1  9  2 -1</clus>
<clus scale="   93.190">  5  6 -1 -1</clus>
<clus scale="   93.914">  7  8 -1 -1</clus>
<clus scale="  118.222">  2  5  1 -1</clus>
<clus scale="   29.350">  1  5  2 -1</clus>
</clustering>
</event>
<event>
10    2  0.1898324E-006  0.1143269E+03  0.7546771E-02  0.1260551E+00
          2   -1    0    0  502    0  0.00000000000E+00  0.00000000000E+00  0.99117641532E+03  0.99117641532E+03  0.00000000000E+00 0. -1.
         -2   -1    0    0    0  501 -0.00000000000E+00 -0.00000000000E+00 -0.39281622164E+02  0.39281622164E+02  0.00000000000E+00 0.  1.
         23    2    1    2    0    0 -0.57080367389E+02  0.20044567831E+02  0.14115782954E+03  0.17362348298E+03  0.80991530179E+02 0.  0.
         23    2    1    2    0    0 -0.10166579480E+02 -0.88769370699E+02  0.59037685360E+03  0.60543524482E+03  0.10011815968E+03 0.  0.
        -13    1    4    4    0    0 -0.31852160087E+02  0.92371182504E+01  0.17378253124E+03  0.17691877407E+03  0.00000000000E+00 0.  1.
         13    1    4    4    0    0  0.21685580606E+02 -0.98006488949E+02  0.41659432236E+03  0.42851647075E+03  0.00000000000E+00 0. -1.
        -13    1    3    3    0    0 -0.43733341229E+02  0.48947725746E+02  0.11502326330E+03  0.13243427083E+03  0.00000000000E+00 0.  1.
         13    1    3    3    0    0 -0.13347026160E+02 -0.28903157915E+02  0.26134566242E+02  0.41189212149E+02  0.00000000000E+00 0. -1.
         21    1    1    2  502  503  0.53120137657E+02  0.53119649608E+02  0.21755940656E+03  0.23016416225E+03  0.00000000000E+00 0.  1.
         21    1    1    2  503  501  0.14126809212E+02  0.15605153259E+02  0.28007034562E+01  0.21235147435E+02  0.00000000000E+00 0.  1.
<scales pt_clust_5="13000.00000" pt_clust_6="13000.00000" pt_clust_7="13000.00000" pt_clust_8="13000.00000" pt_clust_9="79.53035" pt_clust_10="21.04964"></scales>
<clustering>
<clus scale="   21.050">  2 10  1 -1</clus>
<clus scale="   79.530">  1  9  2 -1</clus>
<clus scale="   80.992">  7  8 -1 -1</clus>
<clus scale="   98.013">  2  7  1 -1</clus>
<clus scale="  100.118">  5  6 -1 -1</clus>
<clus scale="   79.530">  1  5  2 -1</clus>
</clustering>
</event>
<event>
10    2  0.1898324E-006  0.1762862E+03  0.7546771E-02  0.1171911E+00
         -1   -1    0    0    0  501 -0.00000000000E+00  0.00000000000E+00  0.12491828940E+03  0.12491828940E+03  0.00000000000E+00 0.  1.
          1   -1    0    0  502    0  0.00000000000E+00 -0.00000000000E+00 -0.43930292540E+03  0.43930292540E+03  0.00000000000E+00 0. -1.
         23    2    1    2    0    0 -0.13720390196E+03  0.76836541004E+02 -0.68630208525E+02  0.19454893305E+03  0.91708326134E+02 0.  0.
         23    2    1    2    0    0  0.13620081008E+03 -0.72937827872E+02 -0.15141902216E+03  0.23357574248E+03  0.88087001312E+02 0.  0.
        -11    1    4    4    0    0  0.62308039238E+02 -0.57032531269E+02 -0.12996831600E+03  0.15500569196E+03  0.00000000000E+00 0. -1.
         11    1    4    4    0    0  0.73892770846E+02 -0.15905296603E+02 -0.21450706160E+02  0.78570050517E+02  0.00000000000E+00 0.  1.
        -13    1    3    3    0    0 -0.72754073884E+02  0.90534154069E+02 -0.44646586215E+02  0.12443032581E+03  0.00000000000E+00 0. -1.
         13    1    3    3    0    0 -0.64449828073E+02 -0.13697613065E+02 -0.23983622310E+02  0.70118607241E+02  0.00000000000E+00 0.  1.
         21    1    1    2  502  503 -0.60108335911E+01  0.38279685595E+02 -0.83400941824E+02  0.91962935723E+02  0.00000000000E+00 0. -1.
         21    1    1    2  503  501  0.70139254636E+01 -0.42178398727E+02 -0.10934463488E+02  0.44133603539E+02  0.00000000000E+00 0. -1.
<scales pt_clust_5="13000.00000" pt_clust_6="13000.00000" pt_clust_7="13000.00000" pt_clust_8="13000.00000" pt_clust_9="38.74873" pt_clust_10="39.72348"></scales>
<clustering>
<clus scale="   38.749">  2  9  1 -1</clus>
<clus scale="   39.723">  1 10  2 -1</clus>
<clus scale="   88.087">  5  6 -1 -1</clus>
<clus scale="   91.708">  7  8 -1 -1</clus>
<clus scale="  174.430">  2  5  1 -1</clus>
<clus scale="   38.749">  2  5  1 -1</clus>
</clustering>
</event>
<event>
10    2  0.1898324E-006  0.1043742E+03  0.7546771E-02  0.1272430E+00
          1   -1    0    0  502    0  0.00000000000E+00  0.00000000000E+00  0.90466840355E+03  0.90466840355E+03  0.00000000000E+00 0. -1.
         -1   -1    0    0    0  501 -0.00000000000E+00 -0.00000000000E+00 -0.25495237226E+02  0.25495237226E+02  0.00000000000E+00 0.  1.
         23    2    1    2    0    0 -0.51662585095E+02 -0.33531000338E+02  0.25232412329E+03  0.27538261904E+03  0.91513785801E+02 0.  0.
         23    2    1    2    0    0  0.29879329639E+00  0.56005777095E+02  0.29966757240E+03  0.31760191265E+03  0.89070672060E+02 0.  0.
        -11    1    4    4    0    0 -0.29969843188E+02 -0.10424495045E+02  0.77347065427E+02  0.83602811722E+02  0.00000000000E+00 0. -1.
         11    1    4    4    0    0  0.30268636485E+02  0.66430272140E+02  0.22232050698E+03  0.23399910092E+03  0.00000000000E+00 0.  1.
        -11    1    3    3    0    0 -0.67068469159E+02  0.25150990332E+00  0.11501136274E+03  0.13313848569E+03  0.00000000000E+00 0.  1.
         11    1    3    3    0    0  0.15405884063E+02 -0.33782510241E+02  0.13731276055E+03  0.14224413335E+03  0.00000000000E+00 0. -1.
         21    1    1    2  502  503  0.23359431866E+02 -0.25491292721E+02  0.28075938167E+03  0.28288036244E+03  0.00000000000E+00 0. -1.
         21    1    1    2  503  501  0.28004359933E+02  0.30165159642E+01  0.46422088964E+02  0.54298746649E+02  0.00000000000E+00 0.  1.
<scales pt_clust_5="13000.00000" pt_clust_6="13000.00000" pt_clust_7="13000.00000" pt_clust_8="13000.00000" pt_clust_9="35.41450" pt_clust_10="28.16635"></scales>
<clustering>
<clus scale="   28.166">  2 10  1 -1</clus>
<clus scale="   35.414">  1  9  2 -1</clus>
<clus scale="   89.071">  5  6 -1 -1</clus>
<clus scale="   91.514">  7  8 -1 -1</clus>
<clus scale="  102.239">  1  5  2 -1</clus>
<clus scale="   35.414">  1  5  2 -1</clus>
</clustering>
</event>
<event>
10    2  0.1898324E-006  0.1793853E+03  0.7546771E-02  0.1169389E+00
         -2   -1    0    0    0  501 -0.00000000000E+00  0.00000000000E+00  0.20893892004E+03  0.20893892004E+03  0.00000000000E+00 0.  1.
          2   -1    0    0  502    0  0.00000000000E+00 -0.00000000000E+00 -0.67461097901E+03  0.67461097901E+03  0.00000000000E+00 0. -1.
         23    2    1    2    0    0  0.11905256914E+03  0.23009259858E+02  0.34956884662E+02  0.15548063227E+03  0.90825673510E+02 0.  0.
         23    2    1    2    0    0 -0.16104958608E+03  0.78490938363E+02 -0.17760987583E+03  0.27077578767E+03  0.98369012474E+02 0.  0.
        -11    1    4    4    0    0 -0.77062494364E+02  0.31705911554E+01 -0.12362250635E+03  0.14570931598E+03  0.00000000000E+00 0.  1.
         11    1    4    4    0    0 -0.83987091717E+02  0.75320347208E+02 -0.53987369472E+02  0.12506647169E+03  0.00000000000E+00 0. -1.
        -13    1    3    3    0    0  0.10439613084E+03 -0.15352461375E+01 -0.70766427626E+01  0.10464696837E+03  0.00000000000E+00 0. -1.
         13    1    3    3    0    0  0.14656438294E+02  0.24544505996E+02  0.42033527424E+02  0.50833663903E+02  0.00000000000E+00 0.  1.
         21    1    1    2  502  503  0.26974136148E+02  0.34429315759E+02 -0.31742273054E+03  0.32042186515E+03  0.00000000000E+00 0. -1.
         21    1    1    2  503  501  0.15022880795E+02 -0.13592951398E+03 -0.55963372659E+01  0.13687161396E+03  0.00000000000E+00 0. -1.
<scales pt_clust_5="13000.00000" pt_clust_6="13000.00000" pt_clust_7="13000.00000" pt_clust_8="13000.00000" pt_clust_9="43.73765" pt_clust_10="130.64088"></scales>
<clustering>
<clus scale="   43.738">  2  9  1 -1</clus>
<clus scale="   90.826">  7  8 -1 -1</clus>
<clus scale="   98.369">  5  6 -1 -1</clus>
<clus scale="  130.641">  1 10  2 -1</clus>
<clus scale="  175.362">  1  7  2 -1</clus>
<clus scale="   43.738">  2  5  1 -1</clus>
</clustering>
</event>
<event>
10    2  0.1898324E-006  0.2307169E+03  0.7546771E-02  0.1137633E+00
         -2   -1    0    0    0  501 -0.00000000000E+00  0.00000000000E+00  0.29094807743E+03  0.29094807743E+03  0.00000000000E+00 0.  1.
          2   -1    0    0  502    0  0.00000000000E+00 -0.00000000000E+00 -0.71962725906E+03  0.71962725906E+03  0.00000000000E+00 0. -1.
         23    2    1    2    0    0 -0.85045806108E+02 -0.44814227876E+02  0.97714719766E+02  0.16704411470E+03  0.95469710591E+02 0.  0.
         23    2    1    2    0    0 -0.10467233619E+03  0.23172632230E+03 -0.36981836913E+03  0.46046753667E+03  0.10301135749E+03 0.  0.
        -11    1    4    4    0    0 -0.88174804944E+02  0.75426737928E+02 -0.17804781500E+03  0.21252061888E+03  0.00000000000E+00 0. -1.
         11    1    4    4    0    0 -0.16497531245E+02  0.15629958437E+03 -0.19177055413E+03  0.24794691779E+03  0.00000000000E+00 0.  1.
        -13    1    3    3    0    0 -0.68476844175E+02  0.15829384258E+02  0.36073283849E+02  0.78999553175E+02  0.00000000000E+00 0.  1.
         13    1    3    3    0    0 -0.16568961933E+02 -0.60643612135E+02  0.61641435917E+02  0.88044561525E+02  0.00000000000E+00 0. -1.
         21    1    1    2  502  503  0.18645732125E+03 -0.60815614379E+02 -0.16548211924E+03  0.25661099624E+03  0.00000000000E+00 0. -1.
         21    1    1    2  503  501  0.32608210435E+01 -0.12609648004E+03  0.89065869770E+01  0.12645268888E+03  0.00000000000E+00 0. -1.
<scales pt_clust_5="13000.00000" pt_clust_6="13000.00000" pt_clust_7="13000.00000" pt_clust_8="13000.00000" pt_clust_9="206.44354" pt_clust_10="126.13863"></scales>
<clustering>
<clus scale="   95.470">  7  8 -1 -1</clus>
<clus scale="  103.011">  5  6 -1 -1</clus>
<clus scale="  126.139">  1 10  2 -1</clus>
<clus scale="  174.130">  1  7  2 -1</clus>
<clus scale="  206.444">  1  9  2 -1</clus>
<clus scale="  230.717">  2  5  1 -1</clus>
</clustering>
</event>
<event>
10    2  0.1898324E-006  0.1055058E+03  0.7546771E-02  0.1271639E+00
          2   -1    0    0  502    0  0.00000000000E+00  0.00000000000E+00  0.36495102827E+03  0.36495102827E+03  0.00000000000E+00 0. -1.
         -2   -1    0    0    0  501 -0.00000000000E+00 -0.00000000000E+00 -0.14479350277E+03  0.14479350277E+03  0.00000000000E+00 0.  1.
         23    2    1    2    0    0  0.75767921445E+02 -0.27567579398E+02 -0.18911154692E+02  0.12725550349E+03  0.96620815786E+02 0.  0.
         23    2    1    2    0    0  0.10389559172E+02  0.45887260744E+02  0.25019022262E+03  0.27039600317E+03  0.91133239801E+02 0.  0.
        -13    1    4    4    0    0 -0.12201745946E+01  0.68965906518E+02  0.22051411321E+03  0.23105033913E+03  0.00000000000E+00 0. -1.
         13    1    4    4    0    0  0.11609733766E+02 -0.23078645773E+02  0.29676109412E+02  0.39345664039E+02  0.00000000000E+00 0.  1.
        -13    1    3    3    0    0  0.58861782779E+02  0.29719157112E+02 -0.13265180909E+02  0.67259964287E+02  0.00000000000E+00 0.  1.
         13    1    3    3    0    0  0.16906138666E+02 -0.57286736510E+02 -0.56459737833E+01  0.59995539205E+02  0.00000000000E+00 0. -1.
         21    1    1    2  502  503 -0.24739510387E+02 -0.81994956674E+01  0.28253377211E+02  0.38438631963E+02  0.00000000000E+00 0. -1.
         21    1    1    2  503  501 -0.61417970230E+02 -0.10120185679E+02 -0.39374919639E+02  0.73654392414E+02  0.00000000000E+00 0. -1.
<scales pt_clust_5="13000.00000" pt_clust_6="13000.00000" pt_clust_7="13000.00000" pt_clust_8="13000.00000" pt_clust_9="26.06291" pt_clust_10="63.57712"></scales>
<clustering>
<clus scale="   26.063">  1  9  2 -1</clus>
<clus scale="   63.577">  2 10  1 -1</clus>
<clus scale="   91.133">  5  6 -1 -1</clus>
<clus scale="   96.621">  7  8 -1 -1</clus>
<clus scale="  100.505">  1  5  2 -1</clus>
<clus scale="   26.063">  1  5  2 -1</clus>
</clustering>
</event>
<event>
10    2  0.1898324E-006  0.1735794E+03  0.7546771E-02  0.1174234E+00
          2   -1    0    0  502    0  0.00000000000E+00  0.00000000000E+00  0.41020521134E+03  0.41020521134E+03  0.00000000000E+00 0. -1.
         -2   -1    0    0    0  501 -0.00000000000E+00 -0.00000000000E+00 -0.21220568863E+03  0.21220568863E+03  0.00000000000E+00 0.  1.
         23    2    1    2    0    0 -0.72806535190E+02 -0.12075261136E+03 -0.28974173859E+02  0.17123645919E+03  0.92738543703E+02 0.  0.
         23    2    1    2    0    0  0.11429458235E+03  0.11416156675E+03  0.27655397111E+03  0.33357517829E+03  0.93242617708E+02 0.  0.
        -11    1    3    3    0    0 -0.47854025029E+02 -0.80157238118E+02 -0.63052650628E+02  0.11265357200E+03  0.00000000000E+00 0.  1.
         11    1    3    3    0    0 -0.24952510162E+02 -0.40595373246E+02  0.34078476769E+02  0.58582887188E+02  0.00000000000E+00 0. -1.
        -13    1    4    4    0    0  0.11954789954E+03  0.63449484490E+02  0.19393569883E+03  0.23649226762E+03  0.00000000000E+00 0. -1.
         13    1    4    4    0    0 -0.52533171875E+01  0.50712082259E+02  0.82618272284E+02  0.97082910668E+02  0.00000000000E+00 0.  1.
         21    1    1    2  502  503 -0.19743966641E+02 -0.51880791075E+01  0.28861617693E+02  0.35351567991E+02  0.00000000000E+00 0.  1.
         21    1    1    2  503  501 -0.21744080518E+02  0.11779123723E+02 -0.78441892238E+02  0.82247694503E+02  0.00000000000E+00 0.  1.
<scales pt_clust_5="13000.00000" pt_clust_6="13000.00000" pt_clust_7="13000.00000" pt_clust_8="13000.00000" pt_clust_9="20.41422" pt_clust_10="24.80463"></scales>
<clustering>
<clus scale="   20.414">  1  9  2 -1</clus>
<clus scale="   24.805">  2 10  1 -1</clus>
<clus scale="   92.739">  5  6 -1 -1</clus>
<clus scale="   93.243">  7  8 -1 -1</clus>
<clus scale="  173.309">  2  5  1 -1</clus>
<clus scale="   20.414">  1  5  2 -1</clus>
</clustering>
</event>
<event>
10    2  0.1898324E-006  0.1971639E+03  0.7546771E-02  0.1152314E+00
         -1   -1    0    0    0  501 -0.00000000000E+00  0.00000000000E+00  0.40130788532E+03  0.40130788532E+03  0.00000000000E+00 0.  1.
          1   -1    0    0  502    0  0.00000000000E+00 -0.00000000000E+00 -0.21566565983E+03  0.21566565983E+03  0.00000000000E+00 0. -1.
         23    2    1    2    0    0 -0.11582459597E+03  0.11074923562E+03  0.21704333855E+03  0.28506820155E+03  0.92061601683E+02 0.  0.
         23    2    1    2    0    0  0.16335378986E+03 -0.10816570612E+03 -0.53652721608E+02  0.22236487833E+03  0.90461284198E+02 0.  0.
        -11    1    3    3    0    0 -0.99250523155E+02  0.97736400157E+02  0.22321388635E+03  0.26311121094E+03  0.00000000000E+00 0.  1.
         11    1    3    3    0    0 -0.16574072814E+02  0.13012835466E+02 -0.61705478023E+01  0.21956990611E+02  0.00000000000E+00 0. -1.
        -13    1    4    4    0    0  0.21608433959E+02  0.90279184747E+01 -0.28258846565E+02  0.36701364270E+02  0.00000000000E+00 0.  1.
         13    1    4    4    0    0  0.14174535590E+03 -0.11719362459E+03 -0.25393875043E+02  0.18566351406E+03  0.00000000000E+00 0. -1.
         21    1    1    2  502  503 -0.24083528843E+02  0.61088046990E+01 -0.37376643160E+02  0.44881480705E+02  0.00000000000E+00 0.  1.
         21    1    1    2  503  501 -0.23445665051E+02 -0.86923342071E+01  0.59628251704E+02  0.64658984565E+02  0.00000000000E+00 0.  1.
<scales pt_clust_5="13000.00000" pt_clust_6="13000.00000" pt_clust_7="13000.00000" pt_clust_8="13000.00000" pt_clust_9="24.84620" pt_clust_10="25.30077"></scales>
<clustering>
<clus scale="   24.846">  2  9  1 -1</clus>
<clus scale="   25.301">  1 10  2 -1</clus>
<clus scale="   90.461">  7  8 -1 -1</clus>
<clus scale="   92.062">  5  6 -1 -1</clus>
<clus scale="  196.422">  2  7  1 -1</clus>
<clus scale="   24.846">  2  5  1 -1</clus>
</clustering>
</event>
<event>
10    2  0.1898324E-006  0.1442960E+03  0.7546771E-02  0.1219559E+00
          2   -1    0    0  502    0  0.00000000000E+00  0.00000000000E+00  0.54921107578E+03  0.54921107578E+03  0.00000000000E+00 0. -1.
         -2   -1    0    0    0  501 -0.00000000000E+00 -0.00000000000E+00 -0.14792756269E+03  0.14792756269E+03  0.00000000000E+00 0.  1.
         23    2    1    2    0    0 -0.10711398031E+03 -0.87098488547E+02  0.12944310887E+02  0.16549018294E+03  0.90332131484E+02 0.  0.
         23    2    1    2    0    0  0.54427356606E+02 -0.29512667334E+02  0.30185878234E+03  0.32156338061E+03  0.91929041077E+02 0.  0.
        -13    1    4    4    0    0  0.15831947200E+02 -0.59098020351E+02  0.14621660352E+03  0.15850085712E+03  0.00000000000E+00 0. -1.
         13    1    4    4    0    0  0.38595409406E+02  0.29585353018E+02  0.15564217882E+03  0.16306252350E+03  0.00000000000E+00 0.  1.
        -13    1    3    3    0    0 -0.31937105238E+02 -0.80843011813E+02  0.21577988794E+02  0.89561045384E+02  0.00000000000E+00 0. -1.
         13    1    3    3    0    0 -0.75176875076E+02 -0.62554767341E+01 -0.86336779071E+01  0.75929137553E+02  0.00000000000E+00 0.  1.
         21    1    1    2  502  503  0.21165953560E+02  0.10913712260E+03  0.11992313247E+03  0.16352512596E+03  0.00000000000E+00 0.  1.
         21    1    1    2  503  501  0.31520670148E+02  0.74740332794E+01 -0.33442712614E+02  0.46559948958E+02  0.00000000000E+00 0.  1.
<scales pt_clust_5="13000.00000" pt_clust_6="13000.00000" pt_clust_7="13000.00000" pt_clust_8="13000.00000" pt_clust_9="112.52308" pt_clust_10="32.39466"></scales>
<clustering>
<clus scale="   32.395">  2 10  1 -1</clus>
<clus scale="   90.332">  7  8 -1 -1</clus>
<clus scale="   91.929">  5  6 -1 -1</clus>
<clus scale="  112.098">  1  5  2 -1</clus>
<clus scale="  112.523">  1  9  2 -1</clus>
<clus scale="  112.098">  1  5  2 -1</clus>
</clustering>
</event>
<event>
10    2  0.1898324E-006  0.1753904E+03  0.7546771E-02  0.1173434E+00
         -3   -1    0    0    0  501 -0.00000000000E+00  0.00000000000E+00  0.16508837170E+03  0.16508837170E+03  0.00000000000E+00 0.  1.
          3   -1    0    0  502    0  0.00000000000E+00 -0.00000000000E+00 -0.61446421198E+03  0.61446421198E+03  0.00000000000E+00 0. -1.
         23    2    1    2    0    0  0.15771474374E+03  0.10211272302E+03  0.19881156826E+02  0.20972711295E+03  0.91045334385E+02 0.  0.
         23    2    1    2    0    0 -0.71419414160E+02 -0.12753474459E+03 -0.41934063392E+03  0.45167171267E+03  0.82431334950E+02 0.  0.
        -11    1    4    4    0    0 -0.69715195704E+02 -0.83884810345E+02 -0.37014423530E+03  0.38588032451E+03  0.00000000000E+00 0.  1.
         11    1    4    4    0    0 -0.17042184551E+01 -0.43649934240E+02 -0.49196398616E+02  0.65791388164E+02  0.00000000000E+00 0. -1.
        -13    1    3    3    0    0  0.15133654416E+03  0.79209740673E+02  0.43447673572E+02  0.17625161830E+03  0.00000000000E+00 0.  1.
         13    1    3    3    0    0  0.63781995819E+01  0.22902982344E+02 -0.23566516746E+02  0.33475494645E+02  0.00000000000E+00 0. -1.
         21    1    1    2  502  503 -0.20319117682E+02  0.14615153701E+02 -0.44529372389E+02  0.51081643146E+02  0.00000000000E+00 0.  1.
         21    1    1    2  503  501 -0.65976211897E+02  0.10806867868E+02 -0.53869907961E+01  0.67072114916E+02  0.00000000000E+00 0. -1.
<scales pt_clust_5="13000.00000" pt_clust_6="13000.00000" pt_clust_7="13000.00000" pt_clust_8="13000.00000" pt_clust_9="25.02937" pt_clust_10="68.29222"></scales>
<clustering>
<clus scale="   25.029">  2  9  1 -1</clus>
<clus scale="   68.292">  1 10  2 -1</clus>
<clus scale="   82.431">  5  6 -1 -1</clus>
<clus scale="   91.045">  7  8 -1 -1</clus>
<clus scale="  171.077">  2  5  1 -1</clus>
<clus scale="   25.029">  2  5  1 -1</clus>
</clustering>
</event>
<event>
10    2  0.1898324E-006  0.1801914E+03  0.7546771E-02  0.1167891E+00
          2   -1    0    0  502    0  0.00000000000E+00  0.00000000000E+00  0.17225042300E+04  0.17225042300E+04  0.00000000000E+00 0. -1.
         -2   -1    0    0    0  501 -0.00000000000E+00 -0.00000000000E+00 -0.53492863070E+02  0.53492863070E+02  0.00000000000E+00 0.  1.
         23    2    1    2    0    0  0.33036380312E+02  0.16266659026E+03  0.47569390112E+03  0.51226652828E+03  0.92630915019E+02 0.  0.
         23    2    1    2    0    0 -0.14604642864E+02 -0.12188213989E+03  0.86796492478E+03  0.88125349730E+03  0.90421591593E+02 0.  0.
        -13    1    4    4    0    0  0.20332308197E+02  0.41101101186E+01  0.88462824370E+02  0.90862352255E+02  0.00000000000E+00 0.  1.
         13    1    4    4    0    0 -0.34936951061E+02 -0.12599225000E+03  0.77950210041E+03  0.79039114504E+03  0.00000000000E+00 0. -1.
        -13    1    3    3    0    0 -0.26869758131E+02  0.72620274797E+02  0.25499116827E+03  0.26648861910E+03  0.00000000000E+00 0. -1.
         13    1    3    3    0    0  0.59906138442E+02  0.90046315466E+02  0.22070273286E+03  0.24577790918E+03  0.00000000000E+00 0.  1.
         21    1    1    2  502  503 -0.22288790145E+02 -0.61114307839E+02  0.34669800405E+03  0.35274814642E+03  0.00000000000E+00 0. -1.
         21    1    1    2  503  501  0.38570526968E+01  0.20329857462E+02 -0.21345462993E+02  0.29728921110E+02  0.00000000000E+00 0.  1.
<scales pt_clust_5="13000.00000" pt_clust_6="13000.00000" pt_clust_7="13000.00000" pt_clust_8="13000.00000" pt_clust_9="62.84320" pt_clust_10="20.69251"></scales>
<clustering>
<clus scale="   20.693">  2 10  1 -1</clus>
<clus scale="   62.843">  1  9  2 -1</clus>
<clus scale="   90.422">  5  6 -1 -1</clus>
<clus scale="   92.631">  7  8 -1 -1</clus>
<clus scale="  179.066">  1  5  2 -1</clus>
<clus scale="   62.843">  1  5  2 -1</clus>
</clustering>
</event>
<event>
10    2  0.1898324E-006  0.1633447E+03  0.7546771E-02  0.1185097E+00
         -2   -1    0    0    0  501 -0.00000000000E+00  0.00000000000E+00  0.93032001053E+02  0.93032001053E+02  0.00000000000E+00 0.  1.
          2   -1    0    0  502    0  0.00000000000E+00 -0.00000000000E+00 -0.41096878117E+03  0.41096878117E+03  0.00000000000E+00 0. -1.
         23    2    1    2    0    0 -0.65816138246E+02  0.13166286894E+03 -0.11301818742E+03  0.20719766456E+03  0.92146005874E+02 0.  0.
         23    2    1    2    0    0  0.15337541133E+02 -0.12356207427E+03 -0.13682741661E+03  0.20703640195E+03  0.92948929149E+02 0.  0.
        -11    1    3    3    0    0  0.27706132054E+01  0.67368743043E+02 -0.10736226237E+02  0.68275108132E+02  0.00000000000E+00 0.  1.
         11    1    3    3    0    0 -0.68586751452E+02  0.64294125896E+02 -0.10228196118E+03  0.13892255642E+03  0.00000000000E+00 0. -1.
        -13    1    4    4    0    0  0.52190458584E+02 -0.96223043659E+02 -0.98132376841E+02  0.14701252152E+03  0.00000000000E+00 0.  1.
         13    1    4    4    0    0 -0.36852917451E+02 -0.27339030610E+02 -0.38695039771E+02  0.60023880433E+02  0.00000000000E+00 0. -1.
         21    1    1    2  502  503  0.22370075370E+02 -0.16735112489E+02 -0.42073009563E+02  0.50503686953E+02  0.00000000000E+00 0.  1.
         21    1    1    2  503  501  0.28108521743E+02  0.86343178187E+01 -0.26018166525E+02  0.39263028768E+02  0.00000000000E+00 0.  1.
<scales pt_clust_5="13000.00000" pt_clust_6="13000.00000" pt_clust_7="13000.00000" pt_clust_8="13000.00000" pt_clust_9="27.70592" pt_clust_10="58.49491"></scales>
<clustering>
<clus scale="   27.706">  9 10 -1 -1</clus>
<clus scale="   58.495">  2  9  1 -1</clus>
<clus scale="   92.146">  5  6 -1 -1</clus>
<clus scale="   92.949">  7  8 -1 -1</clus>
<clus scale="  162.889">  1  5  2 -1</clus>
<clus scale="   58.495">  2  5  1 -1</clus>
</clustering>
</event>
<event>
10    2  0.1898324E-006  0.2389377E+03  0.7546771E-02  0.1120563E+00
          1   -1    0    0  502    0  0.00000000000E+00  0.00000000000E+00  0.39647660701E+03  0.39647660701E+03  0.00000000000E+00 0. -1.
         -1   -1    0    0    0  501 -0.00000000000E+00 -0.00000000000E+00 -0.23693707150E+03  0.23693707150E+03  0.00000000000E+00 0.  1.
         23    2    1    2    0    0  0.10259645210E+02  0.21752942136E+03  0.11510788541E+03  0.26377444789E+03  0.94354780478E+02 0.  0.
         23    2    1    2    0    0 -0.15584294761E+02 -0.22067390740E+03  0.85619589948E+02  0.25495157249E+03  0.93433112352E+02 0.  0.
        -11    1    3    3    0    0  0.60928136369E+01  0.17431805436E+03  0.43063932911E+02  0.17966192911E+03  0.00000000000E+00 0.  1.
         11    1    3    3    0    0  0.41668315729E+01  0.43211366995E+02  0.72043952501E+02  0.84112518776E+02  0.00000000000E+00 0. -1.
        -13    1    4    4    0    0  0.34982491395E+02 -0.12255632047E+03  0.28220996479E+02  0.13053831251E+03  0.00000000000E+00 0.  1.
         13    1    4    4    0    0 -0.50566786155E+02 -0.98117586932E+02  0.57398593469E+02  0.12441325998E+03  0.00000000000E+00 0. -1.
         21    1    1    2  502  503 -0.82198187771E+01  0.34651896293E+02  0.22660446061E+02  0.42211552365E+02  0.00000000000E+00 0. -1.
         21    1    1    2  503  501  0.13544468328E+02 -0.31507410250E+02 -0.63848385917E+02  0.72476105767E+02  0.00000000000E+00 0.  1.
<scales pt_clust_5="13000.00000" pt_clust_6="13000.00000" pt_clust_7="13000.00000" pt_clust_8="13000.00000" pt_clust_9="33.65848" pt_clust_10="34.29533"></scales>
<clustering>
<clus scale="   34.295">  2 10  1 -1</clus>
<clus scale="   33.658">  1  9  2 -1</clus>
<clus scale="   93.433">  7  8 -1 -1</clus>
<clus scale="   94.355">  5  6 -1 -1</clus>
<clus scale="  238.575">  1  7  2 -1</clus>
<clus scale="   33.658">  1  5  2 -1</clus>
</clustering>
</event>
<event>
10    2  0.1898324E-006  0.1632663E+03  0.7546771E-02  0.1188836E+00
         -1   -1    0    0    0  501 -0.00000000000E+00  0.00000000000E+00  0.18665898769E+03  0.18665898769E+03  0.00000000000E+00 0.  1.
          1   -1    0    0  502    0  0.00000000000E+00 -0.00000000000E+00 -0.46663242045E+03  0.46663242045E+03  0.00000000000E+00 0. -1.
         23    2    1    2    0    0 -0.63373187487E+02  0.93271330467E+02 -0.52103509200E+02  0.15047995050E+03  0.84933726231E+02 0.  0.
         23    2    1    2    0    0  0.36965982795E+02 -0.12484112533E+03 -0.24084886359E+03  0.29375612221E+03  0.10645512568E+03 0.  0.
        -11    1    4    4    0    0 -0.21475292090E+02 -0.68161846284E+02 -0.52841458224E+02  0.88878822936E+02  0.00000000000E+00 0.  1.
         11    1    4    4    0    0  0.58441274885E+02 -0.56679279048E+02 -0.18800740537E+03  0.20487729927E+03  0.00000000000E+00 0. -1.
        -11    1    3    3    0    0 -0.12463064600E+02  0.50322816420E+02  0.16944737927E+02  0.54542075273E+02  0.00000000000E+00 0.  1.
         11    1    3    3    0    0 -0.50910122887E+02  0.42948514046E+02 -0.69048247127E+02  0.95937875224E+02  0.00000000000E+00 0. -1.
         21    1    1    2  502  503  0.45871718874E+02  0.17071687323E+02 -0.90435443264E+02  0.10283105805E+03  0.00000000000E+00 0.  1.
         21    1    1    2  503  501 -0.19464514183E+02  0.14498107542E+02  0.10341438330E+03  0.10622427739E+03  0.00000000000E+00 0.  1.
<scales pt_clust_5="13000.00000" pt_clust_6="13000.00000" pt_clust_7="13000.00000" pt_clust_8="13000.00000" pt_clust_9="47.97173" pt_clust_10="24.27061"></scales>
<clustering>
<clus scale="   24.271">  1 10  2 -1</clus>
<clus scale="   47.972">  2  9  1 -1</clus>
<clus scale="   84.934">  7  8 -1 -1</clus>
<clus scale="  106.455">  5  6 -1 -1</clus>
<clus scale="  150.123">  1  7  2 -1</clus>
<clus scale="   47.972">  2  5  1 -1</clus>
</clustering>
</event>
<event>
10    2  0.1898324E-006  0.1356858E+03  0.7546771E-02  0.1220645E+00
          1   -1    0    0  502    0  0.00000000000E+00  0.00000000000E+00  0.32427279902E+03  0.32427279902E+03  0.00000000000E+00 0. -1.
         -1   -1    0    0    0  501 -0.00000000000E+00 -0.00000000000E+00 -0.11415900486E+03  0.11415900486E+03  0.00000000000E+00 0.  1.
         23    2    1    2    0    0  0.39475535982E+02 -0.94790690467E+02  0.23634144120E+02  0.14082572596E+03  0.93432967329E+02 0.  0.
         23    2    1    2    0    0  0.14002566558E+02  0.79779416911E+02  0.13515917807E+03  0.18601730022E+03  0.98861546278E+02 0.  0.
        -11    1    4    4    0    0 -0.31980482282E+02  0.48060341380E+02  0.11108345998E+03  0.12518818931E+03  0.00000000000E+00 0. -1.
         11    1    4    4    0    0  0.45983048840E+02  0.31719075531E+02  0.24075718086E+02  0.60829110913E+02  0.00000000000E+00 0.  1.
        -13    1    3    3    0    0  0.44978011396E+02 -0.53513139727E+02 -0.27290077157E+02  0.75042827398E+02  0.00000000000E+00 0.  1.
         13    1    3    3    0    0 -0.55024754143E+01 -0.41277550740E+02  0.50924221277E+02  0.65782898563E+02  0.00000000000E+00 0. -1.
         21    1    1    2  502  503 -0.22370949573E+02  0.24433170347E+02  0.67567459414E+02  0.75251583171E+02  0.00000000000E+00 0.  1.
         21    1    1    2  503  501 -0.31107152967E+02 -0.94218967912E+01 -0.16246987446E+02  0.36337194525E+02  0.00000000000E+00 0.  1.
<scales pt_clust_5="13000.00000" pt_clust_6="13000.00000" pt_clust_7="13000.00000" pt_clust_8="13000.00000" pt_clust_9="33.76662" pt_clust_10="32.50272"></scales>
<clustering>
<clus scale="   32.503">  2 10  1 -1</clus>
<clus scale="   33.767">  1  9  2 -1</clus>
<clus scale="   93.433">  7  8 -1 -1</clus>
<clus scale="   98.862">  5  6 -1 -1</clus>
<clus scale="  131.783">  2  7  1 -1</clus>
<clus scale="   33.767">  1  5  2 -1</clus>
</clustering>
</event>
<event>
10    2  0.1898324E-006  0.9619483E+02  0.7546771E-02  0.1290122E+00
         -1   -1    0    0    0  501 -0.00000000000E+00  0.00000000000E+00  0.20575634611E+03  0.20575634611E+03  0.00000000000E+00 0.  1.
          1   -1    0    0  502    0  0.00000000000E+00 -0.00000000000E+00 -0.13317684230E+03  0.13317684230E+03  0.00000000000E+00 0. -1.
         23    2    1    2    0    0  0.32555316716E+01  0.55968602387E+01  0.26528939673E+02  0.93535496381E+02  0.89460500290E+02 0.  0.
         23    2    1    2    0    0  0.24986650412E+02  0.59160549934E+02  0.31707368061E+02  0.11694580189E+03  0.92448147757E+02 0.  0.
        -11    1    3    3    0    0 -0.26130495188E+01 -0.40476187916E+02  0.10796164191E+01  0.40574812232E+02  0.00000000000E+00 0. -1.
         11    1    3    3    0    0  0.58685811905E+01  0.46073048155E+02  0.25449323254E+02  0.52960684149E+02  0.00000000000E+00 0.  1.
        -11    1    4    4    0    0  0.14086333913E+02 -0.20709255187E+02  0.26050135098E+02  0.36137343457E+02  0.00000000000E+00 0. -1.
         11    1    4    4    0    0  0.10900316499E+02  0.79869805121E+02  0.56572329626E+01  0.80808458435E+02  0.00000000000E+00 0.  1.
         21    1    1    2  502  503 -0.30889385599E+02 -0.25782189912E+02 -0.43114255752E+02  0.58972150278E+02  0.00000000000E+00 0. -1.
         21    1    1    2  503  501  0.26472035152E+01 -0.38975220260E+02  0.57457451826E+02  0.69479739861E+02  0.00000000000E+00 0.  1.
<scales pt_clust_5="13000.00000" pt_clust_6="13000.00000" pt_clust_7="13000.00000" pt_clust_8="13000.00000" pt_clust_9="41.55109" pt_clust_10="39.06502"></scales>
<clustering>
<clus scale="   39.065">  1 10  2 -1</clus>
<clus scale="   41.551">  2  9  1 -1</clus>
<clus scale="   89.461">  5  6 -1 -1</clus>
<clus scale="   92.448">  7  8 -1 -1</clus>
<clus scale="   93.327">  1  5  2 -1</clus>
<clus scale="   41.551">  2  5  1 -1</clus>
</clustering>
</event>
<event>
10    2  0.1898324E-006  0.1180477E+03  0.7546771E-02  0.1250006E+00
         -3   -1    0    0    0  501 -0.00000000000E+00  0.00000000000E+00  0.24944946624E+03  0.24944946624E+03  0.00000000000E+00 0.  1.
          3   -1    0    0  502    0  0.00000000000E+00 -0.00000000000E+00 -0.11345967035E+03  0.11345967035E+03  0.00000000000E+00 0. -1.
         23    2    1    2    0    0  0.14924442960E+01 -0.66726569354E+02  0.60945317588E+02  0.13530490287E+03  0.10068973412E+03 0.  0.
         23    2    1    2    0    0 -0.15770362862E+02  0.52413637499E+02 -0.13519572524E+02  0.10686159168E+03  0.90778451157E+02 0.  0.
        -13    1    3    3    0    0  0.18587563339E+02 -0.22675067467E+02  0.79350947894E+02  0.84594498209E+02  0.00000000000E+00 0.  1.
         13    1    3    3    0    0 -0.17095119043E+02 -0.44051501887E+02 -0.18405630306E+02  0.50710404658E+02  0.00000000000E+00 0. -1.
        -13    1    4    4    0    0  0.32633700234E+02  0.40579324313E+02 -0.21609937467E+02  0.56379334424E+02  0.00000000000E+00 0.  1.
         13    1    4    4    0    0 -0.48404063096E+02  0.11834313186E+02  0.80903649430E+01  0.50482257257E+02  0.00000000000E+00 0. -1.
         21    1    1    2  502  503 -0.27965027688E+02  0.65284175945E+01  0.86085359910E+01  0.29979491353E+02  0.00000000000E+00 0. -1.
         21    1    1    2  503  501  0.42242946254E+02  0.77845142602E+01  0.79955514836E+02  0.90763150690E+02  0.00000000000E+00 0.  1.
<scales pt_clust_5="13000.00000" pt_clust_6="13000.00000" pt_clust_7="13000.00000" pt_clust_8="13000.00000" pt_clust_9="28.71695" pt_clust_10="41.57478"></scales>
<clustering>
<clus scale="   28.717">  2  9  1 -1</clus>
<clus scale="   41.575">  1 10  2 -1</clus>
<clus scale="   90.778">  7  8 -1 -1</clus>
<clus scale="  100.690">  5  6 -1 -1</clus>
<clus scale="  109.716">  2  7  1 -1</clus>
<clus scale="   28.717">  2  5  1 -1</clus>
</clustering>
</event>
<event>
10    2  0.1898324E-006  0.1108899E+03  0.7546771E-02  0.1259026E+00
         -2   -1    0    0    0  501 -0.00000000000E+00  0.00000000000E+00  0.76876493256E+02  0.76876493256E+02  0.00000000000E+00 0.  1.
          2   -1    0    0  502    0  0.00000000000E+00 -0.00000000000E+00 -0.45755097421E+03  0.45755097421E+03  0.00000000000E+00 0. -1.
         23    2    1    2    0    0  0.53133463938E+02  0.15719888034E+02 -0.13275995739E+03  0.16950510718E+03  0.89646501355E+02 0.  0.
         23    2    1    2    0    0 -0.68771915846E+02  0.71847691794E+02 -0.18145948265E+03  0.22561404321E+03  0.89902644139E+02 0.  0.
        -11    1    3    3    0    0  0.15760410910E+02 -0.37301559007E+02 -0.49233767507E+02  0.63747633049E+02  0.00000000000E+00 0.  1.
         11    1    3    3    0    0  0.37373053028E+02  0.53021447041E+02 -0.83526189881E+02  0.10575747413E+03  0.00000000000E+00 0. -1.
        -13    1    4    4    0    0  0.45774723052E+01  0.54855627761E+02 -0.10352949970E+03  0.11725378654E+03  0.00000000000E+00 0. -1.
         13    1    4    4    0    0 -0.73349388151E+02  0.16992064033E+02 -0.77929982949E+02  0.10836025667E+03  0.00000000000E+00 0.  1.
         21    1    1    2  502  503  0.82300174625E+01 -0.63917465711E+02 -0.86195750566E+02  0.10762380325E+03  0.00000000000E+00 0.  1.
         21    1    1    2  503  501  0.74084344455E+01 -0.23650114117E+02  0.19740709654E+02  0.31684513825E+02  0.00000000000E+00 0.  1.
<scales pt_clust_5="13000.00000" pt_clust_6="13000.00000" pt_clust_7="13000.00000" pt_clust_8="13000.00000" pt_clust_9="69.56109" pt_clust_10="24.78332"></scales>
<clustering>
<clus scale="   24.783">  1 10  2 -1</clus>
<clus scale="   69.561">  2  9  1 -1</clus>
<clus scale="   89.647">  5  6 -1 -1</clus>
<clus scale="   89.903">  7  8 -1 -1</clus>
<clus scale="  110.682">  1  5  2 -1</clus>
<clus scale="   69.561">  2  5  1 -1</clus>
</clustering>
</event>
<event>
10    2  0.1898324E-006  0.1292630E+03  0.7546771E-02  0.1242895E+00
         -2   -1    0    0    0  501 -0.00000000000E+00  0.00000000000E+00  0.45762719494E+02  0.45762719494E+02  0.00000000000E+00 0.  1.
          2   -1    0    0  502    0  0.00000000000E+00 -0.00000000000E+00 -0.47471726262E+03  0.47471726262E+03  0.00000000000E+00 0. -1.
         23    2    1    2    0    0 -0.23191564610E+02 -0.12122330152E+02 -0.12819574820E+03  0.15780706883E+03  0.88227668890E+02 0.  0.
         23    2    1    2    0    0  0.58986240512E+02  0.26987770740E+01 -0.19734431981E+03  0.24006595140E+03  0.12328917428E+03 0.  0.
        -11    1    3    3    0    0 -0.39278901784E+02 -0.37786692145E+02 -0.10922038779E+03  0.12206457036E+03  0.00000000000E+00 0.  1.
         11    1    3    3    0    0  0.16087337174E+02  0.25664361993E+02 -0.18975360413E+02  0.35742498467E+02  0.00000000000E+00 0. -1.
        -13    1    4    4    0    0  0.85578637174E+02  0.48871490218E+01 -0.72093927519E+02  0.11200500771E+03  0.00000000000E+00 0. -1.
         13    1    4    4    0    0 -0.26592396662E+02 -0.21883719478E+01 -0.12525039229E+03  0.12806094370E+03  0.00000000000E+00 0.  1.
         21    1    1    2  502  503 -0.19243470183E+02 -0.97853625569E+01 -0.92527351215E+02  0.95012500166E+02  0.00000000000E+00 0.  1.
         21    1    1    2  503  501 -0.16551205719E+02  0.19208915635E+02 -0.10887123903E+02  0.27594461718E+02  0.00000000000E+00 0.  1.
<scales pt_clust_5="13000.00000" pt_clust_6="13000.00000" pt_clust_7="13000.00000" pt_clust_8="13000.00000" pt_clust_9="21.58853" pt_clust_10="25.63786"></scales>
<clustering>
<clus scale="   21.589">  2  9  1 -1</clus>
<clus scale="   25.638">  1 10  2 -1</clus>
<clus scale="   88.228">  5  6 -1 -1</clus>
<clus scale="   96.399">  1  5  2 -1</clus>
<clus scale="  123.289">  7  8 -1 -1</clus>
<clus scale="   21.589">  2  5  1 -1</clus>
</clustering>
</event>
<event>
10    2  0.1898324E-006  0.1134498E+03  0.7546771E-02  0.1254934E+00
         -2   -1    0    0    0  501 -0.00000000000E+00  0.00000000000E+00  0.15742772175E+03  0.15742772175E+03  0.00000000000E+00 0.  1.
          2   -1    0    0  502    0  0.00000000000E+00 -0.00000000000E+00 -0.22334935120E+03  0.22334935120E+03  0.00000000000E+00 0. -1.
         23    2    1    2    0    0 -0.13407556219E+02 -0.92883599361E+02  0.78237431885E+02  0.15130097076E+03  0.89239914893E+02 0.  0.
         23    2    1    2    0    0  0.17316704401E+02  0.46432365991E+02 -0.13631832361E+03  0.17121971181E+03  0.90981709680E+02 0.  0.
        -11    1    4    4    0    0 -0.97226952350E+01  0.60408677272E+02 -0.47889665514E+02  0.77699158009E+02  0.00000000000E+00 0. -1.
         11    1    4    4    0    0  0.27039399636E+02 -0.13976311281E+02 -0.88428658096E+02  0.93520553796E+02  0.00000000000E+00 0.  1.
        -11    1    3    3    0    0 -0.37566922745E+02 -0.93101918079E+02  0.44526915985E+02  0.10982662283E+03  0.00000000000E+00 0.  1.
         11    1    3    3    0    0  0.24159366526E+02  0.21831871825E+00  0.33710515899E+02  0.41474347930E+02  0.00000000000E+00 0. -1.
         21    1    1    2  502  503 -0.72903945369E+01  0.19863136552E+02 -0.19734712027E+02  0.28933594747E+02  0.00000000000E+00 0. -1.
         21    1    1    2  503  501  0.33812463545E+01  0.26588096818E+02  0.11893974299E+02  0.29322795637E+02  0.00000000000E+00 0. -1.
<scales pt_clust_5="13000.00000" pt_clust_6="13000.00000" pt_clust_7="13000.00000" pt_clust_8="13000.00000" pt_clust_9="21.15878" pt_clust_10="27.62806"></scales>
<clustering>
<clus scale="   21.159">  2  9  1 -1</clus>
<clus scale="   27.628">  1 10  2 -1</clus>
<clus scale="   89.240">  7  8 -1 -1</clus>
<clus scale="   90.982">  5  6 -1 -1</clus>
<clus scale="  112.058">  1  7  2 -1</clus>
<clus scale="   21.159">  2  5  1 -1</clus>
</clustering>
</event>
<event>
10    2  0.1898324E-006  0.1647790E+03  0.7546771E-02  0.1183636E+00
         -1   -1    0    0    0  501 -0.00000000000E+00  0.00000000000E+00  0.16829420028E+03  0.16829420028E+03  0.00000000000E+00 0.  1.
          1   -1    0    0  502    0  0.00000000000E+00 -0.00000000000E+00 -0.51919209198E+03  0.51919209198E+03  0.00000000000E+00 0. -1.
         23    2    1    2    0    0 -0.12404941191E+02 -0.14886189843E+03  0.20032227536E+01  0.17541568848E+03  0.91939673117E+02 0.  0.
         23    2    1    2    0    0  0.28144205724E+02  0.11108848021E+03 -0.17468808141E+03  0.22764411375E+03  0.90405586054E+02 0.  0.
        -11    1    4    4    0    0  0.32429770704E+02  0.64384366345E+01 -0.79551613688E+02  0.86148724509E+02  0.00000000000E+00 0.  1.
         11    1    4    4    0    0 -0.42855649805E+01  0.10465004357E+03 -0.95136467720E+02  0.14149538924E+03  0.00000000000E+00 0. -1.
        -11    1    3    3    0    0  0.24586478407E+02 -0.43142238846E+02  0.32484102419E+02  0.59337716530E+02  0.00000000000E+00 0.  1.
         11    1    3    3    0    0 -0.36991419598E+02 -0.10571965959E+03 -0.30480879665E+02  0.11607797195E+03  0.00000000000E+00 0. -1.
         21    1    1    2  502  503  0.36834334733E+02  0.23988756392E+02 -0.21457675876E+03  0.21903290632E+03  0.00000000000E+00 0. -1.
         21    1    1    2  503  501 -0.52573599265E+02  0.13784661834E+02  0.36363725725E+02  0.65393583708E+02  0.00000000000E+00 0.  1.
<scales pt_clust_5="13000.00000" pt_clust_6="13000.00000" pt_clust_7="13000.00000" pt_clust_8="13000.00000" pt_clust_9="43.95712" pt_clust_10="52.95553"></scales>
<clustering>
<clus scale="   43.957">  2  9  1 -1</clus>
<clus scale="   52.956">  1 10  2 -1</clus>
<clus scale="   90.406">  5  6 -1 -1</clus>
<clus scale="   91.940">  7  8 -1 -1</clus>
<clus scale="  163.928">  2  5  1 -1</clus>
<clus scale="   43.957">  2  5  1 -1</clus>
</clustering>
</event>
<event>
10    2  0.1898324E-006  0.1002960E+03  0.7546771E-02  0.1280889E+00
         -1   -1    0    0    0  501 -0.00000000000E+00  0.00000000000E+00  0.32059343866E+03  0.32059343866E+03  0.00000000000E+00 0.  1.
          1   -1    0    0  502    0  0.00000000000E+00 -0.00000000000E+00 -0.10776166288E+03  0.10776166288E+03  0.00000000000E+00 0. -1.
         23    2    1    2    0    0 -0.27549322887E+02 -0.26144618115E+01  0.13590822989E+03  0.16653859637E+03  0.92185988780E+02 0.  0.
         23    2    1    2    0    0  0.22756720944E+02  0.47969468613E+01 -0.24196644908E+02  0.95762081994E+02  0.89688458988E+02 0.  0.
        -11    1    3    3    0    0  0.29891680820E+02 -0.12046301111E+02  0.23278213739E+02  0.39755517699E+02  0.00000000000E+00 0. -1.
         11    1    3    3    0    0 -0.57441003707E+02  0.94318392992E+01  0.11263001615E+03  0.12678307867E+03  0.00000000000E+00 0.  1.
        -13    1    4    4    0    0  0.48486976438E+01 -0.41777654247E+02 -0.16926681122E+02  0.45336462114E+02  0.00000000000E+00 0.  1.
         13    1    4    4    0    0  0.17908023300E+02  0.46574601108E+02 -0.72699637863E+01  0.50425619881E+02  0.00000000000E+00 0. -1.
         21    1    1    2  502  503  0.20292686924E+02  0.28784270305E+02 -0.19710901052E+02  0.40358976447E+02  0.00000000000E+00 0. -1.
         21    1    1    2  503  501 -0.15500084981E+02 -0.30966755355E+02  0.12083109185E+03  0.12569544673E+03  0.00000000000E+00 0.  1.
<scales pt_clust_5="13000.00000" pt_clust_6="13000.00000" pt_clust_7="13000.00000" pt_clust_8="13000.00000" pt_clust_9="33.42796" pt_clust_10="34.62936"></scales>
<clustering>
<clus scale="   34.629">  1 10  2 -1</clus>
<clus scale="   33.428">  2  9  1 -1</clus>
<clus scale="   89.688">  7  8 -1 -1</clus>
<clus scale="   92.186">  5  6 -1 -1</clus>
<clus scale="   98.005">  2  7  1 -1</clus>
<clus scale="   33.428">  2  5  1 -1</clus>
</clustering>
</event>
<event>
10    2  0.1898324E-006  0.1201803E+03  0.7546771E-02  0.1243392E+00
         -1   -1    0    0    0  501 -0.00000000000E+00  0.00000000000E+00  0.10893902197E+03  0.10893902197E+03  0.00000000000E+00 0.  1.
          1   -1    0    0  502    0  0.00000000000E+00 -0.00000000000E+00 -0.57753663381E+03  0.57753663381E+03  0.00000000000E+00 0. -1.
         23    2    1    2    0    0  0.65556808355E+02  0.37421154636E+02  0.46128614277E+01  0.11938450360E+03  0.92376096874E+02 0.  0.
         23    2    1    2    0    0 -0.77292515435E+02 -0.49268375995E+02 -0.28903127509E+03  0.31643694037E+03  0.90508305878E+02 0.  0.
        -11    1    4    4    0    0 -0.46808277808E+02  0.21616826997E+02 -0.12173290325E+03  0.13220136843E+03  0.00000000000E+00 0.  1.
         11    1    4    4    0    0 -0.30484237627E+02 -0.70885202992E+02 -0.16729837184E+03  0.18423557194E+03  0.00000000000E+00 0. -1.
        -13    1    3    3    0    0  0.81950281372E+02  0.50262459476E+02 -0.53804945705E+01  0.96286619897E+02  0.00000000000E+00 0.  1.
         13    1    3    3    0    0 -0.16393473016E+02 -0.12841304840E+02  0.99933559982E+01  0.23097883705E+02  0.00000000000E+00 0. -1.
         21    1    1    2  502  503  0.28480772361E+02 -0.74327739228E+01 -0.21133646701E+03  0.21337643453E+03  0.00000000000E+00 0.  1.
         21    1    1    2  503  501 -0.16745065281E+02  0.19279995282E+02  0.27157268831E+02  0.37277777290E+02  0.00000000000E+00 0. -1.
<scales pt_clust_5="13000.00000" pt_clust_6="13000.00000" pt_clust_7="13000.00000" pt_clust_8="13000.00000" pt_clust_9="29.15518" pt_clust_10="25.53655"></scales>
<clustering>
<clus scale="   25.537">  1 10  2 -1</clus>
<clus scale="   29.155">  2  9  1 -1</clus>
<clus scale="   90.508">  5  6 -1 -1</clus>
<clus scale="   92.376">  7  8 -1 -1</clus>
<clus scale="  118.751">  2  5  1 -1</clus>
<clus scale="   29.155">  2  5  1 -1</clus>
</clustering>
</event>
<event>
10    2  0.1898324E-006  0.1104697E+03  0.7546771E-02  0.1262620E+00
         -2   -1    0    0    0  501 -0.00000000000E+00  0.00000000000E+00  0.35156869206E+02  0.35156869206E+02  0.00000000000E+00 0.  1.
          2   -1    0    0  502    0  0.00000000000E+00 -0.00000000000E+00 -0.62405194966E+03  0.62405194966E+03  0.00000000000E+00 0. -1.
         23    2    1    2    0    0 -0.38518330413E+02  0.68452860853E+01 -0.14575819723E+03  0.17678469159E+03  0.92069839813E+02 0.  0.
         23    2    1    2    0    0  0.34347672256E+02 -0.52768104051E+02 -0.28606924284E+03  0.30918692976E+03  0.98978333195E+02 0.  0.
        -13    1    4    4    0    0 -0.30125250580E+02 -0.54292600107E+01 -0.39524373607E+02  0.49991836292E+02  0.00000000000E+00 0.  1.
         13    1    4    4    0    0  0.64472922836E+02 -0.47338844040E+02 -0.24654486923E+03  0.25919509347E+03  0.00000000000E+00 0. -1.
        -13    1    3    3    0    0 -0.51660503642E+02  0.39235491626E+02 -0.89150513501E+02  0.11025445795E+03  0.00000000000E+00 0.  1.
         13    1    3    3    0    0  0.13142173229E+02 -0.32390205541E+02 -0.56607683726E+02  0.66530233646E+02  0.00000000000E+00 0. -1.
         21    1    1    2  502  503  0.20582324507E+02  0.21997239065E+02 -0.13038439992E+03  0.13381928990E+03  0.00000000000E+00 0. -1.
         21    1    1    2  503  501 -0.16411666350E+02  0.23925578901E+02 -0.26683240470E+02  0.39417907607E+02  0.00000000000E+00 0.  1.
<scales pt_clust_5="13000.00000" pt_clust_6="13000.00000" pt_clust_7="13000.00000" pt_clust_8="13000.00000" pt_clust_9="30.54500" pt_clust_10="29.01338"></scales>
<clustering>
<clus scale="   29.013">  1 10  2 -1</clus>
<clus scale="   30.545">  2  9  1 -1</clus>
<clus scale="   92.070">  7  8 -1 -1</clus>
<clus scale="   98.978">  5  6 -1 -1</clus>
<clus scale="  104.325">  1  7  2 -1</clus>
<clus scale="   30.545">  2  5  1 -1</clus>
</clustering>
</event>
<event>
10    2  0.1898324E-006  0.1510477E+03  0.7546771E-02  0.1199436E+00
          1   -1    0    0  502    0  0.00000000000E+00  0.00000000000E+00  0.40914279548E+03  0.40914279548E+03  0.00000000000E+00 0. -1.
         -1   -1    0    0    0  501 -0.00000000000E+00 -0.00000000000E+00 -0.14586640109E+03  0.14586640109E+03  0.00000000000E+00 0.  1.
         23    2    1    2    0    0 -0.55596017188E+02  0.12256596249E+03  0.10413872532E+02  0.16253553302E+03  0.90531864360E+02 0.  0.
         23    2    1    2    0    0  0.72722989370E+02 -0.82743291217E+02  0.12553719651E+03  0.18933963980E+03  0.89189831643E+02 0.  0.
        -13    1    3    3    0    0  0.83468738111E+01  0.90082924584E+02  0.48187264394E+01  0.90597040396E+02  0.00000000000E+00 0. -1.
         13    1    3    3    0    0 -0.63942890999E+02  0.32483037901E+02  0.55951460925E+01  0.71938492620E+02  0.00000000000E+00 0.  1.
        -13    1    4    4    0    0  0.79023474164E+02 -0.25174251028E+02  0.63356623792E+02  0.10436720827E+03  0.00000000000E+00 0. -1.
         13    1    4    4    0    0 -0.63004847944E+01 -0.57569040189E+02  0.62180572719E+02  0.84972431533E+02  0.00000000000E+00 0.  1.
         21    1    1    2  502  503 -0.52561643577E+02 -0.44051222590E+02  0.14712459624E+03  0.16232339143E+03  0.00000000000E+00 0. -1.
         21    1    1    2  503  501  0.35434671395E+02  0.42285513213E+01 -0.19799270893E+02  0.40810632328E+02  0.00000000000E+00 0. -1.
<scales pt_clust_5="13000.00000" pt_clust_6="13000.00000" pt_clust_7="13000.00000" pt_clust_8="13000.00000" pt_clust_9="66.62797" pt_clust_10="35.68608"></scales>
<clustering>
<clus scale="   35.686">  2 10  1 -1</clus>
<clus scale="   66.628">  1  9  2 -1</clus>
<clus scale="   89.190">  7  8 -1 -1</clus>
<clus scale="   90.532">  5  6 -1 -1</clus>
<clus scale="  150.247">  1  7  2 -1</clus>
<clus scale="   66.628">  1  5  2 -1</clus>
</clustering>
</event>
<event>
10    2  0.1898324E-006  0.1641254E+03  0.7546771E-02  0.1185011E+00
         -3   -1    0    0    0  501 -0.00000000000E+00  0.00000000000E+00  0.72654527719E+03  0.72654527719E+03  0.00000000000E+00 0.  1.
          3   -1    0    0  502    0  0.00000000000E+00 -0.00000000000E+00 -0.11809194792E+03  0.11809194792E+03  0.00000000000E+00 0. -1.
         23    2    1    2    0    0 -0.92243516762E+02 -0.10803186696E+02  0.19350405016E+03  0.23532301319E+03  0.96475529966E+02 0.  0.
         23    2    1    2    0    0  0.15934325957E+03  0.50628052117E+02  0.13019289950E+03  0.23055991128E+03  0.90852669624E+02 0.  0.
        -13    1    4    4    0    0  0.71364477422E+02 -0.23046038927E+02  0.43067446640E+02  0.86480133603E+02  0.00000000000E+00 0.  1.
         13    1    4    4    0    0  0.87978782151E+02  0.73674091044E+02  0.87125452863E+02  0.14407977768E+03  0.00000000000E+00 0. -1.
        -13    1    3    3    0    0 -0.82204067457E+02  0.26180593427E+02  0.88716932442E+02  0.12374823748E+03  0.00000000000E+00 0.  1.
         13    1    3    3    0    0 -0.10039449305E+02 -0.36983780124E+02  0.10478711771E+03  0.11157477570E+03  0.00000000000E+00 0. -1.
         21    1    1    2  502  503  0.76142682009E+01 -0.23838132405E+02 -0.38871122436E+02  0.46229836645E+02  0.00000000000E+00 0.  1.
         21    1    1    2  503  501 -0.74714011012E+02 -0.15986733016E+02  0.32362750204E+03  0.33252446399E+03  0.00000000000E+00 0.  1.
<scales pt_clust_5="13000.00000" pt_clust_6="13000.00000" pt_clust_7="13000.00000" pt_clust_8="13000.00000" pt_clust_9="25.02466" pt_clust_10="76.27459"></scales>
<clustering>
<clus scale="   25.025">  2  9  1 -1</clus>
<clus scale="   76.275">  1 10  2 -1</clus>
<clus scale="   90.853">  5  6 -1 -1</clus>
<clus scale="   96.476">  7  8 -1 -1</clus>
<clus scale="  160.885">  2  5  1 -1</clus>
<clus scale="   25.025">  2  5  1 -1</clus>
</clustering>
</event>
<event>
10    2  0.1898324E-006  0.2377311E+03  0.7546771E-02  0.1121741E+00
         -1   -1    0    0    0  501 -0.00000000000E+00  0.00000000000E+00  0.15409934401E+03  0.15409934401E+03  0.00000000000E+00 0.  1.
          1   -1    0    0  502    0  0.00000000000E+00 -0.00000000000E+00 -0.71175335474E+03  0.71175335474E+03  0.00000000000E+00 0. -1.
         23    2    1    2    0    0 -0.12151589798E+03 -0.20949238775E+03 -0.97774131700E+02  0.27681548668E+03  0.91727088954E+02 0.  0.
         23    2    1    2    0    0  0.51553611191E+02  0.21367898657E+03 -0.36947942621E+03  0.44094952213E+03  0.98004849581E+02 0.  0.
        -11    1    3    3    0    0 -0.11749071080E+03 -0.15719424681E+03 -0.42860259560E+02  0.20087583280E+03  0.00000000000E+00 0.  1.
         11    1    3    3    0    0 -0.40251871825E+01 -0.52298140947E+02 -0.54913872141E+02  0.75939653883E+02  0.00000000000E+00 0. -1.
        -13    1    4    4    0    0  0.70198288940E+02  0.15395635517E+03 -0.31681900950E+03  0.35917216464E+03  0.00000000000E+00 0. -1.
         13    1    4    4    0    0 -0.18644677750E+02  0.59722631407E+02 -0.52660416709E+02  0.81777357493E+02  0.00000000000E+00 0.  1.
         21    1    1    2  502  503  0.33625115014E+01 -0.20742015452E+02 -0.74819994211E+02  0.77714665427E+02  0.00000000000E+00 0.  1.
         21    1    1    2  503  501  0.66599775287E+02  0.16555416633E+02 -0.15580458610E+02  0.70373024510E+02  0.00000000000E+00 0.  1.
<scales pt_clust_5="13000.00000" pt_clust_6="13000.00000" pt_clust_7="13000.00000" pt_clust_8="13000.00000" pt_clust_9="21.01280" pt_clust_10="68.52354"></scales>
<clustering>
<clus scale="   21.013">  2  9  1 -1</clus>
<clus scale="   68.524">  1 10  2 -1</clus>
<clus scale="   91.727">  5  6 -1 -1</clus>
<clus scale="   98.005">  7  8 -1 -1</clus>
<clus scale="  235.213">  1  5  2 -1</clus>
<clus scale="   21.013">  2  5  1 -1</clus>
</clustering>
</event>
<event>
10    2  0.1898324E-006  0.1112938E+03  0.7546771E-02  0.1258237E+00
         -1   -1    0    0    0  501 -0.00000000000E+00  0.00000000000E+00  0.21893845094E+03  0.21893845094E+03  0.00000000000E+00 0.  1.
          1   -1    0    0  502    0  0.00000000000E+00 -0.00000000000E+00 -0.37427878898E+03  0.37427878898E+03  0.00000000000E+00 0. -1.
         23    2    1    2    0    0  0.76576748430E+02  0.26066785068E+02  0.36941454286E+02  0.12739762228E+03  0.91225037315E+02 0.  0.
         23    2    1    2    0    0 -0.25983643618E+02  0.92500902369E+02 -0.83388479625E+02  0.15647886821E+03  0.91106701110E+02 0.  0.
        -11    1    4    4    0    0  0.12736713659E+02  0.49648850069E+02  0.43468586829E+01  0.51440522630E+02  0.00000000000E+00 0.  1.
         11    1    4    4    0    0 -0.38720357278E+02  0.42852052300E+02 -0.87735338308E+02  0.10503834558E+03  0.00000000000E+00 0. -1.
        -13    1    3    3    0    0  0.37847692264E+02 -0.29149844507E+01 -0.27461622058E+02  0.46851740951E+02  0.00000000000E+00 0. -1.
         13    1    3    3    0    0  0.38729056166E+02  0.28981769519E+02  0.64403076345E+02  0.80545881326E+02  0.00000000000E+00 0.  1.
         21    1    1    2  502  503 -0.40021752706E+02 -0.69380432907E+02 -0.19433126071E+03  0.21019044709E+03  0.00000000000E+00 0. -1.
         21    1    1    2  503  501 -0.10571352106E+02 -0.49187254531E+02  0.85437948014E+02  0.99150302342E+02  0.00000000000E+00 0.  1.
<scales pt_clust_5="13000.00000" pt_clust_6="13000.00000" pt_clust_7="13000.00000" pt_clust_8="13000.00000" pt_clust_9="83.10018" pt_clust_10="50.31043"></scales>
<clustering>
<clus scale="   50.310">  1 10  2 -1</clus>
<clus scale="   83.100">  2  9  1 -1</clus>
<clus scale="   91.107">  5  6 -1 -1</clus>
<clus scale="   91.225">  7  8 -1 -1</clus>
<clus scale="  111.197">  2  5  1 -1</clus>
<clus scale="   83.100">  2  5  1 -1</clus>
</clustering>
</event>
<event>
10    2  0.1898324E-006  0.1793148E+03  0.7546771E-02  0.1168690E+00
          1   -1    0    0  502    0  0.00000000000E+00  0.00000000000E+00  0.20200755641E+03  0.20200755641E+03  0.00000000000E+00 0. -1.
         -1   -1    0    0    0  501 -0.00000000000E+00 -0.00000000000E+00 -0.29751047773E+03  0.29751047773E+03  0.00000000000E+00 0.  1.
         23    2    1    2    0    0 -0.76436694945E+02 -0.11626773956E+03 -0.17344203507E+03  0.24027552268E+03  0.91046316085E+02 0.  0.
         23    2    1    2    0    0  0.81823902798E+02  0.11841665875E+03  0.80717350542E+02  0.18760777079E+03  0.89239726813E+02 0.  0.
        -11    1    4    4    0    0  0.31998939404E+02  0.70895569949E+02 -0.46649349444E+01  0.77922240596E+02  0.00000000000E+00 0.  1.
         11    1    4    4    0    0  0.49824963394E+02  0.47521088802E+02  0.85382285487E+02  0.10968553019E+03  0.00000000000E+00 0. -1.
        -13    1    3    3    0    0 -0.70744407059E+02 -0.96945747953E+02 -0.18231041865E+03  0.21826666700E+03  0.00000000000E+00 0.  1.
         13    1    3    3    0    0 -0.56922878867E+01 -0.19321991605E+02  0.88683835763E+01  0.22008855677E+02  0.00000000000E+00 0. -1.
         21    1    1    2  502  503  0.24788282877E+02  0.10261362370E+02  0.18583633195E+02  0.32635960970E+02  0.00000000000E+00 0. -1.
         21    1    1    2  503  501 -0.30175490730E+02 -0.12410281563E+02 -0.21361869982E+02  0.38998779704E+02  0.00000000000E+00 0. -1.
<scales pt_clust_5="13000.00000" pt_clust_6="13000.00000" pt_clust_7="13000.00000" pt_clust_8="13000.00000" pt_clust_9="26.82824" pt_clust_10="31.28664"></scales>
<clustering>
<clus scale="   26.828">  1  9  2 -1</clus>
<clus scale="   31.287">  2 10  1 -1</clus>
<clus scale="   89.240">  5  6 -1 -1</clus>
<clus scale="   91.046">  7  8 -1 -1</clus>
<clus scale="  178.404">  1  5  2 -1</clus>
<clus scale="   26.828">  1  5  2 -1</clus>
</clustering>
</event>
<event>
10    2  0.1898324E-006  0.1776541E+03  0.7546771E-02  0.1192704E+00
         -1   -1    0    0    0  501 -0.00000000000E+00  0.00000000000E+00  0.22053501477E+03  0.22053501477E+03  0.00000000000E+00 0.  1.
          1   -1    0    0  502    0  0.00000000000E+00 -0.00000000000E+00 -0.38076825792E+03  0.38076825792E+03  0.00000000000E+00 0. -1.
         23    2    1    2    0    0 -0.52672683124E+02  0.36896335701E+01  0.30344887789E+02  0.10647216433E+03  0.87335471705E+02 0.  0.
         23    2    1    2    0    0  0.18991450648E+03 -0.65400619351E+02 -0.16188744610E+03  0.27308011788E+03  0.89556936056E+02 0.  0.
        -11    1    4    4    0    0  0.16083991672E+03 -0.73612090844E+02 -0.16601379343E+03  0.24258771266E+03  0.00000000000E+00 0. -1.
         11    1    4    4    0    0  0.29074589760E+02  0.82114714925E+01  0.41263473245E+01  0.30492405219E+02  0.00000000000E+00 0.  1.
        -11    1    3    3    0    0 -0.24000242206E+02  0.26059368432E+02  0.52908757328E+02  0.63674476134E+02  0.00000000000E+00 0.  1.
         11    1    3    3    0    0 -0.28672440918E+02 -0.22369734862E+02 -0.22563869539E+02  0.42797688192E+02  0.00000000000E+00 0. -1.
         21    1    1    2  502  503 -0.12147897107E+03  0.32309718403E+02 -0.88179310263E+02  0.15354689536E+03  0.00000000000E+00 0.  1.
         21    1    1    2  503  501 -0.15762852284E+02  0.29401267378E+02  0.59488625429E+02  0.68204095119E+02  0.00000000000E+00 0.  1.
<scales pt_clust_5="13000.00000" pt_clust_6="13000.00000" pt_clust_7="13000.00000" pt_clust_8="13000.00000" pt_clust_9="153.42925" pt_clust_10="33.36019"></scales>
<clustering>
<clus scale="   33.360">  1 10  2 -1</clus>
<clus scale="   87.335">  7  8 -1 -1</clus>
<clus scale="   89.557">  5  6 -1 -1</clus>
<clus scale="  106.992">  1  7  2 -1</clus>
<clus scale="  153.429">  2  9  1 -1</clus>
<clus scale="  153.429">  2  5  1 -1</clus>
</clustering>
</event>
<event>
10    2  0.1898324E-006  0.1556712E+03  0.7546771E-02  0.1193961E+00
         -1   -1    0    0    0  501 -0.00000000000E+00  0.00000000000E+00  0.96741211686E+02  0.96741211686E+02  0.00000000000E+00 0.  1.
          1   -1    0    0  502    0  0.00000000000E+00 -0.00000000000E+00 -0.53521466593E+03  0.53521466593E+03  0.00000000000E+00 0. -1.
         23    2    1    2    0    0  0.10286697698E+03 -0.98487081767E+02 -0.18337307441E+03  0.24937487892E+03  0.90999041694E+02 0.  0.
         23    2    1    2    0    0 -0.49719015537E+02  0.10793910623E+03 -0.19323272366E+03  0.24379807496E+03  0.89307248879E+02 0.  0.
        -13    1    3    3    0    0  0.60539228517E+02  0.13564375506E+01 -0.66501569475E+02  0.89940518427E+02  0.00000000000E+00 0. -1.
         13    1    3    3    0    0  0.42327748461E+02 -0.99843519317E+02 -0.11687150493E+03  0.15943436049E+03  0.00000000000E+00 0.  1.
        -13    1    4    4    0    0 -0.61276142078E+02  0.60479455285E+02 -0.69086240808E+02  0.11038767489E+03  0.00000000000E+00 0.  1.
         13    1    4    4    0    0  0.11557126541E+02  0.47459650944E+02 -0.12414648285E+03  0.13341040007E+03  0.00000000000E+00 0. -1.
         21    1    1    2  502  503 -0.19688769569E+02 -0.20050982139E+02 -0.89693768471E+02  0.93992880764E+02  0.00000000000E+00 0.  1.
         21    1    1    2  503  501 -0.33459191872E+02  0.10598957676E+02  0.27826112292E+02  0.44790042976E+02  0.00000000000E+00 0.  1.
<scales pt_clust_5="13000.00000" pt_clust_6="13000.00000" pt_clust_7="13000.00000" pt_clust_8="13000.00000" pt_clust_9="28.10142" pt_clust_10="35.34429"></scales>
<clustering>
<clus scale="   28.101">  2  9  1 -1</clus>
<clus scale="   35.344">  1 10  2 -1</clus>
<clus scale="   89.307">  7  8 -1 -1</clus>
<clus scale="   90.999">  5  6 -1 -1</clus>
<clus scale="  154.688">  2  7  1 -1</clus>
<clus scale="   28.101">  2  5  1 -1</clus>
</clustering>
</event>
<event>
10    2  0.1898324E-006  0.1040816E+03  0.7546771E-02  0.1272277E+00
         -1   -1    0    0    0  501 -0.00000000000E+00  0.00000000000E+00  0.14188012818E+03  0.14188012818E+03  0.00000000000E+00 0.  1.
          1   -1    0    0  502    0  0.00000000000E+00 -0.00000000000E+00 -0.16036778174E+03  0.16036778174E+03  0.00000000000E+00 0. -1.
         23    2    1    2    0    0  0.57226679198E+02 -0.24319762238E+02  0.27009766406E+02  0.11387609063E+03  0.91498048551E+02 0.  0.
         23    2    1    2    0    0 -0.38426710485E+02  0.16602759425E+01 -0.51710760055E+02  0.11129030290E+03  0.90731252716E+02 0.  0.
        -11    1    3    3    0    0  0.23188664517E+02  0.34734800729E+02  0.16517190099E+02  0.44911447456E+02  0.00000000000E+00 0.  1.
         11    1    3    3    0    0  0.34038014681E+02 -0.59054562968E+02  0.10492576307E+02  0.68964643175E+02  0.00000000000E+00 0. -1.
        -13    1    4    4    0    0 -0.43415736929E+02  0.39487609532E+02 -0.41228808642E+02  0.71721769231E+02  0.00000000000E+00 0.  1.
         13    1    4    4    0    0  0.49890264435E+01 -0.37827333590E+02 -0.10481951413E+02  0.39568533670E+02  0.00000000000E+00 0. -1.
         21    1    1    2  502  503 -0.16674519152E+02 -0.22512524066E+02 -0.89095916535E+01  0.29397859653E+02  0.00000000000E+00 0.  1.
         21    1    1    2  503  501 -0.21254495609E+01  0.45172010361E+02  0.15122931742E+02  0.47683656743E+02  0.00000000000E+00 0.  1.
<scales pt_clust_5="13000.00000" pt_clust_6="13000.00000" pt_clust_7="13000.00000" pt_clust_8="13000.00000" pt_clust_9="28.01523" pt_clust_10="42.76856"></scales>
<clustering>
<clus scale="   28.015">  2  9  1 -1</clus>
<clus scale="   42.769">  1 10  2 -1</clus>
<clus scale="   90.731">  7  8 -1 -1</clus>
<clus scale="   91.498">  5  6 -1 -1</clus>
<clus scale="  103.408">  2  7  1 -1</clus>
<clus scale="   28.015">  2  5  1 -1</clus>
</clustering>
</event>
<event>
10    2  0.1898324E-006  0.1293046E+03  0.7546771E-02  0.1228976E+00
         -2   -1    0    0    0  501 -0.00000000000E+00  0.00000000000E+00  0.39263406512E+03  0.39263406512E+03  0.00000000000E+00 0.  1.
          2   -1    0    0  502    0  0.00000000000E+00 -0.00000000000E+00 -0.58417840543E+03  0.58417840543E+03  0.00000000000E+00 0. -1.
         23    2    1    2    0    0 -0.59384014665E+02 -0.37414385014E+02  0.89781904268E+02  0.14684827566E+03  0.92613866809E+02 0.  0.
         23    2    1    2    0    0  0.78253201229E+02 -0.74187619141E+02 -0.69375273882E+02  0.15711588796E+03  0.90802573135E+02 0.  0.
        -11    1    3    3    0    0 -0.11147832854E+02 -0.39742104982E+02  0.89495256638E+02  0.98555111721E+02  0.00000000000E+00 0.  1.
         11    1    3    3    0    0 -0.48236181810E+02  0.23277199680E+01  0.28664763011E+00  0.48293163934E+02  0.00000000000E+00 0. -1.
        -11    1    4    4    0    0  0.14017853622E+02 -0.72890638924E+02 -0.51777060553E+02  0.90500881004E+02  0.00000000000E+00 0.  1.
         11    1    4    4    0    0  0.64235347607E+02 -0.12969802169E+01 -0.17598213329E+02  0.66615006960E+02  0.00000000000E+00 0. -1.
         21    1    1    2  502  503  0.42244963551E+02  0.74664448066E+02 -0.43255222395E+03  0.44097714588E+03  0.00000000000E+00 0. -1.
         21    1    1    2  503  501 -0.61114150116E+02  0.36937556089E+02  0.22060125325E+03  0.23187116105E+03  0.00000000000E+00 0. -1.
<scales pt_clust_5="13000.00000" pt_clust_6="13000.00000" pt_clust_7="13000.00000" pt_clust_8="13000.00000" pt_clust_9="85.85804" pt_clust_10="71.40954"></scales>
<clustering>
<clus scale="   71.410">  1 10  2 -1</clus>
<clus scale="   85.858">  2  9  1 -1</clus>
<clus scale="   90.803">  7  8 -1 -1</clus>
<clus scale="   92.614">  5  6 -1 -1</clus>
<clus scale="  128.013">  2  7  1 -1</clus>
<clus scale="   85.858">  2  5  1 -1</clus>
</clustering>
</event>
<event>
10    2  0.1898324E-006  0.1655362E+03  0.7546771E-02  0.1199856E+00
         -2   -1    0    0    0  501 -0.00000000000E+00  0.00000000000E+00  0.39269948499E+03  0.39269948499E+03  0.00000000000E+00 0.  1.
          2   -1    0    0  502    0  0.00000000000E+00 -0.00000000000E+00 -0.70182357522E+03  0.70182357522E+03  0.00000000000E+00 0. -1.
         23    2    1    2    0    0 -0.57660649978E+02 -0.33982287143E+02 -0.69358504716E+00  0.11263667554E+03  0.90592456759E+02 0.  0.
         23    2    1    2    0    0 -0.45036241225E+02  0.37919964763E+02  0.18648688051E+03  0.21583628637E+03  0.91333231408E+02 0.  0.
        -11    1    3    3    0    0 -0.79448719027E+01  0.23576299129E+02 -0.22469608852E+02  0.33523815298E+02  0.00000000000E+00 0. -1.
         11    1    3    3    0    0 -0.49715778076E+02 -0.57558586272E+02  0.21776023805E+02  0.79112860245E+02  0.00000000000E+00 0.  1.
        -13    1    4    4    0    0 -0.71989776700E+02  0.37652547471E+02  0.13096224056E+03  0.15411473237E+03  0.00000000000E+00 0.  1.
         13    1    4    4    0    0  0.26953535475E+02  0.26741729257E+00  0.55524639946E+02  0.61721553996E+02  0.00000000000E+00 0. -1.
         21    1    1    2  502  503  0.13059682583E+03 -0.53990919866E+02 -0.61604797649E+03  0.63204877951E+03  0.00000000000E+00 0. -1.
         21    1    1    2  503  501 -0.27899934630E+02  0.50053242246E+02  0.12113059080E+03  0.13400131880E+03  0.00000000000E+00 0.  1.
<scales pt_clust_5="13000.00000" pt_clust_6="13000.00000" pt_clust_7="13000.00000" pt_clust_8="13000.00000" pt_clust_9="138.05962" pt_clust_10="57.30387"></scales>
<clustering>
<clus scale="   57.304">  1 10  2 -1</clus>
<clus scale="   90.592">  5  6 -1 -1</clus>
<clus scale="   91.333">  7  8 -1 -1</clus>
<clus scale="  113.110">  1  5  2 -1</clus>
<clus scale="  138.060">  2  9  1 -1</clus>
<clus scale="  138.060">  2  5  1 -1</clus>
</clustering>
</event>
<event>
10    2  0.1898324E-006  0.1973653E+03  0.7546771E-02  0.1177481E+00
         -2   -1    0    0    0  501 -0.00000000000E+00  0.00000000000E+00  0.74340181956E+03  0.74340181956E+03  0.00000000000E+00 0.  1.
          2   -1    0    0  502    0  0.00000000000E+00 -0.00000000000E+00 -0.41090429882E+03  0.41090429882E+03  0.00000000000E+00 0. -1.
         23    2    1    2    0    0 -0.23614264273E+02 -0.86544848252E+02 -0.12707087035E+03  0.17690840822E+03  0.84272976508E+02 0.  0.
         23    2    1    2    0    0 -0.21228358965E+02 -0.35679132554E+02 -0.49109911669E+02  0.11154974030E+03  0.91147777883E+02 0.  0.
        -11    1    4    4    0    0 -0.21725125128E+02 -0.71725071484E+01  0.23951450091E+02  0.33122467935E+02  0.00000000000E+00 0.  1.
         11    1    4    4    0    0  0.49676616297E+00 -0.28506625406E+02 -0.73061361760E+02  0.78427272367E+02  0.00000000000E+00 0. -1.
        -13    1    3    3    0    0  0.48260664710E+01 -0.83039189362E+02 -0.12222851696E+03  0.14784656995E+03  0.00000000000E+00 0. -1.
         13    1    3    3    0    0 -0.28440330744E+02 -0.35056588900E+01 -0.48423533914E+01  0.29061838267E+02  0.00000000000E+00 0.  1.
         21    1    1    2  502  503 -0.43740110890E+02 -0.41409833632E+02 -0.16042188429E+03  0.17135679905E+03  0.00000000000E+00 0.  1.
         21    1    1    2  503  501  0.88582734127E+02  0.16363381444E+03  0.66910018705E+03  0.69449117080E+03  0.00000000000E+00 0.  1.
<scales pt_clust_5="13000.00000" pt_clust_6="13000.00000" pt_clust_7="13000.00000" pt_clust_8="13000.00000" pt_clust_9="60.23265" pt_clust_10="178.46889"></scales>
<clustering>
<clus scale="   60.233">  2  9  1 -1</clus>
<clus scale="   84.273">  7  8 -1 -1</clus>
<clus scale="   91.148">  5  6 -1 -1</clus>
<clus scale="  109.541">  2  5  1 -1</clus>
<clus scale="  178.469">  1 10  2 -1</clus>
<clus scale="   60.233">  2  5  1 -1</clus>
</clustering>
</event>
<event>
10    2  0.1898324E-006  0.9470411E+02  0.7546771E-02  0.1293622E+00
          2   -1    0    0  502    0  0.00000000000E+00  0.00000000000E+00  0.47227506180E+03  0.47227506180E+03  0.00000000000E+00 0. -1.
         -2   -1    0    0    0  501 -0.00000000000E+00 -0.00000000000E+00 -0.45555780520E+02  0.45555780520E+02  0.00000000000E+00 0.  1.
         23    2    1    2    0    0 -0.35621796540E+01 -0.20106832410E+02  0.14882687552E+03  0.17489674625E+03  0.89568181515E+02 0.  0.
         23    2    1    2    0    0 -0.26709402383E+02  0.25234477164E+01  0.23100584690E+03  0.25036266189E+03  0.92725407538E+02 0.  0.
        -11    1    4    4    0    0  0.11447923153E+02 -0.18804384222E+02  0.84926265932E+01  0.23596281846E+02  0.00000000000E+00 0.  1.
         11    1    4    4    0    0 -0.38157325537E+02  0.21327831939E+02  0.22251322031E+03  0.22676638005E+03  0.00000000000E+00 0. -1.
        -11    1    3    3    0    0 -0.42343133014E+02 -0.28794727288E+02  0.95841810502E+02  0.10866337871E+03  0.00000000000E+00 0. -1.
         11    1    3    3    0    0  0.38780953360E+02  0.86878948779E+01  0.52985065017E+02  0.66233367541E+02  0.00000000000E+00 0.  1.
         21    1    1    2  502  503 -0.84636843608E+01  0.19200365669E+02  0.49450084996E+02  0.53717770811E+02  0.00000000000E+00 0. -1.
         21    1    1    2  503  501  0.38735266398E+02 -0.16169809758E+01 -0.25635261362E+01  0.38853663362E+02  0.00000000000E+00 0.  1.
<scales pt_clust_5="13000.00000" pt_clust_6="13000.00000" pt_clust_7="13000.00000" pt_clust_8="13000.00000" pt_clust_9="20.98304" pt_clust_10="38.37832"></scales>
<clustering>
<clus scale="   20.983">  1  9  2 -1</clus>
<clus scale="   38.378">  2 10  1 -1</clus>
<clus scale="   89.568">  7  8 -1 -1</clus>
<clus scale="   91.615">  2  7  1 -1</clus>
<clus scale="   92.725">  5  6 -1 -1</clus>
<clus scale="   20.983">  1  5  2 -1</clus>
</clustering>
</event>
<event>
10    2  0.1898324E-006  0.1317750E+03  0.7546771E-02  0.1225764E+00
         -1   -1    0    0    0  501 -0.00000000000E+00  0.00000000000E+00  0.14262383344E+03  0.14262383344E+03  0.00000000000E+00 0.  1.
          1   -1    0    0  502    0  0.00000000000E+00 -0.00000000000E+00 -0.32017752355E+03  0.32017752355E+03  0.00000000000E+00 0. -1.
         23    2    1    2    0    0  0.57297278163E+02  0.10383046277E+03 -0.33693785641E+02  0.15410574826E+03  0.92463870634E+02 0.  0.
         23    2    1    2    0    0 -0.12308606243E+02 -0.59602036207E+02 -0.14214862701E+03  0.18196482737E+03  0.95922164967E+02 0.  0.
        -11    1    3    3    0    0 -0.19391790150E+02  0.44061288951E+02  0.71088130080E+01  0.48661832390E+02  0.00000000000E+00 0.  1.
         11    1    3    3    0    0  0.76689068313E+02  0.59769173815E+02 -0.40802598649E+02  0.10544391587E+03  0.00000000000E+00 0. -1.
        -13    1    4    4    0    0  0.38956918443E+02 -0.36274094748E+02 -0.93265153591E+02  0.10738640658E+03  0.00000000000E+00 0. -1.
         13    1    4    4    0    0 -0.51265524686E+02 -0.23327941459E+02 -0.48883473423E+02  0.74578420792E+02  0.00000000000E+00 0.  1.
         21    1    1    2  502  503 -0.31058224243E+02 -0.26055985738E+02 -0.55234426876E+02  0.68515469773E+02  0.00000000000E+00 0. -1.
         21    1    1    2  503  501 -0.13930447677E+02 -0.18172440821E+02  0.53523149422E+02  0.58215311576E+02  0.00000000000E+00 0.  1.
<scales pt_clust_5="13000.00000" pt_clust_6="13000.00000" pt_clust_7="13000.00000" pt_clust_8="13000.00000" pt_clust_9="42.25305" pt_clust_10="22.89749"></scales>
<clustering>
<clus scale="   22.897">  1 10  2 -1</clus>
<clus scale="   42.253">  2  9  1 -1</clus>
<clus scale="   92.464">  5  6 -1 -1</clus>
<clus scale="   95.922">  7  8 -1 -1</clus>
<clus scale="  129.279">  1  5  2 -1</clus>
<clus scale="   42.253">  2  5  1 -1</clus>
</clustering>
</event>
<event>
10    2  0.1898324E-006  0.1456584E+03  0.7546771E-02  0.1214023E+00
          2   -1    0    0  502    0  0.00000000000E+00  0.00000000000E+00  0.73975920458E+03  0.73975920458E+03  0.00000000000E+00 0. -1.
         -2   -1    0    0    0  501 -0.00000000000E+00 -0.00000000000E+00 -0.61076704246E+03  0.61076704246E+03  0.00000000000E+00 0.  1.
         23    2    1    2    0    0  0.46775980631E+02 -0.58297212393E+02 -0.51601302920E+03  0.52984688181E+03  0.94242848665E+02 0.  0.
         23    2    1    2    0    0  0.79983187410E+02  0.76690523652E+02  0.60149518902E+03  0.61836273058E+03  0.91089282922E+02 0.  0.
        -11    1    3    3    0    0  0.28502403513E+02  0.22248519101E+02 -0.12077231370E+03  0.12606877236E+03  0.00000000000E+00 0. -1.
         11    1    3    3    0    0  0.18273577118E+02 -0.80545731494E+02 -0.39524071550E+03  0.40377810945E+03  0.00000000000E+00 0.  1.
        -13    1    4    4    0    0  0.19993133511E+02  0.80751359087E+02  0.36186875141E+03  0.37130782462E+03  0.00000000000E+00 0. -1.
         13    1    4    4    0    0  0.59990053899E+02 -0.40608354350E+01  0.23962643762E+03  0.24705490595E+03  0.00000000000E+00 0.  1.
         21    1    1    2  502  503 -0.14372777242E+03 -0.30278002459E+02  0.74767705640E+02  0.16481698882E+03  0.00000000000E+00 0. -1.
         21    1    1    2  503  501  0.16968604377E+02  0.11884691201E+02 -0.31257703343E+02  0.37499645834E+02  0.00000000000E+00 0.  1.
<scales pt_clust_5="13000.00000" pt_clust_6="13000.00000" pt_clust_7="13000.00000" pt_clust_8="13000.00000" pt_clust_9="113.66231" pt_clust_10="20.71665"></scales>
<clustering>
<clus scale="   20.717">  2 10  1 -1</clus>
<clus scale="   91.089">  7  8 -1 -1</clus>
<clus scale="   94.243">  5  6 -1 -1</clus>
<clus scale="  122.493">  2  5  1 -1</clus>
<clus scale="  113.662">  2  9  1 -1</clus>
<clus scale="  145.658">  1  5  2 -1</clus>
</clustering>
</event>
<event>
10    2  0.1898324E-006  0.1202680E+03  0.7546771E-02  0.1245785E+00
         -1   -1    0    0    0  501 -0.00000000000E+00  0.00000000000E+00  0.39852183325E+03  0.39852183325E+03  0.00000000000E+00 0.  1.
          1   -1    0    0  503    0  0.00000000000E+00 -0.00000000000E+00 -0.93706413112E+02  0.93706413112E+02  0.00000000000E+00 0. -1.
         23    2    1    2    0    0  0.52888355160E+02 -0.23905070662E+02  0.16780530931E+03  0.20104533206E+03  0.94297259748E+02 0.  0.
         23    2    1    2    0    0 -0.89769981848E+02  0.71928660924E+02  0.94200944445E+02  0.17112181589E+03  0.84714084054E+02 0.  0.
        -11    1    3    3    0    0  0.70182380686E+02 -0.13132690532E+02  0.66035299118E+02  0.97255821671E+02  0.00000000000E+00 0.  1.
         11    1    3    3    0    0 -0.17294025526E+02 -0.10772380130E+02  0.10177001019E+03  0.10378951039E+03  0.00000000000E+00 0. -1.
        -11    1    4    4    0    0 -0.66268946999E+02  0.33255789552E+02  0.90537151737E+01  0.74695988068E+02  0.00000000000E+00 0. -1.
         11    1    4    4    0    0 -0.23501034849E+02  0.38672871373E+02  0.85147229272E+02  0.96425827826E+02  0.00000000000E+00 0.  1.
         21    1    1    2  502  501  0.66000913164E+02 -0.14340444798E+02  0.23266578799E+02  0.71436003419E+02  0.00000000000E+00 0.  1.
         21    1    1    2  503  502 -0.29119286475E+02 -0.33683145464E+02  0.19542587583E+02  0.48625094988E+02  0.00000000000E+00 0. -1.
<scales pt_clust_5="13000.00000" pt_clust_6="13000.00000" pt_clust_7="13000.00000" pt_clust_8="13000.00000" pt_clust_9="62.20739" pt_clust_10="44.52513"></scales>
<clustering>
<clus scale="   44.525">  2 10  1 -1</clus>
<clus scale="   62.207">  2  9  1 -1</clus>
<clus scale="   84.714">  7  8 -1 -1</clus>
<clus scale="   94.297">  5  6 -1 -1</clus>
<clus scale="  112.911">  2  7  1 -1</clus>
<clus scale="   44.525">  2  5  1 -1</clus>
</clustering>
</event>
<event>
10    2  0.1898324E-006  0.1039633E+03  0.7546771E-02  0.1272891E+00
          1   -1    0    0  502    0  0.00000000000E+00  0.00000000000E+00  0.47101740083E+03  0.47101740083E+03  0.00000000000E+00 0. -1.
         -1   -1    0    0    0  501 -0.00000000000E+00 -0.00000000000E+00 -0.11619490927E+03  0.11619490927E+03  0.00000000000E+00 0.  1.
         23    2    1    2    0    0 -0.59919071689E+02  0.37866991265E+02 -0.57382726690E+02  0.12836346607E+03  0.90333813816E+02 0.  0.
         23    2    1    2    0    0  0.28308597588E+02 -0.50229851748E+02  0.26131191902E+03  0.28295246425E+03  0.91944348923E+02 0.  0.
        -11    1    4    4    0    0 -0.19047105037E+02 -0.45283407701E+02  0.19639718382E+03  0.20244809961E+03  0.00000000000E+00 0.  1.
         11    1    4    4    0    0  0.47355702625E+02 -0.49464440476E+01  0.64914735196E+02  0.80504364636E+02  0.00000000000E+00 0. -1.
        -13    1    3    3    0    0 -0.38804177685E+02 -0.18361124594E+02 -0.52910429790E+02  0.68135223510E+02  0.00000000000E+00 0.  1.
         13    1    3    3    0    0 -0.21114894004E+02  0.56228115859E+02 -0.44722969004E+01  0.60228242556E+02  0.00000000000E+00 0. -1.
         21    1    1    2  502  503  0.66397133683E+01  0.22911644571E+02  0.14650703350E+03  0.14843631670E+03  0.00000000000E+00 0. -1.
         21    1    1    2  503  501  0.24970760733E+02 -0.10548784088E+02  0.43862657368E+01  0.27460063082E+02  0.00000000000E+00 0.  1.
<scales pt_clust_5="13000.00000" pt_clust_6="13000.00000" pt_clust_7="13000.00000" pt_clust_8="13000.00000" pt_clust_9="23.85433" pt_clust_10="26.99489"></scales>
<clustering>
<clus scale="   23.854">  1  9  2 -1</clus>
<clus scale="   26.995">  2 10  1 -1</clus>
<clus scale="   90.334">  7  8 -1 -1</clus>
<clus scale="   91.944">  5  6 -1 -1</clus>
<clus scale="  102.542">  2  7  1 -1</clus>
<clus scale="   23.854">  1  5  2 -1</clus>
</clustering>
</event>
<event>
10    2  0.1898324E-006  0.1258262E+03  0.7546771E-02  0.1235493E+00
         -4   -1    0    0    0  501 -0.00000000000E+00  0.00000000000E+00  0.96652526180E+02  0.96652526180E+02  0.00000000000E+00 0.  1.
          4   -1    0    0  503    0  0.00000000000E+00 -0.00000000000E+00 -0.54735753483E+03  0.54735753483E+03  0.00000000000E+00 0. -1.
         23    2    1    2    0    0 -0.28682381002E+02  0.59082443901E+02 -0.33472706666E+02  0.12173240320E+03  0.96875908978E+02 0.  0.
         23    2    1    2    0    0 -0.21659123210E+02 -0.15357059515E+03 -0.28111406527E+03  0.33375420549E+03  0.91179529917E+02 0.  0.
        -13    1    3    3    0    0 -0.58919725079E+02  0.55625658844E+02 -0.68870265649E+01  0.81321455103E+02  0.00000000000E+00 0. -1.
         13    1    3    3    0    0  0.30237344077E+02  0.34567850571E+01 -0.26585680101E+02  0.40410948098E+02  0.00000000000E+00 0.  1.
        -13    1    4    4    0    0  0.32251149320E+02 -0.26660066682E+02 -0.71866439169E+02  0.83160572790E+02  0.00000000000E+00 0.  1.
         13    1    4    4    0    0 -0.53910272530E+02 -0.12691052847E+03 -0.20924762610E+03  0.25059363270E+03  0.00000000000E+00 0. -1.
         21    1    1    2  502  501  0.69184801528E+02  0.84115911137E+02 -0.11274123628E+03  0.15675652977E+03  0.00000000000E+00 0.  1.
         21    1    1    2  503  502 -0.18843297316E+02  0.10372240114E+02 -0.23377000439E+02  0.31766922549E+02  0.00000000000E+00 0. -1.
<scales pt_clust_5="13000.00000" pt_clust_6="13000.00000" pt_clust_7="13000.00000" pt_clust_8="13000.00000" pt_clust_9="108.02568" pt_clust_10="21.50938"></scales>
<clustering>
<clus scale="   21.509">  2 10  1 -1</clus>
<clus scale="   91.180">  7  8 -1 -1</clus>
<clus scale="   96.876">  5  6 -1 -1</clus>
<clus scale="  108.026">  2  9  1 -1</clus>
<clus scale="  121.495">  2  7  1 -1</clus>
<clus scale="   21.509">  2  5  1 -1</clus>
</clustering>
</event>
<event>
10    2  0.1898324E-006  0.1078193E+03  0.7546771E-02  0.1268852E+00
          1   -1    0    0  502    0  0.00000000000E+00  0.00000000000E+00  0.21608382416E+03  0.21608382416E+03  0.00000000000E+00 0. -1.
         -1   -1    0    0    0  501 -0.00000000000E+00 -0.00000000000E+00 -0.31788076211E+03  0.31788076211E+03  0.00000000000E+00 0.  1.
         23    2    1    2    0    0  0.90913639518E+01 -0.20698137472E+02 -0.62173210419E+02  0.11245069667E+03  0.90931761742E+02 0.  0.
         23    2    1    2    0    0 -0.67183274979E+02  0.12211986864E+02 -0.38649551121E+02  0.12717131604E+03  0.10008012171E+03 0.  0.
        -13    1    3    3    0    0  0.31490076023E+02  0.14121432628E+02 -0.62103986100E+02  0.71048890469E+02  0.00000000000E+00 0.  1.
         13    1    3    3    0    0 -0.22398712071E+02 -0.34819570100E+02 -0.69224319157E-01  0.41401806197E+02  0.00000000000E+00 0. -1.
        -13    1    4    4    0    0  0.23828597160E+01  0.44363700441E+02 -0.16574271763E+02  0.47418587302E+02  0.00000000000E+00 0.  1.
         13    1    4    4    0    0 -0.69566134695E+02 -0.32151713577E+02 -0.22075279358E+02  0.79752728738E+02  0.00000000000E+00 0. -1.
         21    1    1    2  502  503  0.20564818494E+02 -0.65489232051E+01  0.14309262769E+03  0.14471109237E+03  0.00000000000E+00 0. -1.
         21    1    1    2  503  501  0.37527092533E+02  0.15035073813E+02 -0.14406680411E+03  0.14963148119E+03  0.00000000000E+00 0. -1.
<scales pt_clust_5="13000.00000" pt_clust_6="13000.00000" pt_clust_7="13000.00000" pt_clust_8="13000.00000" pt_clust_9="21.58240" pt_clust_10="41.07228"></scales>
<clustering>
<clus scale="   21.582">  1  9  2 -1</clus>
<clus scale="   41.072">  2 10  1 -1</clus>
<clus scale="   90.932">  5  6 -1 -1</clus>
<clus scale="   99.386">  2  5  1 -1</clus>
<clus scale="  100.080">  7  8 -1 -1</clus>
<clus scale="   21.582">  1  5  2 -1</clus>
</clustering>
</event>
<event>
10    2  0.1898324E-006  0.9892438E+02  0.7546771E-02  0.1285679E+00
         -1   -1    0    0    0  501 -0.00000000000E+00  0.00000000000E+00  0.94099861811E+03  0.94099861811E+03  0.00000000000E+00 0.  1.
          1   -1    0    0  502    0  0.00000000000E+00 -0.00000000000E+00 -0.30513999853E+03  0.30513999853E+03  0.00000000000E+00 0. -1.
         23    2    1    2    0    0 -0.31575960390E+01 -0.68459123837E+02  0.44177593834E+03  0.45554603505E+03  0.87519073930E+02 0.  0.
         23    2    1    2    0    0  0.49728103932E+02 -0.33357959554E+02  0.29330334639E+03  0.31361785555E+03  0.93507585416E+02 0.  0.
        -11    1    3    3    0    0  0.35429126729E+02 -0.77719527215E+01  0.10240259115E+03  0.10863662801E+03  0.00000000000E+00 0. -1.
         11    1    3    3    0    0 -0.38586722768E+02 -0.60687171116E+02  0.33937334719E+03  0.34690940704E+03  0.00000000000E+00 0.  1.
        -13    1    4    4    0    0  0.18613155005E+02 -0.63035566848E+02  0.20720470119E+03  0.21737920881E+03  0.00000000000E+00 0.  1.
         13    1    4    4    0    0  0.31114948926E+02  0.29677607294E+02  0.86098645198E+02  0.96238646740E+02  0.00000000000E+00 0. -1.
         21    1    1    2  502  503 -0.34601540196E+02  0.70257519863E+02 -0.28119464686E+03  0.29189692548E+03  0.00000000000E+00 0. -1.
         21    1    1    2  503  501 -0.11968967697E+02  0.31559563528E+02  0.18197398171E+03  0.18507780055E+03  0.00000000000E+00 0.  1.
<scales pt_clust_5="13000.00000" pt_clust_6="13000.00000" pt_clust_7="13000.00000" pt_clust_8="13000.00000" pt_clust_9="78.55331" pt_clust_10="33.75296"></scales>
<clustering>
<clus scale="   33.753">  1 10  2 -1</clus>
<clus scale="   78.553">  2  9  1 -1</clus>
<clus scale="   87.519">  5  6 -1 -1</clus>
<clus scale="   93.284">  1  5  2 -1</clus>
<clus scale="   93.508">  7  8 -1 -1</clus>
<clus scale="   78.553">  2  5  1 -1</clus>
</clustering>
</event>
<event>
10    2  0.1898324E-006  0.9446851E+02  0.7546771E-02  0.1293437E+00
          1   -1    0    0  502    0  0.00000000000E+00  0.00000000000E+00  0.21564486233E+03  0.21564486233E+03  0.00000000000E+00 0. -1.
         -1   -1    0    0    0  501 -0.00000000000E+00 -0.00000000000E+00 -0.16557011795E+03  0.16557011795E+03  0.00000000000E+00 0.  1.
         23    2    1    2    0    0  0.58075481509E+01  0.12635575786E+02 -0.65138544177E+02  0.11519246525E+03  0.93983449195E+02 0.  0.
         23    2    1    2    0    0 -0.72554100480E+01 -0.32435752004E+02  0.10786755529E+03  0.14569630504E+03  0.92126461107E+02 0.  0.
        -11    1    3    3    0    0 -0.20682756812E+02 -0.10761832886E+02 -0.74966016218E+02  0.78507942681E+02  0.00000000000E+00 0. -1.
         11    1    3    3    0    0  0.26490304963E+02  0.23397408673E+02  0.98274720408E+01  0.36684522572E+02  0.00000000000E+00 0.  1.
        -11    1    4    4    0    0  0.71522415701E+01  0.26850880298E+02  0.84382937657E+01  0.29040129716E+02  0.00000000000E+00 0.  1.
         11    1    4    4    0    0 -0.14407651618E+02 -0.59286632302E+02  0.99429261520E+02  0.11665617532E+03  0.00000000000E+00 0. -1.
         21    1    1    2  502  503  0.22010249193E+02  0.34780949458E+02  0.53573979240E+02  0.67559875417E+02  0.00000000000E+00 0. -1.
         21    1    1    2  503  501 -0.20562387295E+02 -0.14980773241E+02 -0.46228245969E+02  0.52766334566E+02  0.00000000000E+00 0.  1.
<scales pt_clust_5="13000.00000" pt_clust_6="13000.00000" pt_clust_7="13000.00000" pt_clust_8="13000.00000" pt_clust_9="39.73915" pt_clust_10="25.44082"></scales>
<clustering>
<clus scale="   25.441">  2 10  1 -1</clus>
<clus scale="   39.739">  1  9  2 -1</clus>
<clus scale="   92.126">  7  8 -1 -1</clus>
<clus scale="   92.621">  1  7  2 -1</clus>
<clus scale="   93.983">  5  6 -1 -1</clus>
<clus scale="   39.739">  1  5  2 -1</clus>
</clustering>
</event>
<event>
10    2  0.1898324E-006  0.1041911E+03  0.7546771E-02  0.1272019E+00
          2   -1    0    0  502    0  0.00000000000E+00  0.00000000000E+00  0.46324263114E+03  0.46324263114E+03  0.00000000000E+00 0. -1.
         -2   -1    0    0    0  501 -0.00000000000E+00 -0.00000000000E+00 -0.45021812926E+02  0.45021812926E+02  0.00000000000E+00 0.  1.
         23    2    1    2    0    0 -0.48655896821E+02  0.13513364513E+02  0.97472474573E+02  0.14267865917E+03  0.91138955267E+02 0.  0.
         23    2    1    2    0    0  0.54970675364E+02 -0.34544555925E+02  0.20088131379E+03  0.22967547447E+03  0.90456729161E+02 0.  0.
        -11    1    3    3    0    0 -0.12651791744E+02 -0.15563515806E+02  0.94169477064E+02  0.96281780567E+02  0.00000000000E+00 0. -1.
         11    1    3    3    0    0 -0.36004105078E+02  0.29076880319E+02  0.33029975087E+01  0.46396878603E+02  0.00000000000E+00 0.  1.
        -13    1    4    4    0    0  0.61286585057E+02  0.11478297655E+02  0.13858335185E+03  0.15196427947E+03  0.00000000000E+00 0. -1.
         13    1    4    4    0    0 -0.63159096933E+01 -0.46022853580E+02  0.62297961940E+02  0.77711195003E+02  0.00000000000E+00 0.  1.
         21    1    1    2  502  503 -0.27905109253E+02  0.16239992460E+02  0.10343891655E+03  0.10836070291E+03  0.00000000000E+00 0. -1.
         21    1    1    2  503  501  0.21590330710E+02  0.47911989522E+01  0.16428113294E+02  0.27549607510E+02  0.00000000000E+00 0. -1.
<scales pt_clust_5="13000.00000" pt_clust_6="13000.00000" pt_clust_7="13000.00000" pt_clust_8="13000.00000" pt_clust_9="31.28730" pt_clust_10="22.11556"></scales>
<clustering>
<clus scale="   22.116">  2 10  1 -1</clus>
<clus scale="   31.287">  1  9  2 -1</clus>
<clus scale="   90.457">  7  8 -1 -1</clus>
<clus scale="   91.139">  5  6 -1 -1</clus>
<clus scale="  103.595">  1  7  2 -1</clus>
<clus scale="   31.287">  1  5  2 -1</clus>
</clustering>
</event>
<event>
10    2  0.1898324E-006  0.1172246E+03  0.7546771E-02  0.1250201E+00
         -1   -1    0    0    0  501 -0.00000000000E+00  0.00000000000E+00  0.31853520686E+03  0.31853520686E+03  0.00000000000E+00 0.  1.
          1   -1    0    0  502    0  0.00000000000E+00 -0.00000000000E+00 -0.10546549753E+03  0.10546549753E+03  0.00000000000E+00 0. -1.
         23    2    1    2    0    0  0.10939025673E+02  0.52341273907E+02  0.98432467007E+02  0.14331947652E+03  0.89399387877E+02 0.  0.
         23    2    1    2    0    0  0.74954496054E+01 -0.84183024248E+02 -0.53616448179E+01  0.12825490066E+03  0.96320345577E+02 0.  0.
        -11    1    3    3    0    0  0.29090142894E+02  0.62450858389E+02  0.10113182493E+03  0.12236826444E+03  0.00000000000E+00 0.  1.
         11    1    3    3    0    0 -0.18151117220E+02 -0.10109584482E+02 -0.26993579235E+01  0.20951212088E+02  0.00000000000E+00 0. -1.
        -13    1    4    4    0    0 -0.69562783375E+01 -0.10355890670E+03 -0.69966952448E+01  0.10402783622E+03  0.00000000000E+00 0. -1.
         13    1    4    4    0    0  0.14451727943E+02  0.19375882452E+02  0.16350504269E+01  0.24227064437E+02  0.00000000000E+00 0.  1.
         21    1    1    2  502  503 -0.35658496092E+02  0.18425330151E+02  0.11499867878E+02  0.41752462154E+02  0.00000000000E+00 0. -1.
         21    1    1    2  503  501  0.17224020814E+02  0.13416420191E+02  0.10849901926E+03  0.11067386505E+03  0.00000000000E+00 0.  1.
<scales pt_clust_5="13000.00000" pt_clust_6="13000.00000" pt_clust_7="13000.00000" pt_clust_8="13000.00000" pt_clust_9="39.05423" pt_clust_10="21.83271"></scales>
<clustering>
<clus scale="   21.833">  1 10  2 -1</clus>
<clus scale="   39.054">  2  9  1 -1</clus>
<clus scale="   89.399">  5  6 -1 -1</clus>
<clus scale="   96.320">  7  8 -1 -1</clus>
<clus scale="  111.608">  1  5  2 -1</clus>
<clus scale="   39.054">  2  5  1 -1</clus>
</clustering>
</event>
<event>
10    2  0.1898324E-006  0.1113472E+03  0.7546771E-02  0.1258601E+00
          1   -1    0    0  502    0  0.00000000000E+00  0.00000000000E+00  0.13210967645E+03  0.13210967645E+03  0.00000000000E+00 0. -1.
         -1   -1    0    0    0  501 -0.00000000000E+00 -0.00000000000E+00 -0.62033209298E+03  0.62033209298E+03  0.00000000000E+00 0.  1.
         23    2    1    2    0    0  0.61019338536E+02  0.99419798181E+02 -0.41150857599E+03  0.43716235261E+03  0.90354626205E+02 0.  0.
         23    2    1    2    0    0 -0.15648877656E+02 -0.24982975374E+02  0.57346654396E+01  0.96492155422E+02  0.91699581459E+02 0.  0.
        -13    1    3    3    0    0  0.73924695714E+02  0.34946550867E+02 -0.23255158300E+03  0.24650833821E+03  0.00000000000E+00 0. -1.
         13    1    3    3    0    0 -0.12905357178E+02  0.64473247315E+02 -0.17895699300E+03  0.19065401440E+03  0.00000000000E+00 0.  1.
        -13    1    4    4    0    0 -0.46643377302E+02 -0.24814670928E+02 -0.19710596577E+02  0.56390426110E+02  0.00000000000E+00 0.  1.
         13    1    4    4    0    0  0.30994499646E+02 -0.16830444658E+00  0.25445262017E+02  0.40101729312E+02  0.00000000000E+00 0. -1.
         21    1    1    2  502  503  0.16085007956E+02 -0.44747332397E+02  0.50487385730E+02  0.69354360753E+02  0.00000000000E+00 0. -1.
         21    1    1    2  503  501 -0.61455468836E+02 -0.29689490409E+02 -0.13293589171E+03  0.14943290064E+03  0.00000000000E+00 0.  1.
<scales pt_clust_5="13000.00000" pt_clust_6="13000.00000" pt_clust_7="13000.00000" pt_clust_8="13000.00000" pt_clust_9="47.55051" pt_clust_10="69.03233"></scales>
<clustering>
<clus scale="   47.551">  1  9  2 -1</clus>
<clus scale="   69.032">  2 10  1 -1</clus>
<clus scale="   90.355">  5  6 -1 -1</clus>
<clus scale="   91.700">  7  8 -1 -1</clus>
<clus scale="  110.242">  2  5  1 -1</clus>
<clus scale="   47.551">  1  5  2 -1</clus>
</clustering>
</event>
<event>
10    2  0.1898324E-006  0.1302472E+03  0.7546771E-02  0.1241292E+00
         -2   -1    0    0    0  501 -0.00000000000E+00  0.00000000000E+00  0.21091949806E+03  0.21091949806E+03  0.00000000000E+00 0.  1.
          2   -1    0    0  502    0  0.00000000000E+00 -0.00000000000E+00 -0.71112636667E+03  0.71112636667E+03  0.00000000000E+00 0. -1.
         23    2    1    2    0    0 -0.19313472445E+02  0.14860738839E+02 -0.16419505674E+02  0.99351814445E+02  0.94906960178E+02 0.  0.
         23    2    1    2    0    0 -0.11360238007E+03  0.13908638779E+02 -0.49231947671E+03  0.51395012041E+03  0.93098378784E+02 0.  0.
        -11    1    4    4    0    0 -0.43285310020E+02 -0.39165839981E+02 -0.16679336552E+03  0.17671334943E+03  0.00000000000E+00 0. -1.
         11    1    4    4    0    0 -0.70317070050E+02  0.53074478759E+02 -0.32552611119E+03  0.33723677098E+03  0.00000000000E+00 0.  1.
        -13    1    3    3    0    0  0.33092600145E+02 -0.72480475948E+01 -0.24628960282E+02  0.41883649111E+02  0.00000000000E+00 0.  1.
         13    1    3    3    0    0 -0.52406072590E+02  0.22108786434E+02  0.82094546077E+01  0.57468165334E+02  0.00000000000E+00 0. -1.
         21    1    1    2  502  503  0.27286576566E+02 -0.10011965377E+02 -0.13018036490E+03  0.13338562185E+03  0.00000000000E+00 0.  1.
         21    1    1    2  503  501  0.10562927595E+03 -0.18757412241E+02  0.13871247867E+03  0.17535830802E+03  0.00000000000E+00 0.  1.
<scales pt_clust_5="13000.00000" pt_clust_6="13000.00000" pt_clust_7="13000.00000" pt_clust_8="13000.00000" pt_clust_9="29.06539" pt_clust_10="91.08808"></scales>
<clustering>
<clus scale="   29.065">  2  9  1 -1</clus>
<clus scale="   93.098">  5  6 -1 -1</clus>
<clus scale="   94.907">  7  8 -1 -1</clus>
<clus scale="   97.337">  1  7  2 -1</clus>
<clus scale="   91.088">  1 10  2 -1</clus>
<clus scale="   29.065">  2  5  1 -1</clus>
</clustering>
</event>
<event>
10    2  0.1898324E-006  0.1841020E+03  0.7546771E-02  0.1164407E+00
         -1   -1    0    0    0  501 -0.00000000000E+00  0.00000000000E+00  0.73161887324E+03  0.73161887324E+03  0.00000000000E+00 0.  1.
          1   -1    0    0  502    0  0.00000000000E+00 -0.00000000000E+00 -0.12456498110E+03  0.12456498110E+03  0.00000000000E+00 0. -1.
         23    2    1    2    0    0 -0.17384880708E+03 -0.14209195724E+02  0.51466609551E+03  0.55030446877E+03  0.86766984017E+02 0.  0.
         23    2    1    2    0    0  0.94358123157E+02  0.66001582344E+02  0.57442642690E+02  0.15775631891E+03  0.91256422682E+02 0.  0.
        -11    1    3    3    0    0 -0.11681211360E+03 -0.39825945582E+01  0.44291214024E+03  0.45807433340E+03  0.00000000000E+00 0.  1.
         11    1    3    3    0    0 -0.57036693478E+02 -0.10226601166E+02  0.71753955264E+02  0.92230135369E+02  0.00000000000E+00 0. -1.
        -11    1    4    4    0    0  0.24243993413E+02 -0.14929268081E+02 -0.11166241354E+02  0.30583315844E+02  0.00000000000E+00 0.  1.
         11    1    4    4    0    0  0.70114129745E+02  0.80930850425E+02  0.68608884044E+02  0.12717300307E+03  0.00000000000E+00 0. -1.
         21    1    1    2  502  503  0.97670111072E+02 -0.62452468218E+02  0.11346256368E+02  0.11648389982E+03  0.00000000000E+00 0. -1.
         21    1    1    2  503  501 -0.18179427150E+02  0.10660081598E+02  0.23598897579E+02  0.31639166837E+02  0.00000000000E+00 0. -1.
<scales pt_clust_5="13000.00000" pt_clust_6="13000.00000" pt_clust_7="13000.00000" pt_clust_8="13000.00000" pt_clust_9="114.01812" pt_clust_10="21.07437"></scales>
<clustering>
<clus scale="   21.074">  1 10  2 -1</clus>
<clus scale="   86.767">  5  6 -1 -1</clus>
<clus scale="   91.256">  7  8 -1 -1</clus>
<clus scale="  114.018">  2  9  1 -1</clus>
<clus scale="  181.918">  1  5  2 -1</clus>
<clus scale="  114.018">  2  5  1 -1</clus>
</clustering>
</event>
<event>
10    2  0.1898324E-006  0.9483271E+02  0.7546771E-02  0.1292363E+00
         -2   -1    0    0    0  501 -0.00000000000E+00  0.00000000000E+00  0.14663505689E+03  0.14663505689E+03  0.00000000000E+00 0.  1.
          2   -1    0    0  503    0  0.00000000000E+00 -0.00000000000E+00 -0.14225122511E+03  0.14225122511E+03  0.00000000000E+00 0. -1.
         23    2    1    2    0    0  0.17496149057E+01  0.24101287770E+02 -0.89249728044E+00  0.94626869294E+02  0.91485051328E+02 0.  0.
         23    2    1    2    0    0 -0.40412063424E+02  0.87415599892E+01 -0.42237081499E+02  0.10768152089E+03  0.90009939148E+02 0.  0.
        -13    1    4    4    0    0 -0.50911159395E+02  0.33778892662E+02 -0.45956173263E+01  0.61270542996E+02  0.00000000000E+00 0.  1.
         13    1    4    4    0    0  0.10499095972E+02 -0.25037332672E+02 -0.37641464172E+02  0.46410977889E+02  0.00000000000E+00 0. -1.
        -13    1    3    3    0    0 -0.83633256283E+01  0.53460257337E+02 -0.20543846281E+02  0.57879132251E+02  0.00000000000E+00 0.  1.
         13    1    3    3    0    0  0.10112940534E+02 -0.29358969567E+02  0.19651349000E+02  0.36747737043E+02  0.00000000000E+00 0. -1.
         21    1    1    2  502  501 -0.37374693351E+01 -0.22186568285E+02  0.67901059759E+00  0.22509410136E+02  0.00000000000E+00 0.  1.
         21    1    1    2  503  502  0.42399917853E+02 -0.10656279474E+02  0.46834399958E+02  0.64068481687E+02  0.00000000000E+00 0.  1.
<scales pt_clust_5="13000.00000" pt_clust_6="13000.00000" pt_clust_7="13000.00000" pt_clust_8="13000.00000" pt_clust_9="22.49917" pt_clust_10="45.39480"></scales>
<clustering>
<clus scale="   22.499">  1  9  2 -1</clus>
<clus scale="   45.395">  1 10  2 -1</clus>
<clus scale="   90.010">  5  6 -1 -1</clus>
<clus scale="   91.485">  7  8 -1 -1</clus>
<clus scale="   93.410">  2  5  1 -1</clus>
<clus scale="   93.410">  2  5  1 -1</clus>
</clustering>
</event>
<event>
10    2  0.1898324E-006  0.1162229E+03  0.7546771E-02  0.1249676E+00
         -1   -1    0    0    0  501 -0.00000000000E+00  0.00000000000E+00  0.35575740829E+03  0.35575740829E+03  0.00000000000E+00 0.  1.
          1   -1    0    0  502    0  0.00000000000E+00 -0.00000000000E+00 -0.12264923681E+03  0.12264923681E+03  0.00000000000E+00 0. -1.
         23    2    1    2    0    0 -0.56312332338E+02  0.25270887533E+02  0.18117843099E+03  0.21185144609E+03  0.90805918431E+02 0.  0.
         23    2    1    2    0    0  0.31618225761E+02 -0.27087685007E+02 -0.27672705632E+02  0.10421316075E+03  0.91439320630E+02 0.  0.
        -11    1    3    3    0    0 -0.99687306505E+01  0.28781769663E+02  0.15609343874E+03  0.15903750335E+03  0.00000000000E+00 0.  1.
         11    1    3    3    0    0 -0.46343601687E+02 -0.35108821307E+01  0.25084992254E+02  0.52813942734E+02  0.00000000000E+00 0. -1.
        -13    1    4    4    0    0  0.54223080132E+02 -0.19492012905E+02  0.11113842885E+02  0.58682182047E+02  0.00000000000E+00 0.  1.
         13    1    4    4    0    0 -0.22604854372E+02 -0.75956721020E+01 -0.38786548517E+02  0.45530978703E+02  0.00000000000E+00 0. -1.
         21    1    1    2  502  503  0.75411017806E+02  0.28547961095E+02  0.28440173768E+02  0.85502346009E+02  0.00000000000E+00 0.  1.
         21    1    1    2  503  501 -0.50716911228E+02 -0.26731163621E+02  0.51162272355E+02  0.76839692254E+02  0.00000000000E+00 0. -1.
<scales pt_clust_5="13000.00000" pt_clust_6="13000.00000" pt_clust_7="13000.00000" pt_clust_8="13000.00000" pt_clust_9="69.53733" pt_clust_10="57.33027"></scales>
<clustering>
<clus scale="   57.330">  1 10  2 -1</clus>
<clus scale="   69.537">  2  9  1 -1</clus>
<clus scale="   90.806">  5  6 -1 -1</clus>
<clus scale="   91.439">  7  8 -1 -1</clus>
<clus scale="  115.725">  1  5  2 -1</clus>
<clus scale="   69.537">  2  5  1 -1</clus>
</clustering>
</event>
<event>
10    2  0.1898324E-006  0.2777923E+03  0.7546771E-02  0.1096997E+00
          1   -1    0    0  502    0  0.00000000000E+00  0.00000000000E+00  0.91810483379E+03  0.91810483379E+03  0.00000000000E+00 0. -1.
         -1   -1    0    0    0  501 -0.00000000000E+00 -0.00000000000E+00 -0.17519126586E+03  0.17519126586E+03  0.00000000000E+00 0.  1.
         23    2    1    2    0    0 -0.24277692140E+03 -0.19940061963E+03  0.98543903659E+02  0.34120156598E+03  0.89478304687E+02 0.  0.
         23    2    1    2    0    0  0.87390486583E+02  0.16905529283E+03  0.32106751378E+03  0.38430819513E+03  0.91605956455E+02 0.  0.
        -11    1    4    4    0    0  0.64605425095E+02  0.17581572975E+03  0.28903262595E+03  0.34441964323E+03  0.00000000000E+00 0.  1.
         11    1    4    4    0    0  0.22785061487E+02 -0.67604369165E+01  0.32034887825E+02  0.39888551895E+02  0.00000000000E+00 0. -1.
        -11    1    3    3    0    0 -0.99104131642E+02 -0.69771466054E+02  0.83355042525E+02  0.14709775491E+03  0.00000000000E+00 0. -1.
         11    1    3    3    0    0 -0.14367278975E+03 -0.12962915357E+03  0.15188861134E+02  0.19410381108E+03  0.00000000000E+00 0.  1.
         21    1    1    2  502  503  0.32872889666E+02  0.34852605479E+02  0.13346954947E+03  0.14180779816E+03  0.00000000000E+00 0.  1.
         21    1    1    2  503  501  0.12251354515E+03 -0.45072786827E+01  0.18983260102E+03  0.22597854039E+03  0.00000000000E+00 0.  1.
<scales pt_clust_5="13000.00000" pt_clust_6="13000.00000" pt_clust_7="13000.00000" pt_clust_8="13000.00000" pt_clust_9="47.10006" pt_clust_10="175.33542"></scales>
<clustering>
<clus scale="   47.100">  9 10 -1 -1</clus>
<clus scale="   89.478">  7  8 -1 -1</clus>
<clus scale="   91.606">  5  6 -1 -1</clus>
<clus scale="  175.335">  1  9  2 -1</clus>
<clus scale="  277.098">  2  7  1 -1</clus>
<clus scale="  175.335">  1  5  2 -1</clus>
</clustering>
</event>
<event>
10    2  0.1898324E-006  0.1196187E+03  0.7546771E-02  0.1243884E+00
         -2   -1    0    0    0  501 -0.00000000000E+00  0.00000000000E+00  0.35895264476E+02  0.35895264476E+02  0.00000000000E+00 0.  1.
          2   -1    0    0  502    0  0.00000000000E+00 -0.00000000000E+00 -0.11727130746E+04  0.11727130746E+04  0.00000000000E+00 0. -1.
         23    2    1    2    0    0  0.85336098368E+02  0.48248088596E+02 -0.26324726390E+03  0.29585268752E+03  0.92841601796E+02 0.  0.
         23    2    1    2    0    0 -0.19570997176E+02 -0.73874705212E+02 -0.63017092587E+03  0.64147137579E+03  0.92356018474E+02 0.  0.
        -11    1    3    3    0    0  0.21177581188E+02 -0.15213919232E+01 -0.92682370726E+00  0.21252378232E+02  0.00000000000E+00 0.  1.
         11    1    3    3    0    0  0.64158517180E+02  0.49769480519E+02 -0.26232044019E+03  0.27460030929E+03  0.00000000000E+00 0. -1.
        -13    1    4    4    0    0  0.36564786379E+02 -0.19193775408E+02 -0.23600535658E+03  0.23959113705E+03  0.00000000000E+00 0. -1.
         13    1    4    4    0    0 -0.56135783556E+02 -0.54680929804E+02 -0.39416556929E+03  0.40188023874E+03  0.00000000000E+00 0.  1.
         21    1    1    2  502  503 -0.41838364482E+02  0.42773266781E+02 -0.23220718035E+03  0.23979194252E+03  0.00000000000E+00 0. -1.
         21    1    1    2  503  501 -0.23926736710E+02 -0.17146650165E+02 -0.11192440049E+02  0.31492333285E+02  0.00000000000E+00 0. -1.
<scales pt_clust_5="13000.00000" pt_clust_6="13000.00000" pt_clust_7="13000.00000" pt_clust_8="13000.00000" pt_clust_9="60.64364" pt_clust_10="29.43631"></scales>
<clustering>
<clus scale="   29.436">  1 10  2 -1</clus>
<clus scale="   60.644">  2  9  1 -1</clus>
<clus scale="   92.356">  7  8 -1 -1</clus>
<clus scale="   92.842">  5  6 -1 -1</clus>
<clus scale="  119.242">  2  7  1 -1</clus>
<clus scale="   60.644">  2  5  1 -1</clus>
</clustering>
</event>
<event>
10    2  0.1898324E-006  0.1253971E+03  0.7546771E-02  0.1238914E+00
          1   -1    0    0  502    0  0.00000000000E+00  0.00000000000E+00  0.18495930096E+03  0.18495930096E+03  0.00000000000E+00 0. -1.
         -1   -1    0    0    0  501 -0.00000000000E+00 -0.00000000000E+00 -0.21662112253E+03  0.21662112253E+03  0.00000000000E+00 0.  1.
         23    2    1    2    0    0 -0.52515437316E+02  0.42318864884E+02 -0.93655302985E+02  0.15411318000E+03  0.10213128311E+03 0.  0.
         23    2    1    2    0    0  0.79833282041E+02 -0.29656909886E+02 -0.11976401404E+02  0.12331372294E+03  0.88373948929E+02 0.  0.
        -13    1    4    4    0    0  0.84497429714E+02  0.21651047686E+01 -0.25700386437E+02  0.88345985590E+02  0.00000000000E+00 0. -1.
         13    1    4    4    0    0 -0.46641476726E+01 -0.31822014655E+02  0.13723985033E+02  0.34967737350E+02  0.00000000000E+00 0.  1.
        -13    1    3    3    0    0 -0.70111291359E+01 -0.29745636808E+02 -0.49375913211E+02  0.58068404888E+02  0.00000000000E+00 0.  1.
         13    1    3    3    0    0 -0.45504308180E+02  0.72064501692E+02 -0.44279389774E+02  0.96044775110E+02  0.00000000000E+00 0. -1.
         21    1    1    2  502  503  0.21345688201E+02  0.40374507563E+01  0.69146512544E+02  0.72478821805E+02  0.00000000000E+00 0. -1.
         21    1    1    2  503  501 -0.48663532926E+02 -0.16699405754E+02  0.48233702741E+01  0.51674698743E+02  0.00000000000E+00 0.  1.
<scales pt_clust_5="13000.00000" pt_clust_6="13000.00000" pt_clust_7="13000.00000" pt_clust_8="13000.00000" pt_clust_9="21.72417" pt_clust_10="46.13458"></scales>
<clustering>
<clus scale="   21.724">  1  9  2 -1</clus>
<clus scale="   46.135">  1 10  2 -1</clus>
<clus scale="   88.374">  5  6 -1 -1</clus>
<clus scale="  102.131">  7  8 -1 -1</clus>
<clus scale="  114.471">  1  5  2 -1</clus>
<clus scale="   21.724">  1  5  2 -1</clus>
</clustering>
</event>
<event>
10    2  0.1898324E-006  0.1974113E+03  0.7546771E-02  0.1153883E+00
          1   -1    0    0  502    0  0.00000000000E+00  0.00000000000E+00  0.10534259583E+04  0.10534259583E+04  0.00000000000E+00 0. -1.
         -1   -1    0    0    0  501 -0.00000000000E+00 -0.00000000000E+00 -0.13354203407E+03  0.13354203407E+03  0.00000000000E+00 0.  1.
         23    2    1    2    0    0  0.10528549620E+02  0.14981322238E+03 -0.31966573820E+02  0.18779900344E+03  0.10812840466E+03 0.  0.
         23    2    1    2    0    0  0.10482053275E+02 -0.19007807802E+03  0.90273221562E+03  0.92706477307E+03  0.91016982821E+02 0.  0.
        -11    1    4    4    0    0 -0.25609592284E+02 -0.15785251410E+03  0.62408286927E+03  0.64424583440E+03  0.00000000000E+00 0.  1.
         11    1    4    4    0    0  0.36091645559E+02 -0.32225563927E+02  0.27864934635E+03  0.28281893867E+03  0.00000000000E+00 0. -1.
        -13    1    3    3    0    0  0.10999551446E+02  0.66172937933E+02  0.39445499547E+02  0.77818990493E+02  0.00000000000E+00 0. -1.
         13    1    3    3    0    0 -0.47100182674E+00  0.83640284444E+02 -0.71412073367E+02  0.10998001294E+03  0.00000000000E+00 0.  1.
         21    1    1    2  502  503 -0.35341489562E+01  0.25828659867E+02  0.39839394715E+02  0.47610789225E+02  0.00000000000E+00 0.  1.
         21    1    1    2  503  501 -0.17476453939E+02  0.14436195779E+02  0.92788877016E+01  0.24493426625E+02  0.00000000000E+00 0.  1.
<scales pt_clust_5="13000.00000" pt_clust_6="13000.00000" pt_clust_7="13000.00000" pt_clust_8="13000.00000" pt_clust_9="26.58797" pt_clust_10="22.66782"></scales>
<clustering>
<clus scale="   22.668">  2 10  1 -1</clus>
<clus scale="   26.588">  1  9  2 -1</clus>
<clus scale="   91.017">  5  6 -1 -1</clus>
<clus scale="  108.128">  7  8 -1 -1</clus>
<clus scale="  188.583">  1  5  2 -1</clus>
<clus scale="   26.588">  1  5  2 -1</clus>
</clustering>
</event>
<event>
10    2  0.1898324E-006  0.9249120E+02  0.7546771E-02  0.1296977E+00
          2   -1    0    0  502    0  0.00000000000E+00  0.00000000000E+00  0.11315615532E+03  0.11315615532E+03  0.00000000000E+00 0. -1.
         -2   -1    0    0    0  501 -0.00000000000E+00 -0.00000000000E+00 -0.66341456369E+03  0.66341456369E+03  0.00000000000E+00 0.  1.
         23    2    1    2    0    0 -0.17977571159E+02 -0.55942293772E+01 -0.45537608050E+03  0.46480158958E+03  0.91206658316E+02 0.  0.
         23    2    1    2    0    0 -0.12168302544E+02  0.31935467234E+02  0.69263633098E+02  0.11958015229E+03  0.91290855500E+02 0.  0.
        -11    1    3    3    0    0 -0.54547146448E+02 -0.12022518979E+02 -0.26078520379E+03  0.26669993376E+03  0.00000000000E+00 0.  1.
         11    1    3    3    0    0  0.36569575290E+02  0.64282896018E+01 -0.19459087671E+03  0.19810165583E+03  0.00000000000E+00 0. -1.
        -11    1    4    4    0    0 -0.51877097589E+02  0.22347304662E+02  0.43366574770E+02  0.71213026106E+02  0.00000000000E+00 0. -1.
         11    1    4    4    0    0  0.39708795045E+02  0.95881625719E+01  0.25897058328E+02  0.48367126186E+02  0.00000000000E+00 0.  1.
         21    1    1    2  502  503 -0.68685063657E+01 -0.35353056726E+02 -0.16331040954E+02  0.39543873081E+02  0.00000000000E+00 0.  1.
         21    1    1    2  503  501  0.37014380069E+02  0.90118188697E+01 -0.14781492002E+03  0.15264510406E+03  0.00000000000E+00 0. -1.
<scales pt_clust_5="13000.00000" pt_clust_6="13000.00000" pt_clust_7="13000.00000" pt_clust_8="13000.00000" pt_clust_9="36.01409" pt_clust_10="37.74605"></scales>
<clustering>
<clus scale="   36.014">  1  9  2 -1</clus>
<clus scale="   37.746">  2 10  1 -1</clus>
<clus scale="   91.207">  5  6 -1 -1</clus>
<clus scale="   91.291">  7  8 -1 -1</clus>
<clus scale="   92.408">  2  5  1 -1</clus>
<clus scale="   36.014">  1  5  2 -1</clus>
</clustering>
</event>
<event>
10    2  0.2471231E-006  0.9200066E+02  0.7546771E-02  0.1298874E+00
          2   -1    0    0  502    0  0.00000000000E+00  0.00000000000E+00  0.33952674137E+03  0.33952674137E+03  0.00000000000E+00 0. -1.
         -2   -1    0    0    0  501 -0.00000000000E+00 -0.00000000000E+00 -0.87774615334E+02  0.87774615334E+02  0.00000000000E+00 0.  1.
         23    2    1    2    0    0  0.18317243204E+02 -0.24956467810E+02 -0.26537793596E+02  0.10015221659E+03  0.91476036832E+02 0.  0.
         23    2    1    2    0    0  0.53107093285E+01 -0.18389460442E+02  0.16429722866E+03  0.18836771952E+03  0.90124594429E+02 0.  0.
        -11    1    3    3    0    0  0.53643876965E+02 -0.98890779812E+01 -0.28792558291E+02  0.61680392444E+02  0.00000000000E+00 0.  1.
         11    1    3    3    0    0 -0.35326633761E+02 -0.15067389828E+02  0.22547646956E+01  0.38471824144E+02  0.00000000000E+00 0. -1.
        -13    1    4    4    0    0 -0.33900827094E+01 -0.54238723511E+02  0.11045509550E+03  0.12310020273E+03  0.00000000000E+00 0.  1.
         13    1    4    4    0    0  0.87007920379E+01  0.35849263070E+02  0.53842133158E+02  0.65267516789E+02  0.00000000000E+00 0. -1.
         21    1    1    2  502  503 -0.17976272658E+02  0.14460762183E+02  0.10572000705E+03  0.10820803996E+03  0.00000000000E+00 0.  1.
         21    1    1    2  503  501 -0.56516798742E+01  0.28885166068E+02  0.82726839166E+01  0.30573380634E+02  0.00000000000E+00 0. -1.
<scales pt_clust_5="13000.00000" pt_clust_6="13000.00000" pt_clust_7="13000.00000" pt_clust_8="13000.00000" pt_clust_9="23.07076" pt_clust_10="30.93134"></scales>
<clustering>
<clus scale="   23.071">  1  9  2 -1</clus>
<clus scale="   30.931">  2 10  1 -1</clus>
<clus scale="   90.125">  7  8 -1 -1</clus>
<clus scale="   90.657">  1  7  2 -1</clus>
<clus scale="   91.476">  5  6 -1 -1</clus>
<clus scale="   23.071">  1  5  2 -1</clus>
</clustering>
</event>
<event>
10    2  0.1898324E-006  0.1150187E+03  0.7546771E-02  0.1251552E+00
          2   -1    0    0  502    0  0.00000000000E+00  0.00000000000E+00  0.96164856405E+02  0.96164856405E+02  0.00000000000E+00 0. -1.
         -2   -1    0    0    0  501 -0.00000000000E+00 -0.00000000000E+00 -0.34834803820E+03  0.34834803820E+03  0.00000000000E+00 0.  1.
         23    2    1    2    0    0 -0.36291307799E+02 -0.70072302627E+01 -0.72565071956E+02  0.12238265598E+03  0.91354608637E+02 0.  0.
         23    2    1    2    0    0  0.99847704914E+02  0.46775142821E+02 -0.90701186175E+02  0.16949323944E+03  0.91344265728E+02 0.  0.
        -13    1    4    4    0    0  0.10954632156E+03  0.19180769995E+02 -0.57336477354E+02  0.12512302003E+03  0.00000000000E+00 0. -1.
         13    1    4    4    0    0 -0.96986166473E+01  0.27594372825E+02 -0.33364708821E+02  0.44370219418E+02  0.00000000000E+00 0.  1.
        -13    1    3    3    0    0  0.26787034221E+02 -0.20211587077E+02 -0.31083175504E+02  0.45740761405E+02  0.00000000000E+00 0. -1.
         13    1    3    3    0    0 -0.63078342020E+02  0.13204356814E+02 -0.41481896453E+02  0.76641894576E+02  0.00000000000E+00 0.  1.
         21    1    1    2  502  503 -0.35211643177E+02  0.66082088863E+01  0.12192847392E+02  0.37844336002E+02  0.00000000000E+00 0. -1.
         21    1    1    2  503  501 -0.28344753938E+02 -0.46376121444E+02 -0.10110977105E+03  0.11479266317E+03  0.00000000000E+00 0. -1.
<scales pt_clust_5="13000.00000" pt_clust_6="13000.00000" pt_clust_7="13000.00000" pt_clust_8="13000.00000" pt_clust_9="35.82636" pt_clust_10="55.66909"></scales>
<clustering>
<clus scale="   35.826">  1  9  2 -1</clus>
<clus scale="   55.669">  2 10  1 -1</clus>
<clus scale="   91.344">  5  6 -1 -1</clus>
<clus scale="   91.355">  7  8 -1 -1</clus>
<clus scale="  115.010">  1  5  2 -1</clus>
<clus scale="   35.826">  1  5  2 -1</clus>
</clustering>
</event>
<event>
10    2  0.1898324E-006  0.1042954E+03  0.7546771E-02  0.1273394E+00
         -3   -1    0    0    0  501 -0.00000000000E+00  0.00000000000E+00  0.26192904796E+03  0.26192904796E+03  0.00000000000E+00 0.  1.
          3   -1    0    0  502    0  0.00000000000E+00 -0.00000000000E+00 -0.14802207587E+03  0.14802207587E+03  0.00000000000E+00 0. -1.
         23    2    1    2    0    0  0.18591794112E+02  0.51264552210E+02  0.13047482962E+03  0.17019815311E+03  0.94710194995E+02 0.  0.
         23    2    1    2    0    0 -0.44534498617E+02 -0.17001377616E+02  0.36416325352E+02  0.10866681532E+03  0.90608827338E+02 0.  0.
        -11    1    3    3    0    0 -0.28017404835E+01  0.62464755455E+02  0.13193931291E+03  0.14600574549E+03  0.00000000000E+00 0.  1.
         11    1    3    3    0    0  0.21393534596E+02 -0.11200203245E+02 -0.14644832911E+01  0.24192407622E+02  0.00000000000E+00 0. -1.
        -13    1    4    4    0    0  0.17074984062E+02 -0.30200374288E+02  0.29013193915E+02  0.45225911920E+02  0.00000000000E+00 0. -1.
         13    1    4    4    0    0 -0.61609482678E+02  0.13198996673E+02  0.74031314370E+01  0.63440903399E+02  0.00000000000E+00 0.  1.
         21    1    1    2  502  503  0.18813097963E+02 -0.10853760567E+02 -0.86726213231E+02  0.89404545941E+02  0.00000000000E+00 0. -1.
         21    1    1    2  503  501  0.71296065411E+01 -0.23409414027E+02  0.33742030353E+02  0.41681609456E+02  0.00000000000E+00 0.  1.
<scales pt_clust_5="13000.00000" pt_clust_6="13000.00000" pt_clust_7="13000.00000" pt_clust_8="13000.00000" pt_clust_9="21.71950" pt_clust_10="25.54031"></scales>
<clustering>
<clus scale="   21.720">  2  9  1 -1</clus>
<clus scale="   25.540">  1 10  2 -1</clus>
<clus scale="   90.609">  7  8 -1 -1</clus>
<clus scale="   94.710">  5  6 -1 -1</clus>
<clus scale="  100.586">  2  7  1 -1</clus>
<clus scale="   21.720">  2  5  1 -1</clus>
</clustering>
</event>
<event>
10    2  0.1898324E-006  0.2260608E+03  0.7546771E-02  0.1129778E+00
          1   -1    0    0  503    0  0.00000000000E+00  0.00000000000E+00  0.34016676113E+03  0.34016676113E+03  0.00000000000E+00 0. -1.
         -1   -1    0    0    0  501 -0.00000000000E+00 -0.00000000000E+00 -0.24838664431E+03  0.24838664431E+03  0.00000000000E+00 0.  1.
         23    2    1    2    0    0 -0.94118280296E+02 -0.15643574781E+03 -0.29789691615E+02  0.20536883210E+03  0.89210636090E+02 0.  0.
         23    2    1    2    0    0  0.56131285988E+02  0.21342990585E+03  0.16802446205E+03  0.29279190028E+03  0.93764764392E+02 0.  0.
        -13    1    4    4    0    0  0.56706345566E+01  0.79287013682E+02  0.11085938436E+02  0.80258860357E+02  0.00000000000E+00 0.  1.
         13    1    4    4    0    0  0.50460651431E+02  0.13414289217E+03  0.15693852362E+03  0.21253303992E+03  0.00000000000E+00 0. -1.
        -13    1    3    3    0    0  0.17203166183E+02 -0.18321269012E+02 -0.92976777087E+01  0.26796728078E+02  0.00000000000E+00 0. -1.
         13    1    3    3    0    0 -0.11132144648E+03 -0.13811447880E+03 -0.20492013906E+02  0.17857210402E+03  0.00000000000E+00 0.  1.
         21    1    1    2  502  501  0.66756750255E+01 -0.29751513437E+02 -0.35475463181E+01  0.30696942417E+02  0.00000000000E+00 0.  1.
         21    1    1    2  503  502  0.31311319283E+02 -0.27242644603E+02 -0.42907107302E+02  0.59695730645E+02  0.00000000000E+00 0.  1.
<scales pt_clust_5="13000.00000" pt_clust_6="13000.00000" pt_clust_7="13000.00000" pt_clust_8="13000.00000" pt_clust_9="30.49126" pt_clust_10="47.12364"></scales>
<clustering>
<clus scale="   30.491">  2  9  1 -1</clus>
<clus scale="   47.124">  2 10  1 -1</clus>
<clus scale="   89.211">  7  8 -1 -1</clus>
<clus scale="   93.765">  5  6 -1 -1</clus>
<clus scale="  224.210">  2  7  1 -1</clus>
<clus scale="  226.061">  1  5  2 -1</clus>
</clustering>
</event>
<event>
10    2  0.1898324E-006  0.9810232E+02  0.7546771E-02  0.1285198E+00
         -1   -1    0    0    0  501 -0.00000000000E+00  0.00000000000E+00  0.33555346609E+03  0.33555346609E+03  0.00000000000E+00 0.  1.
          1   -1    0    0  502    0  0.00000000000E+00 -0.00000000000E+00 -0.24011969941E+03  0.24011969941E+03  0.00000000000E+00 0. -1.
         23    2    1    2    0    0 -0.65978967701E+01 -0.56961178437E+02  0.28523860091E+03  0.30466534274E+03  0.90398028313E+02 0.  0.
         23    2    1    2    0    0 -0.20769344249E+01  0.21769272613E+02 -0.76112052070E+02  0.11889191329E+03  0.88679353227E+02 0.  0.
        -11    1    4    4    0    0  0.20303936504E+02 -0.18129796135E+01 -0.83162404964E+02  0.85624309236E+02  0.00000000000E+00 0. -1.
         11    1    4    4    0    0 -0.22380870929E+02  0.23582252226E+02  0.70503528941E+01  0.33267604054E+02  0.00000000000E+00 0.  1.
        -13    1    3    3    0    0  0.16624603661E+01 -0.80542640425E+02  0.19386289297E+03  0.20993499463E+03  0.00000000000E+00 0.  1.
         13    1    3    3    0    0 -0.82603571363E+01  0.23581461988E+02  0.91375707945E+02  0.94730348104E+02  0.00000000000E+00 0. -1.
         21    1    1    2  502  503  0.18709742674E+02  0.14394197361E+02 -0.12443015069E+03  0.12664955503E+03  0.00000000000E+00 0. -1.
         21    1    1    2  503  501 -0.10034911479E+02  0.20797708463E+02  0.10737368535E+02  0.25466354446E+02  0.00000000000E+00 0.  1.
<scales pt_clust_5="13000.00000" pt_clust_6="13000.00000" pt_clust_7="13000.00000" pt_clust_8="13000.00000" pt_clust_9="23.62275" pt_clust_10="23.09208"></scales>
<clustering>
<clus scale="   23.092">  1 10  2 -1</clus>
<clus scale="   23.623">  2  9  1 -1</clus>
<clus scale="   88.679">  5  6 -1 -1</clus>
<clus scale="   90.398">  7  8 -1 -1</clus>
<clus scale="   96.521">  2  5  1 -1</clus>
<clus scale="   23.623">  2  5  1 -1</clus>
</clustering>
</event>
<event>
10    2  0.1898324E-006  0.9749143E+02  0.7546771E-02  0.1289674E+00
          1   -1    0    0  503    0  0.00000000000E+00  0.00000000000E+00  0.19498559549E+03  0.19498559549E+03  0.00000000000E+00 0. -1.
         -1   -1    0    0    0  501 -0.00000000000E+00 -0.00000000000E+00 -0.31837891381E+03  0.31837891381E+03  0.00000000000E+00 0.  1.
         23    2    1    2    0    0  0.14894997508E+02  0.33132700287E+02 -0.27265986267E+03  0.28732938717E+03  0.83036975141E+02 0.  0.
         23    2    1    2    0    0 -0.24429611862E+02 -0.15503296721E+02  0.13064345791E+03  0.16165132367E+03  0.90698837946E+02 0.  0.
        -11    1    3    3    0    0 -0.24796939197E+02  0.49494831708E+01 -0.27398181113E+02  0.37283319400E+02  0.00000000000E+00 0. -1.
         11    1    3    3    0    0  0.39691936704E+02  0.28183217116E+02 -0.24526168156E+03  0.25004606777E+03  0.00000000000E+00 0.  1.
        -13    1    4    4    0    0  0.70469052606E+01 -0.32884910378E+02  0.90142993642E+01  0.34818584080E+02  0.00000000000E+00 0. -1.
         13    1    4    4    0    0 -0.31476517122E+02  0.17381613657E+02  0.12162915854E+03  0.12683273959E+03  0.00000000000E+00 0.  1.
         21    1    1    2  502  501  0.30070679762E+02 -0.34447660360E+01  0.24267775451E+02  0.38794807896E+02  0.00000000000E+00 0. -1.
         21    1    1    2  503  502 -0.20536065408E+02 -0.14184637529E+02 -0.56446889965E+01  0.25588990565E+02  0.00000000000E+00 0. -1.
<scales pt_clust_5="13000.00000" pt_clust_6="13000.00000" pt_clust_7="13000.00000" pt_clust_8="13000.00000" pt_clust_9="27.20977" pt_clust_10="24.95864"></scales>
<clustering>
<clus scale="   24.959">  1 10  2 -1</clus>
<clus scale="   27.210">  1  9  2 -1</clus>
<clus scale="   83.037">  5  6 -1 -1</clus>
<clus scale="   90.407">  2  5  1 -1</clus>
<clus scale="   90.699">  7  8 -1 -1</clus>
<clus scale="   24.959">  1  5  2 -1</clus>
</clustering>
</event>
<event>
10    2  0.1898324E-006  0.1873275E+03  0.7546771E-02  0.1160949E+00
         -1   -1    0    0    0  501 -0.00000000000E+00  0.00000000000E+00  0.64751559434E+02  0.64751559434E+02  0.00000000000E+00 0.  1.
          1   -1    0    0  502    0  0.00000000000E+00 -0.00000000000E+00 -0.14182713203E+04  0.14182713203E+04  0.00000000000E+00 0. -1.
         23    2    1    2    0    0 -0.16191513931E+03  0.17480483135E+02 -0.31331276494E+03  0.36495779920E+03  0.92234629574E+02 0.  0.
         23    2    1    2    0    0  0.14015042839E+03 -0.89527400980E+02 -0.76202580087E+03  0.78533938308E+03  0.91745993436E+02 0.  0.
        -11    1    3    3    0    0 -0.83619071137E+02  0.28122073644E+02 -0.24536963782E+03  0.26074750094E+03  0.00000000000E+00 0. -1.
         11    1    3    3    0    0 -0.78296068172E+02 -0.10641590509E+02 -0.67943127122E+02  0.10421029826E+03  0.00000000000E+00 0.  1.
        -13    1    4    4    0    0  0.12091465985E+03 -0.10679144795E+03 -0.69560951816E+03  0.71407098392E+03  0.00000000000E+00 0. -1.
         13    1    4    4    0    0  0.19235768541E+02  0.17264046968E+02 -0.66416282714E+02  0.71268399159E+02  0.00000000000E+00 0.  1.
         21    1    1    2  502  503 -0.84420744134E+01 -0.29364549228E+02 -0.19700527960E+03  0.19936054164E+03  0.00000000000E+00 0. -1.
         21    1    1    2  503  501  0.30206785331E+02  0.10141146707E+03 -0.81175915419E+02  0.13336515579E+03  0.00000000000E+00 0. -1.
<scales pt_clust_5="13000.00000" pt_clust_6="13000.00000" pt_clust_7="13000.00000" pt_clust_8="13000.00000" pt_clust_9="30.55397" pt_clust_10="103.12844"></scales>
<clustering>
<clus scale="   30.554">  2  9  1 -1</clus>
<clus scale="   91.746">  7  8 -1 -1</clus>
<clus scale="   92.235">  5  6 -1 -1</clus>
<clus scale="  103.128">  1 10  2 -1</clus>
<clus scale="  187.087">  2  7  1 -1</clus>
<clus scale="   30.554">  2  5  1 -1</clus>
</clustering>
</event>
<event>
10    2  0.1898324E-006  0.1614927E+03  0.7546771E-02  0.1187462E+00
          1   -1    0    0  502    0  0.00000000000E+00  0.00000000000E+00  0.80507965112E+03  0.80507965112E+03  0.00000000000E+00 0. -1.
         -1   -1    0    0    0  501 -0.00000000000E+00 -0.00000000000E+00 -0.13656968246E+03  0.13656968246E+03  0.00000000000E+00 0.  1.
         23    2    1    2    0    0 -0.40236102859E+02  0.63238435589E+02  0.82946200147E+01  0.11765802411E+03  0.90313709966E+02 0.  0.
         23    2    1    2    0    0  0.94355508242E+02 -0.81904987187E+02  0.49042012453E+03  0.51457258420E+03  0.93068023558E+02 0.  0.
        -11    1    4    4    0    0  0.83500675558E+02 -0.32731980585E+02  0.40994214798E+03  0.41963830862E+03  0.00000000000E+00 0. -1.
         11    1    4    4    0    0  0.10854832684E+02 -0.49173006602E+02  0.80477976546E+02  0.94934275579E+02  0.00000000000E+00 0.  1.
        -13    1    3    3    0    0  0.26613888118E+02  0.24327321445E+02 -0.11443537531E+02  0.37829514412E+02  0.00000000000E+00 0. -1.
         13    1    3    3    0    0 -0.66849990978E+02  0.38911114145E+02  0.19738157546E+02  0.79828509701E+02  0.00000000000E+00 0.  1.
         21    1    1    2  502  503  0.88156644946E+01 -0.36806471986E+02  0.21210848187E+03  0.21545867446E+03  0.00000000000E+00 0. -1.
         21    1    1    2  503  501 -0.62935069877E+02  0.55473023583E+02 -0.42313257745E+02  0.93960050803E+02  0.00000000000E+00 0.  1.
<scales pt_clust_5="13000.00000" pt_clust_6="13000.00000" pt_clust_7="13000.00000" pt_clust_8="13000.00000" pt_clust_9="37.84749" pt_clust_10="82.54703"></scales>
<clustering>
<clus scale="   37.847">  1  9  2 -1</clus>
<clus scale="   82.547">  2 10  1 -1</clus>
<clus scale="   90.314">  7  8 -1 -1</clus>
<clus scale="   93.068">  5  6 -1 -1</clus>
<clus scale="  159.921">  2  7  1 -1</clus>
<clus scale="   37.847">  1  5  2 -1</clus>
</clustering>
</event>
<event>
10    2  0.1898324E-006  0.1017814E+03  0.7546771E-02  0.1277669E+00
          2   -1    0    0  503    0  0.00000000000E+00  0.00000000000E+00  0.11213453765E+03  0.11213453765E+03  0.00000000000E+00 0. -1.
         -2   -1    0    0    0  501 -0.00000000000E+00 -0.00000000000E+00 -0.10003291461E+04  0.10003291461E+04  0.00000000000E+00 0.  1.
         23    2    1    2    0    0  0.42101192886E+02 -0.76215242988E+02 -0.48670867359E+03  0.50233036253E+03  0.88708435138E+02 0.  0.
         23    2    1    2    0    0  0.52636317493E+01  0.43871401102E+02  0.76893476443E+02  0.12708814352E+03  0.91029576785E+02 0.  0.
        -11    1    4    4    0    0  0.30925118510E+02  0.52133543296E+02  0.19494376785E+02  0.63673385474E+02  0.00000000000E+00 0.  1.
         11    1    4    4    0    0 -0.25661486761E+02 -0.82621421933E+01  0.57399099658E+02  0.63414758046E+02  0.00000000000E+00 0. -1.
        -13    1    3    3    0    0  0.38064226114E+02 -0.74581798319E-01 -0.80730856440E+02  0.89254479180E+02  0.00000000000E+00 0.  1.
         13    1    3    3    0    0  0.40369667721E+01 -0.76140661190E+02 -0.40597781715E+03  0.41307588335E+03  0.00000000000E+00 0. -1.
         21    1    1    2  502  501 -0.30637599609E+01  0.20739566946E+02 -0.13281017734E+03  0.13445467439E+03  0.00000000000E+00 0. -1.
         21    1    1    2  503  502 -0.44301064674E+02  0.11604274940E+02 -0.34556923394E+03  0.34859050327E+03  0.00000000000E+00 0.  1.
<scales pt_clust_5="13000.00000" pt_clust_6="13000.00000" pt_clust_7="13000.00000" pt_clust_8="13000.00000" pt_clust_9="20.96464" pt_clust_10="49.69098"></scales>
<clustering>
<clus scale="   20.965">  2  9  1 -1</clus>
<clus scale="   49.691">  2 10  1 -1</clus>
<clus scale="   88.708">  7  8 -1 -1</clus>
<clus scale="   91.030">  5  6 -1 -1</clus>
<clus scale="   99.711">  2  7  1 -1</clus>
<clus scale="  101.781">  1  5  2 -1</clus>
</clustering>
</event>
<event>
10    2  0.1898324E-006  0.1052927E+03  0.7546771E-02  0.1269961E+00
          1   -1    0    0  502    0  0.00000000000E+00  0.00000000000E+00  0.27977919446E+03  0.27977919446E+03  0.00000000000E+00 0. -1.
         -1   -1    0    0    0  501 -0.00000000000E+00 -0.00000000000E+00 -0.11166186422E+03  0.11166186422E+03  0.00000000000E+00 0.  1.
         23    2    1    2    0    0 -0.43260770876E+02  0.43630523270E+02  0.16653120117E+02  0.11152079544E+03  0.91566612633E+02 0.  0.
         23    2    1    2    0    0  0.52436184848E+02  0.10418229325E+02  0.50145145961E+02  0.11804496894E+03  0.92531000456E+02 0.  0.
        -13    1    4    4    0    0 -0.18469965291E+02 -0.20110296835E+02  0.27146045703E+01  0.27439619797E+02  0.00000000000E+00 0.  1.
         13    1    4    4    0    0  0.70906150139E+02  0.30528526160E+02  0.47430541391E+02  0.90605349145E+02  0.00000000000E+00 0. -1.
        -13    1    3    3    0    0 -0.72136299017E+02  0.27802935058E+02  0.12921065828E+02  0.78381137883E+02  0.00000000000E+00 0.  1.
         13    1    3    3    0    0  0.28875528141E+02  0.15827588213E+02  0.37320542884E+01  0.33139657561E+02  0.00000000000E+00 0. -1.
         21    1    1    2  502  503 -0.57575346731E+01 -0.22996555110E+02  0.12208371203E+03  0.12436407639E+03  0.00000000000E+00 0. -1.
         21    1    1    2  503  501 -0.34178792989E+01 -0.31052197485E+02 -0.20764647874E+02  0.37511217907E+02  0.00000000000E+00 0.  1.
<scales pt_clust_5="13000.00000" pt_clust_6="13000.00000" pt_clust_7="13000.00000" pt_clust_8="13000.00000" pt_clust_9="23.70634" pt_clust_10="32.49645"></scales>
<clustering>
<clus scale="   23.706">  1  9  2 -1</clus>
<clus scale="   32.496">  2 10  1 -1</clus>
<clus scale="   91.567">  7  8 -1 -1</clus>
<clus scale="   92.531">  5  6 -1 -1</clus>
<clus scale="  104.446">  2  7  1 -1</clus>
<clus scale="   23.706">  1  5  2 -1</clus>
</clustering>
</event>
<event>
10    2  0.1898324E-006  0.3083524E+03  0.7546771E-02  0.1081993E+00
          1   -1    0    0  502    0  0.00000000000E+00  0.00000000000E+00  0.93347372299E+03  0.93347372299E+03  0.00000000000E+00 0. -1.
         -1   -1    0    0    0  501 -0.00000000000E+00 -0.00000000000E+00 -0.30756782479E+03  0.30756782479E+03  0.00000000000E+00 0.  1.
         23    2    1    2    0    0  0.24728976946E+03 -0.57314395936E+02  0.31518902065E+03  0.41482702449E+03  0.91105276725E+02 0.  0.
         23    2    1    2    0    0 -0.33762068825E+03  0.21641876108E+02  0.29721915828E+03  0.45478564445E+03  0.63518929522E+02 0.  0.
        -11    1    3    3    0    0  0.33985413296E+02 -0.16918285685E+02  0.82130600185E+01  0.38841872538E+02  0.00000000000E+00 0.  1.
         11    1    3    3    0    0  0.21330435617E+03 -0.40396110251E+02  0.30697596063E+03  0.37598515195E+03  0.00000000000E+00 0. -1.
        -13    1    4    4    0    0 -0.84445153131E+02  0.19828856097E+02  0.46285313855E+02  0.98318348746E+02  0.00000000000E+00 0. -1.
         13    1    4    4    0    0 -0.25317553512E+03  0.18130200114E+01  0.25093384443E+03  0.35646729570E+03  0.00000000000E+00 0.  1.
         21    1    1    2  502  503  0.85297700929E+02  0.57997405464E+02  0.17779296854E+03  0.20554740690E+03  0.00000000000E+00 0. -1.
         21    1    1    2  503  501  0.50332178571E+01 -0.22324885637E+02 -0.16429524927E+03  0.16588147194E+03  0.00000000000E+00 0.  1.
<scales pt_clust_5="13000.00000" pt_clust_6="13000.00000" pt_clust_7="13000.00000" pt_clust_8="13000.00000" pt_clust_9="102.35124" pt_clust_10="22.88523"></scales>
<clustering>
<clus scale="   22.885">  2 10  1 -1</clus>
<clus scale="   63.519">  7  8 -1 -1</clus>
<clus scale="   91.105">  5  6 -1 -1</clus>
<clus scale="  102.351">  1  9  2 -1</clus>
<clus scale="  301.356">  1  7  2 -1</clus>
<clus scale="  102.351">  1  5  2 -1</clus>
</clustering>
</event>
<event>
10    2  0.1898324E-006  0.1357224E+03  0.7546771E-02  0.1219731E+00
          2   -1    0    0  502    0  0.00000000000E+00  0.00000000000E+00  0.55883421806E+03  0.55883421806E+03  0.00000000000E+00 0. -1.
         -2   -1    0    0    0  501 -0.00000000000E+00 -0.00000000000E+00 -0.12325793564E+03  0.12325793564E+03  0.00000000000E+00 0.  1.
         23    2    1    2    0    0 -0.59510352306E+02  0.79050410072E+02  0.84014319269E+02  0.16043929755E+03  0.94296940519E+02 0.  0.
         23    2    1    2    0    0  0.72834795978E+02 -0.65052147261E+02  0.39576395823E+03  0.41791634890E+03  0.92131833103E+02 0.  0.
        -11    1    4    4    0    0  0.51106409847E+02  0.12729654536E+02  0.17941137700E+03  0.18698222223E+03  0.00000000000E+00 0.  1.
         11    1    4    4    0    0  0.21728386131E+02 -0.77781801796E+02  0.21635258123E+03  0.23093412667E+03  0.00000000000E+00 0. -1.
        -13    1    3    3    0    0 -0.36759869785E+02  0.93833068119E+02  0.39363169156E+02  0.10819145893E+03  0.00000000000E+00 0.  1.
         13    1    3    3    0    0 -0.22750482520E+02 -0.14782658047E+02  0.44651150113E+02  0.52247838618E+02  0.00000000000E+00 0. -1.
         21    1    1    2  502  503 -0.24523093346E+02  0.99949799310E+01  0.20718876248E+02  0.33623705389E+02  0.00000000000E+00 0.  1.
         21    1    1    2  503  501  0.11198649674E+02 -0.23993242742E+02 -0.64920871329E+02  0.70112801869E+02  0.00000000000E+00 0.  1.
<scales pt_clust_5="13000.00000" pt_clust_6="13000.00000" pt_clust_7="13000.00000" pt_clust_8="13000.00000" pt_clust_9="24.32235" pt_clust_10="26.47802"></scales>
<clustering>
<clus scale="   26.478">  2 10  1 -1</clus>
<clus scale="   24.322">  2  9  1 -1</clus>
<clus scale="   92.132">  5  6 -1 -1</clus>
<clus scale="   94.297">  7  8 -1 -1</clus>
<clus scale="  134.227">  1  5  2 -1</clus>
<clus scale="  134.227">  1  5  2 -1</clus>
</clustering>
</event>
<event>
10    2  0.1898324E-006  0.1587655E+03  0.7546771E-02  0.1190755E+00
         -1   -1    0    0    0  501 -0.00000000000E+00  0.00000000000E+00  0.34735850795E+03  0.34735850795E+03  0.00000000000E+00 0.  1.
          1   -1    0    0  502    0  0.00000000000E+00 -0.00000000000E+00 -0.13497503810E+03  0.13497503810E+03  0.00000000000E+00 0. -1.
         23    2    1    2    0    0 -0.11426790778E+03 -0.45561979921E+02  0.65241853883E+02  0.16600232493E+03  0.90372692905E+02 0.  0.
         23    2    1    2    0    0  0.13756464157E+03  0.10022668098E+02  0.46775515783E+02  0.17349711923E+03  0.94280523000E+02 0.  0.
        -13    1    3    3    0    0 -0.43524134017E+01 -0.41166098760E+02  0.27530502887E+02  0.49714382011E+02  0.00000000000E+00 0.  1.
         13    1    3    3    0    0 -0.10991549437E+03 -0.43958811607E+01  0.37711350996E+02  0.11628794292E+03  0.00000000000E+00 0. -1.
        -13    1    4    4    0    0  0.14005894490E+03 -0.14078180005E+02  0.49272684720E+02  0.14913919894E+03  0.00000000000E+00 0.  1.
         13    1    4    4    0    0 -0.24943033297E+01  0.24100848102E+02 -0.24971689366E+01  0.24357920294E+02  0.00000000000E+00 0. -1.
         21    1    1    2  502  503 -0.21487869390E+02  0.11935040076E+02 -0.12455430590E+02  0.27555606756E+02  0.00000000000E+00 0. -1.
         21    1    1    2  503  501 -0.18088644091E+01  0.23604271747E+02  0.11282153077E+03  0.11527849513E+03  0.00000000000E+00 0.  1.
<scales pt_clust_5="13000.00000" pt_clust_6="13000.00000" pt_clust_7="13000.00000" pt_clust_8="13000.00000" pt_clust_9="25.01019" pt_clust_10="23.67348"></scales>
<clustering>
<clus scale="   23.673">  1 10  2 -1</clus>
<clus scale="   25.010">  2  9  1 -1</clus>
<clus scale="   90.373">  5  6 -1 -1</clus>
<clus scale="   94.281">  7  8 -1 -1</clus>
<clus scale="  156.476">  1  5  2 -1</clus>
<clus scale="   25.010">  2  5  1 -1</clus>
</clustering>
</event>
<event>
10    2  0.1898324E-006  0.9442219E+02  0.7546771E-02  0.1292839E+00
          2   -1    0    0  502    0  0.00000000000E+00  0.00000000000E+00  0.26896871013E+03  0.26896871013E+03  0.00000000000E+00 0. -1.
         -2   -1    0    0    0  501 -0.00000000000E+00 -0.00000000000E+00 -0.18151631093E+03  0.18151631093E+03  0.00000000000E+00 0.  1.
         23    2    1    2    0    0  0.87414362201E+01  0.15989217250E+02  0.27449269517E+02  0.96487159451E+02  0.90687605363E+02 0.  0.
         23    2    1    2    0    0 -0.25644096110E+02 -0.13010985577E+02  0.12392923932E+03  0.15585822731E+03  0.90035688765E+02 0.  0.
        -11    1    3    3    0    0  0.78346267015E+01 -0.23485904030E+02 -0.22060011831E+02  0.33160415945E+02  0.00000000000E+00 0.  1.
         11    1    3    3    0    0  0.90680951862E+00  0.39475121280E+02  0.49509281348E+02  0.63326743507E+02  0.00000000000E+00 0. -1.
        -13    1    4    4    0    0 -0.50206839738E+02 -0.35204712830E+02  0.77156049872E+02  0.98555337724E+02  0.00000000000E+00 0.  1.
         13    1    4    4    0    0  0.24562743629E+02  0.22193727254E+02  0.46773189449E+02  0.57302889589E+02  0.00000000000E+00 0. -1.
         21    1    1    2  502  503 -0.15159120256E+02  0.18188047206E+02  0.62061481744E+02  0.66424630253E+02  0.00000000000E+00 0. -1.
         21    1    1    2  503  501  0.32061780145E+02 -0.21166278879E+02 -0.12598759138E+03  0.13171500404E+03  0.00000000000E+00 0.  1.
<scales pt_clust_5="13000.00000" pt_clust_6="13000.00000" pt_clust_7="13000.00000" pt_clust_8="13000.00000" pt_clust_9="23.67708" pt_clust_10="38.10133"></scales>
<clustering>
<clus scale="   23.677">  1  9  2 -1</clus>
<clus scale="   38.101">  2 10  1 -1</clus>
<clus scale="   90.036">  7  8 -1 -1</clus>
<clus scale="   90.688">  5  6 -1 -1</clus>
<clus scale="   93.796">  1  7  2 -1</clus>
<clus scale="   23.677">  1  5  2 -1</clus>
</clustering>
</event>
<event>
10    2  0.1898324E-006  0.1774209E+03  0.7546771E-02  0.1195344E+00
         -1   -1    0    0    0  501 -0.00000000000E+00  0.00000000000E+00  0.32083973231E+03  0.32083973231E+03  0.00000000000E+00 0.  1.
          1   -1    0    0  502    0  0.00000000000E+00 -0.00000000000E+00 -0.62353317563E+03  0.62353317563E+03  0.00000000000E+00 0. -1.
         23    2    1    2    0    0 -0.12938634470E+02 -0.38540076064E+02 -0.18489508926E+02  0.10910519710E+03  0.99545649672E+02 0.  0.
         23    2    1    2    0    0 -0.58239922735E+02 -0.15872361919E+03 -0.21099858898E+03  0.28555150286E+03  0.91837793676E+02 0.  0.
        -11    1    3    3    0    0  0.40855654161E+02 -0.27263302671E+02  0.49228406113E+01  0.49363007497E+02  0.00000000000E+00 0.  1.
         11    1    3    3    0    0 -0.53794288631E+02 -0.11276773393E+02 -0.23412349537E+02  0.59742189601E+02  0.00000000000E+00 0. -1.
        -11    1    4    4    0    0 -0.60685405529E+02 -0.72376598235E+02 -0.15838072917E+03  0.18440592666E+03  0.00000000000E+00 0. -1.
         11    1    4    4    0    0  0.24454827935E+01 -0.86347020956E+02 -0.52617859810E+02  0.10114557620E+03  0.00000000000E+00 0.  1.
         21    1    1    2  502  503  0.84374868167E+02  0.11860443330E+03 -0.28685169137E+03  0.32166756569E+03  0.00000000000E+00 0.  1.
         21    1    1    2  503  501 -0.13196310961E+02  0.78659261952E+02  0.21364634595E+03  0.22804864229E+03  0.00000000000E+00 0.  1.
<scales pt_clust_5="13000.00000" pt_clust_6="13000.00000" pt_clust_7="13000.00000" pt_clust_8="13000.00000" pt_clust_9="151.80245" pt_clust_10="79.75852"></scales>
<clustering>
<clus scale="   79.759">  1 10  2 -1</clus>
<clus scale="   91.838">  7  8 -1 -1</clus>
<clus scale="   99.546">  5  6 -1 -1</clus>
<clus scale="  101.369">  1  5  2 -1</clus>
<clus scale="  151.802">  2  9  1 -1</clus>
<clus scale="  151.802">  2  5  1 -1</clus>
</clustering>
</event>
<event>
10    2  0.1898324E-006  0.9214343E+02  0.7546771E-02  0.1297978E+00
         -3   -1    0    0    0  501 -0.00000000000E+00  0.00000000000E+00  0.44425118340E+03  0.44425118340E+03  0.00000000000E+00 0.  1.
          3   -1    0    0  502    0  0.00000000000E+00 -0.00000000000E+00 -0.57560560355E+02  0.57560560355E+02  0.00000000000E+00 0. -1.
         23    2    1    2    0    0 -0.25573734671E+02  0.91872157107E+01  0.22807521187E+03  0.24725218589E+03  0.91525517320E+02 0.  0.
         23    2    1    2    0    0 -0.11170445599E+02  0.24770236406E+02  0.18187637654E+02  0.97569328752E+02  0.91927364170E+02 0.  0.
        -11    1    4    4    0    0 -0.34014127844E+02  0.38941315025E+02  0.38006836596E+02  0.64170916597E+02  0.00000000000E+00 0.  1.
         11    1    4    4    0    0  0.22843682245E+02 -0.14171078619E+02 -0.19819198942E+02  0.33398412155E+02  0.00000000000E+00 0. -1.
        -11    1    3    3    0    0 -0.59222195301E+02 -0.38942051541E+01  0.13920407359E+03  0.15132814462E+03  0.00000000000E+00 0.  1.
         11    1    3    3    0    0  0.33648460630E+02  0.13081420865E+02  0.88871138287E+02  0.95924041278E+02  0.00000000000E+00 0. -1.
         21    1    1    2  502  503  0.10688932038E+02 -0.20746316825E+02  0.13964965533E+02  0.27197117352E+02  0.00000000000E+00 0. -1.
         21    1    1    2  503  501  0.26055248232E+02 -0.13211135291E+02  0.12646280799E+03  0.12979311176E+03  0.00000000000E+00 0. -1.
<scales pt_clust_5="13000.00000" pt_clust_6="13000.00000" pt_clust_7="13000.00000" pt_clust_8="13000.00000" pt_clust_9="23.33801" pt_clust_10="29.83480"></scales>
<clustering>
<clus scale="   23.338">  2  9  1 -1</clus>
<clus scale="   29.835">  1 10  2 -1</clus>
<clus scale="   91.526">  7  8 -1 -1</clus>
<clus scale="   91.743">  1  7  2 -1</clus>
<clus scale="   91.927">  5  6 -1 -1</clus>
<clus scale="   23.338">  2  5  1 -1</clus>
</clustering>
</event>
<event>
10    2  0.1898324E-006  0.1257761E+03  0.7546771E-02  0.1243380E+00
         -2   -1    0    0    0  501 -0.00000000000E+00  0.00000000000E+00  0.49137197516E+02  0.49137197516E+02  0.00000000000E+00 0.  1.
          2   -1    0    0  502    0  0.00000000000E+00 -0.00000000000E+00 -0.69816412035E+03  0.69816412035E+03  0.00000000000E+00 0. -1.
         23    2    1    2    0    0  0.42771454935E+01  0.23030011933E+02 -0.19655343985E+03  0.22757392177E+03  0.11228517146E+03 0.  0.
         23    2    1    2    0    0  0.48096970236E+02 -0.85131036874E+02 -0.22895692405E+03  0.26364323539E+03  0.86751775278E+02 0.  0.
        -11    1    4    4    0    0 -0.13276679026E+02 -0.35879018815E+02 -0.13879111371E+03  0.14396717488E+03  0.00000000000E+00 0. -1.
         11    1    4    4    0    0  0.61373649262E+02 -0.49252018059E+02 -0.90165810334E+02  0.11967606051E+03  0.00000000000E+00 0.  1.
        -13    1    3    3    0    0 -0.21134568356E+02 -0.35085013852E+02 -0.34510006571E+02  0.53559020997E+02  0.00000000000E+00 0.  1.
         13    1    3    3    0    0  0.25411713850E+02  0.58115025785E+02 -0.16204343328E+03  0.17401490077E+03  0.00000000000E+00 0. -1.
         21    1    1    2  502  503 -0.29662724084E+02  0.62685850600E+02 -0.22281120554E+03  0.23335429368E+03  0.00000000000E+00 0. -1.
         21    1    1    2  503  501 -0.22711391645E+02 -0.58482565920E+00 -0.70535339981E+00  0.22729867024E+02  0.00000000000E+00 0.  1.
<scales pt_clust_5="13000.00000" pt_clust_6="13000.00000" pt_clust_7="13000.00000" pt_clust_8="13000.00000" pt_clust_9="70.67831" pt_clust_10="22.71892"></scales>
<clustering>
<clus scale="   22.719">  1 10  2 -1</clus>
<clus scale="   70.678">  2  9  1 -1</clus>
<clus scale="   86.752">  5  6 -1 -1</clus>
<clus scale="  103.622">  2  5  1 -1</clus>
<clus scale="  112.285">  7  8 -1 -1</clus>
<clus scale="   70.678">  2  5  1 -1</clus>
</clustering>
</event>
<event>
10    2  0.1898324E-006  0.1070298E+03  0.7546771E-02  0.1268934E+00
         -3   -1    0    0    0  501 -0.00000000000E+00  0.00000000000E+00  0.32192325141E+03  0.32192325141E+03  0.00000000000E+00 0.  1.
          3   -1    0    0  503    0  0.00000000000E+00 -0.00000000000E+00 -0.26989987310E+03  0.26989987310E+03  0.00000000000E+00 0. -1.
         23    2    1    2    0    0  0.58158347639E+02  0.21943757692E+02 -0.97729956075E+02  0.15168162163E+03  0.97940023091E+02 0.  0.
         23    2    1    2    0    0 -0.13360345708E+02 -0.34352007326E+02 -0.11173166750E+03  0.14922919955E+03  0.91797762676E+02 0.  0.
        -11    1    4    4    0    0 -0.48864902767E+02 -0.32912390258E+02 -0.90026425274E+02  0.10759071244E+03  0.00000000000E+00 0.  1.
         11    1    4    4    0    0  0.35504557060E+02 -0.14396170679E+01 -0.21705242225E+02  0.41638487116E+02  0.00000000000E+00 0. -1.
        -11    1    3    3    0    0 -0.80128173304E+01  0.39126037989E+02 -0.11347092166E+02  0.41518773957E+02  0.00000000000E+00 0.  1.
         11    1    3    3    0    0  0.66171164970E+02 -0.17182280296E+02 -0.86382863909E+02  0.11016284767E+03  0.00000000000E+00 0. -1.
         21    1    1    2  502  501 -0.43238515967E+01  0.36529119694E+02  0.14606699554E+02  0.39578124642E+02  0.00000000000E+00 0.  1.
         21    1    1    2  503  502 -0.40474150335E+02 -0.24120870061E+02  0.24687830233E+03  0.25133417869E+03  0.00000000000E+00 0.  1.
<scales pt_clust_5="13000.00000" pt_clust_6="13000.00000" pt_clust_7="13000.00000" pt_clust_8="13000.00000" pt_clust_9="36.78413" pt_clust_10="44.63965"></scales>
<clustering>
<clus scale="   36.784">  1  9  2 -1</clus>
<clus scale="   44.640">  1 10  2 -1</clus>
<clus scale="   91.798">  5  6 -1 -1</clus>
<clus scale="   97.940">  7  8 -1 -1</clus>
<clus scale="  101.439">  2  5  1 -1</clus>
<clus scale="  101.439">  2  5  1 -1</clus>
</clustering>
</event>
<event>
10    2  0.1898324E-006  0.2082786E+03  0.7546771E-02  0.1143675E+00
         -2   -1    0    0    0  501 -0.00000000000E+00  0.00000000000E+00  0.55242177392E+03  0.55242177392E+03  0.00000000000E+00 0.  1.
          2   -1    0    0  502    0  0.00000000000E+00 -0.00000000000E+00 -0.27010670069E+03  0.27010670069E+03  0.00000000000E+00 0. -1.
         23    2    1    2    0    0  0.14989766225E+03 -0.35811815664E+02  0.37294366751E+03  0.41664137698E+03  0.10368829533E+03 0.  0.
         23    2    1    2    0    0 -0.17531053990E+03 -0.25055269088E+01 -0.18549648116E+03  0.27274726081E+03  0.96135636959E+02 0.  0.
        -11    1    4    4    0    0 -0.10777710125E+03  0.44185528377E+02 -0.92887442479E+02  0.14898436644E+03  0.00000000000E+00 0.  1.
         11    1    4    4    0    0 -0.67533438653E+02 -0.46691055286E+02 -0.92609038677E+02  0.12376289438E+03  0.00000000000E+00 0. -1.
        -13    1    3    3    0    0  0.79112417074E+02 -0.71358923690E+02  0.21386225282E+03  0.23893081364E+03  0.00000000000E+00 0.  1.
         13    1    3    3    0    0  0.70785245172E+02  0.35547108026E+02  0.15908141469E+03  0.17771056334E+03  0.00000000000E+00 0. -1.
         21    1    1    2  502  503 -0.97461827142E+01  0.19371938441E+02 -0.77461925055E+01  0.23027452633E+02  0.00000000000E+00 0.  1.
         21    1    1    2  503  501  0.35159060371E+02  0.18945404132E+02  0.10261407938E+03  0.11011238418E+03  0.00000000000E+00 0.  1.
<scales pt_clust_5="13000.00000" pt_clust_6="13000.00000" pt_clust_7="13000.00000" pt_clust_8="13000.00000" pt_clust_9="21.68548" pt_clust_10="39.94880"></scales>
<clustering>
<clus scale="   21.685">  2  9  1 -1</clus>
<clus scale="   39.949">  1 10  2 -1</clus>
<clus scale="   96.136">  5  6 -1 -1</clus>
<clus scale="  103.688">  7  8 -1 -1</clus>
<clus scale="  204.623">  2  5  1 -1</clus>
<clus scale="   21.685">  2  5  1 -1</clus>
</clustering>
</event>
<event>
10    2  0.1898324E-006  0.9950030E+02  0.7546771E-02  0.1282261E+00
         -1   -1    0    0    0  501 -0.00000000000E+00  0.00000000000E+00  0.35018526440E+03  0.35018526440E+03  0.00000000000E+00 0.  1.
          1   -1    0    0  502    0  0.00000000000E+00 -0.00000000000E+00 -0.29868496635E+03  0.29868496635E+03  0.00000000000E+00 0. -1.
         23    2    1    2    0    0  0.38295933161E+02 -0.44441968939E+02  0.18404824825E+03  0.21358232561E+03  0.91115229394E+02 0.  0.
         23    2    1    2    0    0 -0.12728245436E+02  0.44033046921E+02  0.22765161972E+02  0.10610176152E+03  0.92943067229E+02 0.  0.
        -11    1    3    3    0    0  0.35501272312E+02 -0.65895357812E+02  0.17461332556E+03  0.18997987256E+03  0.00000000000E+00 0. -1.
         11    1    3    3    0    0  0.27946608494E+01  0.21453388873E+02  0.94349226924E+01  0.23602453042E+02  0.00000000000E+00 0.  1.
        -13    1    4    4    0    0 -0.29704705789E+02  0.32043706761E+02  0.53452628753E+02  0.69038773234E+02  0.00000000000E+00 0.  1.
         13    1    4    4    0    0  0.16976460352E+02  0.11989340160E+02 -0.30687466781E+02  0.37062988291E+02  0.00000000000E+00 0. -1.
         21    1    1    2  502  503  0.33939782304E+02 -0.20718575953E+02 -0.22883765910E+03  0.23226674845E+03  0.00000000000E+00 0. -1.
         21    1    1    2  503  501 -0.59507470029E+02  0.21127497971E+02  0.73524546926E+02  0.96919395172E+02  0.00000000000E+00 0.  1.
<scales pt_clust_5="13000.00000" pt_clust_6="13000.00000" pt_clust_7="13000.00000" pt_clust_8="13000.00000" pt_clust_9="39.76391" pt_clust_10="56.48287"></scales>
<clustering>
<clus scale="   39.764">  2  9  1 -1</clus>
<clus scale="   56.483">  1 10  2 -1</clus>
<clus scale="   91.115">  5  6 -1 -1</clus>
<clus scale="   92.943">  7  8 -1 -1</clus>
<clus scale="   97.795">  1  5  2 -1</clus>
<clus scale="   39.764">  2  5  1 -1</clus>
</clustering>
</event>
<event>
10    2  0.1898324E-006  0.1038648E+03  0.7546771E-02  0.1273703E+00
          1   -1    0    0  502    0  0.00000000000E+00  0.00000000000E+00  0.26038530994E+03  0.26038530994E+03  0.00000000000E+00 0. -1.
         -1   -1    0    0    0  501 -0.00000000000E+00 -0.00000000000E+00 -0.14877403550E+03  0.14877403550E+03  0.00000000000E+00 0.  1.
         23    2    1    2    0    0  0.95662411678E+01 -0.44231659963E+02 -0.43011300553E+02  0.10924748015E+03  0.89649803291E+02 0.  0.
         23    2    1    2    0    0 -0.93080724094E+02  0.11471998915E+02  0.14753566626E+03  0.19509189570E+03  0.86593573622E+02 0.  0.
        -13    1    3    3    0    0  0.43555534571E+02 -0.31563731092E+02 -0.48663953904E+02  0.72536433065E+02  0.00000000000E+00 0.  1.
         13    1    3    3    0    0 -0.33989293403E+02 -0.12667928870E+02  0.56526533515E+01  0.36711047082E+02  0.00000000000E+00 0. -1.
        -13    1    4    4    0    0 -0.33450663304E+02 -0.12231479339E+02  0.12016057146E+03  0.12532804513E+03  0.00000000000E+00 0.  1.
         13    1    4    4    0    0 -0.59630060790E+02  0.23703478254E+02  0.27375094796E+02  0.69763850569E+02  0.00000000000E+00 0. -1.
         21    1    1    2  502  503  0.58852687048E+02  0.30790747058E+02  0.28330796415E+02  0.72210407163E+02  0.00000000000E+00 0.  1.
         21    1    1    2  503  501  0.24661795879E+02  0.19689139896E+01 -0.21243887673E+02  0.32609562428E+02  0.00000000000E+00 0. -1.
<scales pt_clust_5="13000.00000" pt_clust_6="13000.00000" pt_clust_7="13000.00000" pt_clust_8="13000.00000" pt_clust_9="70.54125" pt_clust_10="24.74027"></scales>
<clustering>
<clus scale="   24.740">  2 10  1 -1</clus>
<clus scale="   70.541">  1  9  2 -1</clus>
<clus scale="   86.594">  7  8 -1 -1</clus>
<clus scale="   89.650">  5  6 -1 -1</clus>
<clus scale="  101.239">  1  7  2 -1</clus>
<clus scale="   70.541">  1  5  2 -1</clus>
</clustering>
</event>
<event>
10    2  0.1898324E-006  0.1289111E+03  0.7546771E-02  0.1229840E+00
          2   -1    0    0  502    0  0.00000000000E+00  0.00000000000E+00  0.20237802002E+03  0.20237802002E+03  0.00000000000E+00 0. -1.
         -2   -1    0    0    0  501 -0.00000000000E+00 -0.00000000000E+00 -0.28545830511E+03  0.28545830511E+03  0.00000000000E+00 0.  1.
         23    2    1    2    0    0  0.90799295585E+02  0.13859858044E+02 -0.20531266763E+03  0.24395122383E+03  0.94457929117E+02 0.  0.
         23    2    1    2    0    0 -0.59538918714E+02 -0.46044193823E+02  0.60337834811E+02  0.13309378939E+03  0.91697065588E+02 0.  0.
        -11    1    3    3    0    0  0.19121172540E+02  0.33678383810E+02 -0.13906062245E+03  0.14435272596E+03  0.00000000000E+00 0.  1.
         11    1    3    3    0    0  0.71678123045E+02 -0.19818525767E+02 -0.66252045180E+02  0.99598497867E+02  0.00000000000E+00 0. -1.
        -13    1    4    4    0    0  0.21634424080E+02 -0.93349617891E+00  0.26575668219E+02  0.34280983966E+02  0.00000000000E+00 0.  1.
         13    1    4    4    0    0 -0.81173342794E+02 -0.45110697644E+02  0.33762166592E+02  0.98812805422E+02  0.00000000000E+00 0. -1.
         21    1    1    2  502  503 -0.21192205100E+02 -0.10993597082E+02  0.62018425978E+02  0.66454901208E+02  0.00000000000E+00 0. -1.
         21    1    1    2  503  501 -0.10068171771E+02  0.43177932861E+02 -0.12387824979E+00  0.44336410712E+02  0.00000000000E+00 0. -1.
<scales pt_clust_5="13000.00000" pt_clust_6="13000.00000" pt_clust_7="13000.00000" pt_clust_8="13000.00000" pt_clust_9="23.87402" pt_clust_10="43.55070"></scales>
<clustering>
<clus scale="   23.874">  1  9  2 -1</clus>
<clus scale="   43.551">  1 10  2 -1</clus>
<clus scale="   91.697">  7  8 -1 -1</clus>
<clus scale="   94.458">  5  6 -1 -1</clus>
<clus scale="  126.902">  1  7  2 -1</clus>
<clus scale="   23.874">  1  5  2 -1</clus>
</clustering>
</event>
<event>
10    2  0.1898324E-006  0.1708448E+03  0.7546771E-02  0.1177151E+00
          1   -1    0    0  502    0  0.00000000000E+00  0.00000000000E+00  0.58036642858E+03  0.58036642858E+03  0.00000000000E+00 0. -1.
         -1   -1    0    0    0  501 -0.00000000000E+00 -0.00000000000E+00 -0.15494984910E+03  0.15494984910E+03  0.00000000000E+00 0.  1.
         23    2    1    2    0    0  0.15608446243E+03  0.90880546209E+02 -0.15538254403E+02  0.20370797274E+03  0.92918608022E+02 0.  0.
         23    2    1    2    0    0 -0.10862674925E+03 -0.60392395469E+02  0.27093402404E+03  0.31184519033E+03  0.91625134482E+02 0.  0.
        -13    1    3    3    0    0  0.87890555073E+02 -0.14404612213E+01 -0.13354400785E+02  0.88910992683E+02  0.00000000000E+00 0.  1.
         13    1    3    3    0    0  0.68193907356E+02  0.92321007431E+02 -0.21838536184E+01  0.11479698006E+03  0.00000000000E+00 0. -1.
        -13    1    4    4    0    0 -0.74262970310E+02  0.32160691476E+01  0.88299930491E+02  0.11542187654E+03  0.00000000000E+00 0. -1.
         13    1    4    4    0    0 -0.34363778936E+02 -0.63608464616E+02  0.18263409355E+03  0.19642331379E+03  0.00000000000E+00 0.  1.
         21    1    1    2  502  503 -0.22136277263E+02  0.76166590160E+01  0.17236946807E+03  0.17395189504E+03  0.00000000000E+00 0.  1.
         21    1    1    2  503  501 -0.25321435920E+02 -0.38104809757E+02 -0.23486582194E+01  0.45811219576E+02  0.00000000000E+00 0. -1.
<scales pt_clust_5="13000.00000" pt_clust_6="13000.00000" pt_clust_7="13000.00000" pt_clust_8="13000.00000" pt_clust_9="23.41000" pt_clust_10="46.08212"></scales>
<clustering>
<clus scale="   23.410">  1  9  2 -1</clus>
<clus scale="   46.082">  2 10  1 -1</clus>
<clus scale="   91.625">  7  8 -1 -1</clus>
<clus scale="   92.919">  5  6 -1 -1</clus>
<clus scale="  170.145">  1  7  2 -1</clus>
<clus scale="   23.410">  1  5  2 -1</clus>
</clustering>
</event>
<event>
10    2  0.1898324E-006  0.1196086E+03  0.7546771E-02  0.1245099E+00
          3   -1    0    0  502    0  0.00000000000E+00  0.00000000000E+00  0.30633121627E+03  0.30633121627E+03  0.00000000000E+00 0. -1.
         -3   -1    0    0    0  501 -0.00000000000E+00 -0.00000000000E+00 -0.20661628174E+03  0.20661628174E+03  0.00000000000E+00 0.  1.
         23    2    1    2    0    0 -0.73182525747E+02 -0.49897412498E+02 -0.12846508743E+03  0.18111919263E+03  0.91953517612E+02 0.  0.
         23    2    1    2    0    0 -0.23907091718E+01  0.34583567285E+02  0.96307867612E+02  0.14033111102E+03  0.95999358020E+02 0.  0.
        -13    1    3    3    0    0 -0.40627200149E+02 -0.75839424996E+02 -0.85428592925E+02  0.12124451437E+03  0.00000000000E+00 0.  1.
         13    1    3    3    0    0 -0.32555325598E+02  0.25942012498E+02 -0.43036494508E+02  0.59874678260E+02  0.00000000000E+00 0. -1.
        -13    1    4    4    0    0 -0.20554266532E+02  0.20658710586E+02 -0.10593055621E+02  0.31007628467E+02  0.00000000000E+00 0.  1.
         13    1    4    4    0    0  0.18163557360E+02  0.13924856699E+02  0.10690092323E+03  0.10932348256E+03  0.00000000000E+00 0. -1.
         21    1    1    2  502  503  0.39019616829E+02  0.49775268939E+02  0.12591697168E+03  0.14090845132E+03  0.00000000000E+00 0. -1.
         21    1    1    2  503  501  0.36553618090E+02 -0.34461423726E+02  0.59551826686E+01  0.50588743029E+02  0.00000000000E+00 0.  1.
<scales pt_clust_5="13000.00000" pt_clust_6="13000.00000" pt_clust_7="13000.00000" pt_clust_8="13000.00000" pt_clust_9="63.09337" pt_clust_10="50.23701"></scales>
<clustering>
<clus scale="   50.237">  2 10  1 -1</clus>
<clus scale="   63.093">  1  9  2 -1</clus>
<clus scale="   91.954">  5  6 -1 -1</clus>
<clus scale="   95.999">  7  8 -1 -1</clus>
<clus scale="  116.386">  2  5  1 -1</clus>
<clus scale="   63.093">  1  5  2 -1</clus>
</clustering>
</event>
<event>
10    2  0.1898324E-006  0.1304931E+03  0.7546771E-02  0.1228163E+00
         -3   -1    0    0    0  501 -0.00000000000E+00  0.00000000000E+00  0.15711609941E+03  0.15711609941E+03  0.00000000000E+00 0.  1.
          3   -1    0    0  502    0  0.00000000000E+00 -0.00000000000E+00 -0.33287947570E+03  0.33287947570E+03  0.00000000000E+00 0. -1.
         23    2    1    2    0    0 -0.65138383331E+02  0.11550769365E+03 -0.66987906990E+02  0.17698737631E+03  0.96187917202E+02 0.  0.
         23    2    1    2    0    0 -0.39046678239E+02 -0.67588931960E+02 -0.13480704291E+03  0.18036811196E+03  0.90922000574E+02 0.  0.
        -11    1    3    3    0    0 -0.86887264126E+02  0.11103331558E+03 -0.52358151023E+02  0.15039670813E+03  0.00000000000E+00 0. -1.
         11    1    3    3    0    0  0.21748880795E+02  0.44743780659E+01 -0.14629755966E+02  0.26590668185E+02  0.00000000000E+00 0.  1.
        -11    1    4    4    0    0 -0.49557826548E+02 -0.13221222181E+02 -0.10643340960E+03  0.11814757538E+03  0.00000000000E+00 0. -1.
         11    1    4    4    0    0  0.10511148309E+02 -0.54367709778E+02 -0.28373633308E+02  0.62220536580E+02  0.00000000000E+00 0.  1.
         21    1    1    2  502  503  0.12895445064E+02 -0.19940118657E+02 -0.15668897019E+02  0.28450222657E+02  0.00000000000E+00 0. -1.
         21    1    1    2  503  501  0.91289616506E+02 -0.27978643031E+02  0.41700470628E+02  0.10418986418E+03  0.00000000000E+00 0.  1.
<scales pt_clust_5="13000.00000" pt_clust_6="13000.00000" pt_clust_7="13000.00000" pt_clust_8="13000.00000" pt_clust_9="23.74660" pt_clust_10="97.31977"></scales>
<clustering>
<clus scale="   23.747">  2  9  1 -1</clus>
<clus scale="   90.922">  7  8 -1 -1</clus>
<clus scale="   96.188">  5  6 -1 -1</clus>
<clus scale="   97.320">  1 10  2 -1</clus>
<clus scale="  126.661">  2  7  1 -1</clus>
<clus scale="   23.747">  2  5  1 -1</clus>
</clustering>
</event>
<event>
10    2  0.1898324E-006  0.1310405E+03  0.7546771E-02  0.1226328E+00
          1   -1    0    0  502    0  0.00000000000E+00  0.00000000000E+00  0.52937100271E+03  0.52937100271E+03  0.00000000000E+00 0. -1.
         -1   -1    0    0    0  501 -0.00000000000E+00 -0.00000000000E+00 -0.13509554751E+03  0.13509554751E+03  0.00000000000E+00 0.  1.
         23    2    1    2    0    0 -0.10884239422E+03  0.59097393557E+01 -0.60611933392E+02  0.15356656874E+03  0.89595160398E+02 0.  0.
         23    2    1    2    0    0  0.11669742053E+03 -0.16074813225E+02  0.40563752099E+03  0.43212762906E+03  0.91191018085E+02 0.  0.
        -13    1    4    4    0    0  0.65423602215E+02 -0.23381776977E+02  0.34702358379E+03  0.35391004921E+03  0.00000000000E+00 0. -1.
         13    1    4    4    0    0  0.51273818312E+02  0.73069637518E+01  0.58613937202E+02  0.78217579852E+02  0.00000000000E+00 0.  1.
        -13    1    3    3    0    0 -0.95173283926E+02 -0.99729823203E+01 -0.80218394425E+02  0.12486955255E+03  0.00000000000E+00 0.  1.
         13    1    3    3    0    0 -0.13669110291E+02  0.15882721676E+02  0.19606461033E+02  0.28697016190E+02  0.00000000000E+00 0. -1.
         21    1    1    2  502  503 -0.28861880391E+02  0.66924082150E+01  0.49256467228E+02  0.57480396930E+02  0.00000000000E+00 0.  1.
         21    1    1    2  503  501  0.21006854081E+02  0.34726656540E+01 -0.65996246131E-02  0.21291955493E+02  0.00000000000E+00 0.  1.
<scales pt_clust_5="13000.00000" pt_clust_6="13000.00000" pt_clust_7="13000.00000" pt_clust_8="13000.00000" pt_clust_9="28.97862" pt_clust_10="21.29195"></scales>
<clustering>
<clus scale="   21.292">  2 10  1 -1</clus>
<clus scale="   28.979">  1  9  2 -1</clus>
<clus scale="   89.595">  7  8 -1 -1</clus>
<clus scale="   91.191">  5  6 -1 -1</clus>
<clus scale="  129.935">  2  7  1 -1</clus>
<clus scale="   28.979">  1  5  2 -1</clus>
</clustering>
</event>
<event>
10    2  0.1898324E-006  0.1132632E+03  0.7546771E-02  0.1255021E+00
          1   -1    0    0  502    0  0.00000000000E+00  0.00000000000E+00  0.32136386120E+03  0.32136386120E+03  0.00000000000E+00 0. -1.
         -1   -1    0    0    0  501 -0.00000000000E+00 -0.00000000000E+00 -0.11449321292E+03  0.11449321292E+03  0.00000000000E+00 0.  1.
         23    2    1    2    0    0 -0.53266808665E+01  0.68221841082E+02  0.71242044100E+02  0.13476604737E+03  0.91672599762E+02 0.  0.
         23    2    1    2    0    0  0.10234742101E+03 -0.13736939410E+02  0.10064150455E+03  0.17031082889E+03  0.90627633235E+02 0.  0.
        -11    1    4    4    0    0  0.94668176977E+02  0.24952069448E+02  0.73776058602E+02  0.12258701532E+03  0.00000000000E+00 0. -1.
         11    1    4    4    0    0  0.76792440323E+01 -0.38689008858E+02  0.26865445950E+02  0.47723813567E+02  0.00000000000E+00 0.  1.
        -13    1    3    3    0    0 -0.44003170608E+02  0.37599379557E+02  0.14676397606E+02  0.59710878517E+02  0.00000000000E+00 0.  1.
         13    1    3    3    0    0  0.38676489741E+02  0.30622461525E+02  0.56565646495E+02  0.75055168855E+02  0.00000000000E+00 0. -1.
         21    1    1    2  502  503 -0.62378216077E+02 -0.47868649241E+02  0.49202822414E+02  0.92754337659E+02  0.00000000000E+00 0.  1.
         21    1    1    2  503  501 -0.34642524066E+02 -0.66162524306E+01 -0.14215722787E+02  0.38025860204E+02  0.00000000000E+00 0.  1.
<scales pt_clust_5="13000.00000" pt_clust_6="13000.00000" pt_clust_7="13000.00000" pt_clust_8="13000.00000" pt_clust_9="86.48124" pt_clust_10="35.26867"></scales>
<clustering>
<clus scale="   35.269">  2 10  1 -1</clus>
<clus scale="   86.481">  1  9  2 -1</clus>
<clus scale="   90.628">  5  6 -1 -1</clus>
<clus scale="   91.673">  7  8 -1 -1</clus>
<clus scale="  112.419">  1  5  2 -1</clus>
<clus scale="   86.481">  1  5  2 -1</clus>
</clustering>
</event>
<event>
10    2  0.1898324E-006  0.1598804E+03  0.7546771E-02  0.1189415E+00
          1   -1    0    0  502    0  0.00000000000E+00  0.00000000000E+00  0.18567596956E+04  0.18567596956E+04  0.00000000000E+00 0. -1.
         -1   -1    0    0    0  501 -0.00000000000E+00 -0.00000000000E+00 -0.55021430593E+02  0.55021430593E+02  0.00000000000E+00 0.  1.
         23    2    1    2    0    0  0.10802116503E+03 -0.37939591926E+02  0.16866193256E+03  0.22250690198E+03  0.89187943137E+02 0.  0.
         23    2    1    2    0    0 -0.23749265905E+03 -0.10942555803E+02  0.11497812177E+04  0.11777627319E+04  0.92766920112E+02 0.  0.
        -13    1    4    4    0    0 -0.20819798934E+03  0.70552424536E+01  0.10807443620E+04  0.11006382490E+04  0.00000000000E+00 0. -1.
         13    1    4    4    0    0 -0.29294669712E+02 -0.17997798257E+02  0.69036855673E+02  0.77124482863E+02  0.00000000000E+00 0.  1.
        -13    1    3    3    0    0  0.40849305105E+02  0.27697696885E+02  0.75658785782E+02  0.90333161166E+02  0.00000000000E+00 0.  1.
         13    1    3    3    0    0  0.67171859930E+02 -0.65637288812E+02  0.93003146780E+02  0.13217374081E+03  0.00000000000E+00 0. -1.
         21    1    1    2  502  503  0.12755900171E+03  0.27215926421E+02  0.46544350969E+03  0.48337321635E+03  0.00000000000E+00 0.  1.
         21    1    1    2  503  501  0.19124923076E+01  0.21666221308E+02  0.17851605139E+02  0.28138276043E+02  0.00000000000E+00 0.  1.
<scales pt_clust_5="13000.00000" pt_clust_6="13000.00000" pt_clust_7="13000.00000" pt_clust_8="13000.00000" pt_clust_9="131.63188" pt_clust_10="21.75047"></scales>
<clustering>
<clus scale="   21.750">  2 10  1 -1</clus>
<clus scale="   89.188">  7  8 -1 -1</clus>
<clus scale="   92.767">  5  6 -1 -1</clus>
<clus scale="  131.632">  1  9  2 -1</clus>
<clus scale="  157.831">  2  7  1 -1</clus>
<clus scale="  131.632">  1  5  2 -1</clus>
</clustering>
</event>
<event>
10    2  0.1898324E-006  0.1017840E+03  0.7546771E-02  0.1277249E+00
          2   -1    0    0  502    0  0.00000000000E+00  0.00000000000E+00  0.57436783972E+03  0.57436783972E+03  0.00000000000E+00 0. -1.
         -2   -1    0    0    0  501 -0.00000000000E+00 -0.00000000000E+00 -0.81835923296E+02  0.81835923296E+02  0.00000000000E+00 0.  1.
         23    2    1    2    0    0  0.30538813943E+02 -0.24648955746E+02 -0.11592231782E+02  0.10036534423E+03  0.91644052229E+02 0.  0.
         23    2    1    2    0    0 -0.34089726813E+02 -0.44350505886E+02  0.35051263845E+03  0.36623560409E+03  0.90223783669E+02 0.  0.
        -11    1    4    4    0    0 -0.51139371044E+02  0.33492664254E+01  0.12488384857E+03  0.13499047555E+03  0.00000000000E+00 0. -1.
         11    1    4    4    0    0  0.17049644231E+02 -0.47699772312E+02  0.22562878988E+03  0.23124512853E+03  0.00000000000E+00 0.  1.
        -13    1    3    3    0    0  0.35846362616E+02  0.23829569289E+01  0.32453944829E+02  0.48413827895E+02  0.00000000000E+00 0. -1.
         13    1    3    3    0    0 -0.53075486730E+01 -0.27031912675E+02 -0.44046176611E+02  0.51951516338E+02  0.00000000000E+00 0.  1.
         21    1    1    2  502  503 -0.15432771895E+02  0.42459533735E+02  0.15013825982E+03  0.15678800820E+03  0.00000000000E+00 0. -1.
         21    1    1    2  503  501  0.18983684766E+02  0.26539927898E+02  0.34732499306E+01  0.32814806493E+02  0.00000000000E+00 0. -1.
<scales pt_clust_5="13000.00000" pt_clust_6="13000.00000" pt_clust_7="13000.00000" pt_clust_8="13000.00000" pt_clust_9="46.11023" pt_clust_10="32.63048"></scales>
<clustering>
<clus scale="   32.630">  2 10  1 -1</clus>
<clus scale="   46.110">  1  9  2 -1</clus>
<clus scale="   90.224">  5  6 -1 -1</clus>
<clus scale="   91.644">  7  8 -1 -1</clus>
<clus scale="  100.507">  1  5  2 -1</clus>
<clus scale="   46.110">  1  5  2 -1</clus>
</clustering>
</event>
<event>
10    2  0.1898324E-006  0.1178285E+03  0.7546771E-02  0.1248710E+00
         -1   -1    0    0    0  501 -0.00000000000E+00  0.00000000000E+00  0.10001814960E+03  0.10001814960E+03  0.00000000000E+00 0.  1.
          1   -1    0    0  502    0  0.00000000000E+00 -0.00000000000E+00 -0.75676309096E+03  0.75676309096E+03  0.00000000000E+00 0. -1.
         23    2    1    2    0    0  0.59201718611E+02 -0.62280459943E+02 -0.19089759858E+03  0.22616791605E+03  0.85594006375E+02 0.  0.
         23    2    1    2    0    0 -0.64211464510E+02  0.15533152275E+02 -0.44225446407E+03  0.45644610104E+03  0.91594984410E+02 0.  0.
        -11    1    4    4    0    0 -0.40417470276E+02 -0.36515801633E+02 -0.24941844955E+03  0.25529696169E+03  0.00000000000E+00 0.  1.
         11    1    4    4    0    0 -0.23793994234E+02  0.52048953907E+02 -0.19283601452E+03  0.20114913934E+03  0.00000000000E+00 0. -1.
        -11    1    3    3    0    0  0.24562650207E+02  0.13611193935E+02 -0.94995391170E+02  0.99059137535E+02  0.00000000000E+00 0. -1.
         11    1    3    3    0    0  0.34639068404E+02 -0.75891653879E+02 -0.95902207410E+02  0.12710877851E+03  0.00000000000E+00 0.  1.
         21    1    1    2  502  503  0.17238884208E+01  0.27017431657E+02 -0.95638659151E+02  0.99396511654E+02  0.00000000000E+00 0.  1.
         21    1    1    2  503  501  0.32858574783E+01  0.19729876012E+02  0.72045780447E+02  0.74770711826E+02  0.00000000000E+00 0.  1.
<scales pt_clust_5="13000.00000" pt_clust_6="13000.00000" pt_clust_7="13000.00000" pt_clust_8="13000.00000" pt_clust_9="28.47781" pt_clust_10="20.00162"></scales>
<clustering>
<clus scale="   20.002">  1 10  2 -1</clus>
<clus scale="   28.478">  2  9  1 -1</clus>
<clus scale="   85.594">  7  8 -1 -1</clus>
<clus scale="   91.595">  5  6 -1 -1</clus>
<clus scale="  113.226">  1  7  2 -1</clus>
<clus scale="   28.478">  2  5  1 -1</clus>
</clustering>
</event>
<event>
10    2  0.1898324E-006  0.1154867E+03  0.7546771E-02  0.1252280E+00
         -1   -1    0    0    0  501 -0.00000000000E+00  0.00000000000E+00  0.91972580044E+02  0.91972580044E+02  0.00000000000E+00 0.  1.
          1   -1    0    0  502    0  0.00000000000E+00 -0.00000000000E+00 -0.71055535454E+03  0.71055535454E+03  0.00000000000E+00 0. -1.
         23    2    1    2    0    0 -0.20311000642E+02  0.86839654426E+02 -0.29927767763E+02  0.12969894283E+03  0.89288757184E+02 0.  0.
         23    2    1    2    0    0  0.26953203178E+02 -0.30805901312E+02 -0.40292432048E+03  0.41568386221E+03  0.93646070668E+02 0.  0.
        -11    1    3    3    0    0 -0.27216146921E+02  0.49659023923E+02  0.25899096254E+02  0.62269579227E+02  0.00000000000E+00 0.  1.
         11    1    3    3    0    0  0.69051462798E+01  0.37180630503E+02 -0.55826864016E+02  0.67429363601E+02  0.00000000000E+00 0. -1.
        -11    1    4    4    0    0 -0.76315448041E+01  0.30048575088E+02 -0.15489406873E+03  0.15796623015E+03  0.00000000000E+00 0.  1.
         11    1    4    4    0    0  0.34584747982E+02 -0.60854476399E+02 -0.24803025175E+03  0.25771763206E+03  0.00000000000E+00 0. -1.
         21    1    1    2  502  503 -0.29094300549E+02 -0.40228676161E+02 -0.21284379942E+03  0.21855733267E+03  0.00000000000E+00 0. -1.
         21    1    1    2  503  501  0.22452098012E+02 -0.15805076953E+02  0.27113113166E+02  0.38587796882E+02  0.00000000000E+00 0.  1.
<scales pt_clust_5="13000.00000" pt_clust_6="13000.00000" pt_clust_7="13000.00000" pt_clust_8="13000.00000" pt_clust_9="49.64778" pt_clust_10="27.45719"></scales>
<clustering>
<clus scale="   27.457">  1 10  2 -1</clus>
<clus scale="   49.648">  2  9  1 -1</clus>
<clus scale="   89.289">  5  6 -1 -1</clus>
<clus scale="   93.646">  7  8 -1 -1</clus>
<clus scale="  111.982">  1  5  2 -1</clus>
<clus scale="   49.648">  2  5  1 -1</clus>
</clustering>
</event>
<event>
10    2  0.1898324E-006  0.1287560E+03  0.7546771E-02  0.1231657E+00
          2   -1    0    0  502    0  0.00000000000E+00  0.00000000000E+00  0.54740771897E+03  0.54740771897E+03  0.00000000000E+00 0.  1.
         -2   -1    0    0    0  501 -0.00000000000E+00 -0.00000000000E+00 -0.14385127298E+03  0.14385127298E+03  0.00000000000E+00 0. -1.
         23    2    1    2    0    0 -0.12685575061E+02 -0.34449007938E+02 -0.25255669229E+02  0.10822361002E+03  0.98624758431E+02 0.  0.
         23    2    1    2    0    0  0.42554050948E+02  0.13458646787E+03  0.64372100885E+02  0.17962968875E+03  0.90546635062E+02 0.  0.
        -11    1    3    3    0    0  0.24841993180E+02  0.24693970976E+02 -0.11277911705E+02  0.36798208111E+02  0.00000000000E+00 0. -1.
         11    1    3    3    0    0 -0.37527568241E+02 -0.59142978914E+02 -0.13977757524E+02  0.71425401912E+02  0.00000000000E+00 0.  1.
        -13    1    4    4    0    0  0.69817664885E+02  0.83918395939E+02  0.32728030115E+02  0.11396458863E+03  0.00000000000E+00 0. -1.
         13    1    4    4    0    0 -0.27263613937E+02  0.50668071931E+02  0.31644070771E+02  0.65665100114E+02  0.00000000000E+00 0.  1.
         21    1    1    2  502  503 -0.36225431638E+02 -0.56420643505E+02  0.35083077313E+03  0.35718034980E+03  0.00000000000E+00 0.  1.
         21    1    1    2  503  501  0.63569557508E+01 -0.43716816426E+02  0.13609241207E+02  0.46225343385E+02  0.00000000000E+00 0.  1.
<scales pt_clust_5="13000.00000" pt_clust_6="13000.00000" pt_clust_7="13000.00000" pt_clust_8="13000.00000" pt_clust_9="67.88305" pt_clust_10="44.17659"></scales>
<clustering>
<clus scale="   44.177">  2 10  1 -1</clus>
<clus scale="   67.883">  1  9  2 -1</clus>
<clus scale="   90.547">  7  8 -1 -1</clus>
<clus scale="   98.625">  5  6 -1 -1</clus>
<clus scale="  122.678">  1  7  2 -1</clus>
<clus scale="   67.883">  1  5  2 -1</clus>
</clustering>
</event>
<event>
10    2  0.1898324E-006  0.1294182E+03  0.7546771E-02  0.1228567E+00
         -1   -1    0    0    0  501 -0.00000000000E+00  0.00000000000E+00  0.84851433713E+02  0.84851433713E+02  0.00000000000E+00 0.  1.
          1   -1    0    0  502    0  0.00000000000E+00 -0.00000000000E+00 -0.69091468165E+03  0.69091468165E+03  0.00000000000E+00 0. -1.
         23    2    1    2    0    0  0.83852328930E+02  0.33116180496E+02 -0.91387597140E+02  0.15766391639E+03  0.91533180554E+02 0.  0.
         23    2    1    2    0    0 -0.42058607798E+02 -0.75716901792E+02 -0.42974899176E+03  0.44765560554E+03  0.90605571281E+02 0.  0.
        -11    1    3    3    0    0  0.81622853315E+02  0.59491440627E+02 -0.80009111141E+02  0.12885254967E+03  0.00000000000E+00 0.  1.
         11    1    3    3    0    0  0.22294756152E+01 -0.26375260131E+02 -0.11378485999E+02  0.28811366718E+02  0.00000000000E+00 0. -1.
        -13    1    4    4    0    0  0.26742860071E+02 -0.29732775619E+02 -0.10044884890E+03  0.10811655634E+03  0.00000000000E+00 0. -1.
         13    1    4    4    0    0 -0.68801467869E+02 -0.45984126173E+02 -0.32930014286E+03  0.33953904920E+03  0.00000000000E+00 0.  1.
         21    1    1    2  502  503  0.12110451745E+02 -0.30773049163E+02 -0.71023400253E+02  0.78345178408E+02  0.00000000000E+00 0.  1.
         21    1    1    2  503  501 -0.53904172877E+02  0.73373770459E+02 -0.13903258784E+02  0.92101415026E+02  0.00000000000E+00 0.  1.
<scales pt_clust_5="13000.00000" pt_clust_6="13000.00000" pt_clust_7="13000.00000" pt_clust_8="13000.00000" pt_clust_9="33.07028" pt_clust_10="88.29922"></scales>
<clustering>
<clus scale="   33.070">  2  9  1 -1</clus>
<clus scale="   88.299">  1 10  2 -1</clus>
<clus scale="   90.606">  7  8 -1 -1</clus>
<clus scale="   91.533">  5  6 -1 -1</clus>
<clus scale="  128.764">  2  7  1 -1</clus>
<clus scale="   33.070">  2  5  1 -1</clus>
</clustering>
</event>
<event>
10    2  0.1898324E-006  0.2419664E+03  0.7546771E-02  0.1141995E+00
          2   -1    0    0  502    0  0.00000000000E+00  0.00000000000E+00  0.97642486429E+03  0.97642486429E+03  0.00000000000E+00 0. -1.
         -2   -1    0    0    0  501 -0.00000000000E+00 -0.00000000000E+00 -0.14401791258E+03  0.14401791258E+03  0.00000000000E+00 0.  1.
         23    2    1    2    0    0  0.25117534786E+03  0.53070292142E+02  0.21304558473E+03  0.34601361806E+03  0.91823153012E+02 0.  0.
         23    2    1    2    0    0 -0.28405860506E+02 -0.98972294259E+02  0.34685494006E+03  0.37347897651E+03  0.92605553307E+02 0.  0.
        -11    1    3    3    0    0  0.21307744089E+03  0.87629693754E+01  0.17871512498E+03  0.27824068960E+03  0.00000000000E+00 0. -1.
         11    1    3    3    0    0  0.38097906970E+02  0.44307322766E+02  0.34330459746E+02  0.67772928464E+02  0.00000000000E+00 0.  1.
        -13    1    4    4    0    0 -0.57641137644E+02 -0.74637669753E+02  0.19050709721E+03  0.21257054495E+03  0.00000000000E+00 0.  1.
         13    1    4    4    0    0  0.29235277138E+02 -0.24334624506E+02  0.15634784285E+03  0.16090843155E+03  0.00000000000E+00 0. -1.
         21    1    1    2  502  503 -0.19568903893E+03  0.69086143733E+01  0.29037191966E+03  0.35022532838E+03  0.00000000000E+00 0.  1.
         21    1    1    2  503  501 -0.27080448421E+02  0.38993387743E+02 -0.17865492751E+02  0.50724853924E+02  0.00000000000E+00 0.  1.
<scales pt_clust_5="13000.00000" pt_clust_6="13000.00000" pt_clust_7="13000.00000" pt_clust_8="13000.00000" pt_clust_9="223.86655" pt_clust_10="47.47457"></scales>
<clustering>
<clus scale="   47.475">  2 10  1 -1</clus>
<clus scale="   91.823">  5  6 -1 -1</clus>
<clus scale="   92.606">  7  8 -1 -1</clus>
<clus scale="  135.873">  1  7  2 -1</clus>
<clus scale="  223.867">  1  9  2 -1</clus>
<clus scale="  135.873">  1  5  2 -1</clus>
</clustering>
</event>
<event>
10    2  0.1898324E-006  0.2117973E+03  0.7546771E-02  0.1153903E+00
         -2   -1    0    0    0  501 -0.00000000000E+00  0.00000000000E+00  0.25780123539E+03  0.25780123539E+03  0.00000000000E+00 0.  1.
          2   -1    0    0  502    0  0.00000000000E+00 -0.00000000000E+00 -0.72491034360E+03  0.72491034360E+03  0.00000000000E+00 0. -1.
         23    2    1    2    0    0 -0.55359052873E+02 -0.10152789573E+03 -0.57730979188E+02  0.15833234434E+03  0.91453414160E+02 0.  0.
         23    2    1    2    0    0  0.21451934492E+03 -0.81189828953E+02 -0.18879936200E+03  0.31039932982E+03  0.89956696202E+02 0.  0.
        -11    1    4    4    0    0  0.14822378183E+01 -0.22735249621E+02 -0.57339870835E+01  0.23493982467E+02  0.00000000000E+00 0.  1.
         11    1    4    4    0    0  0.21303710710E+03 -0.58454579332E+02 -0.18306537492E+03  0.28690534735E+03  0.00000000000E+00 0. -1.
        -13    1    3    3    0    0 -0.47836260826E+02 -0.23184127648E+02  0.10481746769E+02  0.54181903251E+02  0.00000000000E+00 0. -1.
         13    1    3    3    0    0 -0.75227920468E+01 -0.78343768080E+02 -0.68212725958E+02  0.10415044109E+03  0.00000000000E+00 0.  1.
         21    1    1    2  502  503 -0.98130002831E+02  0.16276209039E+03 -0.33363018235E+03  0.38396626688E+03  0.00000000000E+00 0.  1.
         21    1    1    2  503  501 -0.61030289212E+02  0.19955634286E+02  0.11305141534E+03  0.13001363795E+03  0.00000000000E+00 0.  1.
<scales pt_clust_5="13000.00000" pt_clust_6="13000.00000" pt_clust_7="13000.00000" pt_clust_8="13000.00000" pt_clust_9="191.74429" pt_clust_10="64.21000"></scales>
<clustering>
<clus scale="   64.210">  1 10  2 -1</clus>
<clus scale="   89.957">  5  6 -1 -1</clus>
<clus scale="   91.453">  7  8 -1 -1</clus>
<clus scale="  152.632">  1  7  2 -1</clus>
<clus scale="  191.744">  2  9  1 -1</clus>
<clus scale="  191.744">  2  5  1 -1</clus>
</clustering>
</event>
<event>
10    2  0.1898324E-006  0.9330262E+02  0.7546771E-02  0.1296913E+00
          1   -1    0    0  502    0  0.00000000000E+00  0.00000000000E+00  0.37124446963E+03  0.37124446963E+03  0.00000000000E+00 0. -1.
         -1   -1    0    0    0  501 -0.00000000000E+00 -0.00000000000E+00 -0.47304274305E+02  0.47304274305E+02  0.00000000000E+00 0.  1.
         23    2    1    2    0    0  0.61812244330E+01 -0.10656028428E+02  0.59768657560E+02  0.10994628059E+03  0.91455637944E+02 0.  0.
         23    2    1    2    0    0 -0.25508274696E+02  0.16638452408E+02  0.13161465544E+03  0.16134207667E+03  0.88211892636E+02 0.  0.
        -11    1    4    4    0    0 -0.37993939051E+02 -0.15936816195E+02  0.22836237416E+02  0.47106424767E+02  0.00000000000E+00 0.  1.
         11    1    4    4    0    0  0.12485664355E+02  0.32575268603E+02  0.10877841802E+03  0.11423565190E+03  0.00000000000E+00 0. -1.
        -13    1    3    3    0    0 -0.16895776102E+02 -0.26545018502E+02 -0.11395047276E+02  0.33465689292E+02  0.00000000000E+00 0. -1.
         13    1    3    3    0    0  0.23077000535E+02  0.15888990075E+02  0.71163704836E+02  0.76480591298E+02  0.00000000000E+00 0.  1.
         21    1    1    2  502  503  0.11501340789E+01 -0.29734807175E+02  0.93155417283E+02  0.97792705941E+02  0.00000000000E+00 0. -1.
         21    1    1    2  503  501  0.18176916184E+02  0.23752383194E+02  0.39401465049E+02  0.49467680736E+02  0.00000000000E+00 0.  1.
<scales pt_clust_5="13000.00000" pt_clust_6="13000.00000" pt_clust_7="13000.00000" pt_clust_8="13000.00000" pt_clust_9="29.75704" pt_clust_10="26.39509"></scales>
<clustering>
<clus scale="   29.757">  1  9  2 -1</clus>
<clus scale="   26.395">  1 10  2 -1</clus>
<clus scale="   88.212">  5  6 -1 -1</clus>
<clus scale="   90.125">  1  5  2 -1</clus>
<clus scale="   91.456">  7  8 -1 -1</clus>
<clus scale="   29.757">  1  5  2 -1</clus>
</clustering>
</event>
<event>
10    2  0.1898324E-006  0.9619799E+02  0.7546771E-02  0.1291880E+00
         -2   -1    0    0    0  501 -0.00000000000E+00  0.00000000000E+00  0.29730679846E+03  0.29730679846E+03  0.00000000000E+00 0.  1.
          2   -1    0    0  502    0  0.00000000000E+00 -0.00000000000E+00 -0.30113695134E+03  0.30113695134E+03  0.00000000000E+00 0. -1.
         23    2    1    2    0    0  0.15089596969E+02  0.31609103606E+02  0.25190532240E+03  0.26993568296E+03  0.90455238181E+02 0.  0.
         23    2    1    2    0    0 -0.28437407466E+02  0.37884314637E+02 -0.20022399314E+03  0.22229626269E+03  0.84155056509E+02 0.  0.
        -11    1    3    3    0    0 -0.27957330238E+02  0.32011383183E+02  0.61712371912E+02  0.74931687652E+02  0.00000000000E+00 0. -1.
         11    1    3    3    0    0  0.43046927207E+02 -0.40227957703E+00  0.19019295049E+03  0.19500399531E+03  0.00000000000E+00 0.  1.
        -13    1    4    4    0    0  0.13007638062E+02  0.38667658095E+02 -0.41289085076E+02  0.58044594726E+02  0.00000000000E+00 0.  1.
         13    1    4    4    0    0 -0.41445045529E+02 -0.78334345787E+00 -0.15893490807E+03  0.16425166796E+03  0.00000000000E+00 0. -1.
         21    1    1    2  502  503 -0.81491966405E+01 -0.31651435566E+02 -0.53438214067E+02  0.62640765496E+02  0.00000000000E+00 0. -1.
         21    1    1    2  503  501  0.21497007138E+02 -0.37841982678E+02 -0.20732680705E+01  0.43571038654E+02  0.00000000000E+00 0. -1.
<scales pt_clust_5="13000.00000" pt_clust_6="13000.00000" pt_clust_7="13000.00000" pt_clust_8="13000.00000" pt_clust_9="32.68368" pt_clust_10="45.77719"></scales>
<clustering>
<clus scale="   32.684">  2  9  1 -1</clus>
<clus scale="   45.777">  2 10  1 -1</clus>
<clus scale="   84.155">  7  8 -1 -1</clus>
<clus scale="   90.299">  2  7  1 -1</clus>
<clus scale="   90.455">  5  6 -1 -1</clus>
<clus scale="   32.684">  2  5  1 -1</clus>
</clustering>
</event>
<event>
10    2  0.1898324E-006  0.1220478E+03  0.7546771E-02  0.1241026E+00
         -1   -1    0    0    0  501 -0.00000000000E+00  0.00000000000E+00  0.15807380126E+03  0.15807380126E+03  0.00000000000E+00 0.  1.
          1   -1    0    0  502    0  0.00000000000E+00 -0.00000000000E+00 -0.46845390065E+03  0.46845390065E+03  0.00000000000E+00 0. -1.
         23    2    1    2    0    0 -0.69179458060E+02  0.67416761602E+01 -0.14843452674E+03  0.18986377143E+03  0.95834207668E+02 0.  0.
         23    2    1    2    0    0  0.75798825248E+02  0.41507143325E+02 -0.22365000049E+03  0.25675583540E+03  0.91847326782E+02 0.  0.
        -11    1    4    4    0    0  0.39784425412E+02 -0.16050648009E+02 -0.15245354605E+03  0.15837457975E+03  0.00000000000E+00 0.  1.
         11    1    4    4    0    0  0.36014399836E+02  0.57557791334E+02 -0.71196454436E+02  0.98381255649E+02  0.00000000000E+00 0. -1.
        -13    1    3    3    0    0 -0.57848659363E+02  0.35535462232E+02 -0.43906196540E+02  0.80851657749E+02  0.00000000000E+00 0.  1.
         13    1    3    3    0    0 -0.11330798697E+02 -0.28793786072E+02 -0.10452833020E+03  0.10901211368E+03  0.00000000000E+00 0. -1.
         21    1    1    2  502  503 -0.50442896721E+02 -0.26628860685E+02 -0.38229490162E+02  0.68666410778E+02  0.00000000000E+00 0. -1.
         21    1    1    2  503  501  0.43823529533E+02 -0.21619958800E+02  0.99933917997E+02  0.11124168430E+03  0.00000000000E+00 0.  1.
<scales pt_clust_5="13000.00000" pt_clust_6="13000.00000" pt_clust_7="13000.00000" pt_clust_8="13000.00000" pt_clust_9="50.06266" pt_clust_10="48.86639"></scales>
<clustering>
<clus scale="   48.866">  1 10  2 -1</clus>
<clus scale="   50.063">  1  9  2 -1</clus>
<clus scale="   91.847">  5  6 -1 -1</clus>
<clus scale="   95.834">  7  8 -1 -1</clus>
<clus scale="  118.943">  2  5  1 -1</clus>
<clus scale="  118.943">  2  5  1 -1</clus>
</clustering>
</event>
<event>
10    2  0.1898324E-006  0.1035497E+03  0.7546771E-02  0.1273877E+00
         -1   -1    0    0    0  501 -0.00000000000E+00  0.00000000000E+00  0.77600645827E+02  0.77600645827E+02  0.00000000000E+00 0.  1.
          1   -1    0    0  502    0  0.00000000000E+00 -0.00000000000E+00 -0.47851394216E+03  0.47851394216E+03  0.00000000000E+00 0. -1.
         23    2    1    2    0    0  0.14298350741E+02 -0.64632262351E+01 -0.55974782707E+02  0.10806620574E+03  0.91098366599E+02 0.  0.
         23    2    1    2    0    0 -0.84026808259E+02 -0.47978653416E+01 -0.17713161495E+03  0.21705338324E+03  0.93021707904E+02 0.  0.
        -11    1    3    3    0    0 -0.36857489898E+02  0.96575035363E+01 -0.29873480467E+02  0.48416596033E+02  0.00000000000E+00 0.  1.
         11    1    3    3    0    0  0.51155840639E+02 -0.16120729771E+02 -0.26101302240E+02  0.59649609710E+02  0.00000000000E+00 0. -1.
        -13    1    4    4    0    0 -0.52719278836E+02 -0.48291665530E+02 -0.93021154382E+02  0.11732153461E+03  0.00000000000E+00 0.  1.
         13    1    4    4    0    0 -0.31307529423E+02  0.43493800188E+02 -0.84110460572E+02  0.99731848630E+02  0.00000000000E+00 0. -1.
         21    1    1    2  502  503  0.40570549339E+02  0.35532410037E+02 -0.18250716186E+03  0.19030865920E+03  0.00000000000E+00 0. -1.
         21    1    1    2  503  501  0.29157908178E+02 -0.24271318460E+02  0.14700263186E+02  0.40686339807E+02  0.00000000000E+00 0.  1.
<scales pt_clust_5="13000.00000" pt_clust_6="13000.00000" pt_clust_7="13000.00000" pt_clust_8="13000.00000" pt_clust_9="54.47403" pt_clust_10="37.93785"></scales>
<clustering>
<clus scale="   37.938">  1 10  2 -1</clus>
<clus scale="   54.474">  2  9  1 -1</clus>
<clus scale="   91.098">  5  6 -1 -1</clus>
<clus scale="   93.022">  7  8 -1 -1</clus>
<clus scale="  101.825">  1  5  2 -1</clus>
<clus scale="   54.474">  2  5  1 -1</clus>
</clustering>
</event>
<event>
10    2  0.1898324E-006  0.1106816E+03  0.7546771E-02  0.1260746E+00
         -2   -1    0    0    0  501 -0.00000000000E+00  0.00000000000E+00  0.12842693076E+03  0.12842693076E+03  0.00000000000E+00 0.  1.
          2   -1    0    0  502    0  0.00000000000E+00 -0.00000000000E+00 -0.23304146215E+03  0.23304146215E+03  0.00000000000E+00 0. -1.
         23    2    1    2    0    0  0.51810589747E+02  0.27384893739E+02  0.44653822613E+02  0.11756439237E+03  0.91614152092E+02 0.  0.
         23    2    1    2    0    0 -0.32394310626E+02 -0.67252082047E+01 -0.10056576141E+03  0.13758677811E+03  0.87875078125E+02 0.  0.
        -11    1    4    4    0    0  0.22860904142E+02 -0.22293025224E+02 -0.16920851536E+02  0.36137447731E+02  0.00000000000E+00 0.  1.
         11    1    4    4    0    0 -0.55255214768E+02  0.15567817019E+02 -0.83644909879E+02  0.10144933038E+03  0.00000000000E+00 0. -1.
        -13    1    3    3    0    0  0.73258547591E+02  0.20917276265E+02  0.53904537134E+02  0.93327629163E+02  0.00000000000E+00 0.  1.
         13    1    3    3    0    0 -0.21447957844E+02  0.64676174741E+01 -0.92507145206E+01  0.24236763204E+02  0.00000000000E+00 0. -1.
         21    1    1    2  502  503 -0.42880885301E+02 -0.27085912444E+02 -0.60774793182E+02  0.79158022104E+02  0.00000000000E+00 0. -1.
         21    1    1    2  503  501  0.23464606180E+02  0.64262269098E+01  0.12072200593E+02  0.27159200331E+02  0.00000000000E+00 0.  1.
<scales pt_clust_5="13000.00000" pt_clust_6="13000.00000" pt_clust_7="13000.00000" pt_clust_8="13000.00000" pt_clust_9="48.75698" pt_clust_10="24.32867"></scales>
<clustering>
<clus scale="   24.329">  1 10  2 -1</clus>
<clus scale="   48.757">  2  9  1 -1</clus>
<clus scale="   87.875">  5  6 -1 -1</clus>
<clus scale="   91.614">  7  8 -1 -1</clus>
<clus scale="  107.607">  2  5  1 -1</clus>
<clus scale="   48.757">  2  5  1 -1</clus>
</clustering>
</event>
<event>
10    2  0.1898324E-006  0.1283449E+03  0.7546771E-02  0.1231100E+00
         -2   -1    0    0    0  501 -0.00000000000E+00  0.00000000000E+00  0.64487697199E+02  0.64487697199E+02  0.00000000000E+00 0.  1.
          2   -1    0    0  503    0  0.00000000000E+00 -0.00000000000E+00 -0.48014519959E+03  0.48014519959E+03  0.00000000000E+00 0. -1.
         23    2    1    2    0    0  0.26679753466E+02  0.97667689006E+02 -0.18161894149E+03  0.22863778003E+03  0.95073696830E+02 0.  0.
         23    2    1    2    0    0 -0.14185235113E+02 -0.70896506792E+02 -0.13194915454E+03  0.17579093363E+03  0.90908401113E+02 0.  0.
        -11    1    4    4    0    0  0.29982602426E+02 -0.87594205477E+01 -0.11584879185E+02  0.33315061494E+02  0.00000000000E+00 0.  1.
         11    1    4    4    0    0 -0.44167837540E+02 -0.62137086244E+02 -0.12036427536E+03  0.14247587214E+03  0.00000000000E+00 0. -1.
        -13    1    3    3    0    0 -0.30682835582E+02  0.59557470329E+02 -0.11333098154E+03  0.13165272518E+03  0.00000000000E+00 0.  1.
         13    1    3    3    0    0  0.57362589048E+02  0.38110218677E+02 -0.68287959953E+02  0.96985054850E+02  0.00000000000E+00 0. -1.
         21    1    1    2  502  501  0.27871258958E+02  0.19967551248E+02 -0.38758400716E+02  0.51746727479E+02  0.00000000000E+00 0.  1.
         21    1    1    2  503  502 -0.40365777311E+02 -0.46738733462E+02 -0.63331005649E+02  0.88457455650E+02  0.00000000000E+00 0. -1.
<scales pt_clust_5="13000.00000" pt_clust_6="13000.00000" pt_clust_7="13000.00000" pt_clust_8="13000.00000" pt_clust_9="34.28571" pt_clust_10="54.56450"></scales>
<clustering>
<clus scale="   34.286">  1  9  2 -1</clus>
<clus scale="   54.564">  1 10  2 -1</clus>
<clus scale="   90.908">  5  6 -1 -1</clus>
<clus scale="   95.074">  7  8 -1 -1</clus>
<clus scale="  125.291">  2  5  1 -1</clus>
<clus scale="  125.291">  2  5  1 -1</clus>
</clustering>
</event>
<event>
10    2  0.1898324E-006  0.1183256E+03  0.7546771E-02  0.1246158E+00
         -1   -1    0    0    0  501 -0.00000000000E+00  0.00000000000E+00  0.14647512095E+03  0.14647512095E+03  0.00000000000E+00 0.  1.
          1   -1    0    0  502    0  0.00000000000E+00 -0.00000000000E+00 -0.44377482621E+03  0.44377482621E+03  0.00000000000E+00 0. -1.
         23    2    1    2    0    0 -0.35587002757E+02  0.87692470666E+02 -0.32059092161E+02  0.13430875240E+03  0.89747709745E+02 0.  0.
         23    2    1    2    0    0  0.66808716678E+02 -0.70640319004E+02 -0.16910098652E+03  0.21507193776E+03  0.90594345736E+02 0.  0.
        -11    1    3    3    0    0  0.19141930836E+02  0.62182090390E+02  0.17892649945E+01  0.65086306936E+02  0.00000000000E+00 0.  1.
         11    1    3    3    0    0 -0.54728933592E+02  0.25510380276E+02 -0.33848357156E+02  0.69222445465E+02  0.00000000000E+00 0. -1.
        -11    1    4    4    0    0  0.13465142118E+02  0.16606175210E+02 -0.67954894583E+02  0.71238632814E+02  0.00000000000E+00 0.  1.
         11    1    4    4    0    0  0.53343574560E+02 -0.87246494213E+02 -0.10114609193E+03  0.14383330495E+03  0.00000000000E+00 0. -1.
         21    1    1    2  502  503 -0.67999551582E+02  0.14950823887E+02 -0.15172277670E+03  0.16693491881E+03  0.00000000000E+00 0. -1.
         21    1    1    2  503  501  0.36777837661E+02 -0.32002975549E+02  0.55583150116E+02  0.73934338192E+02  0.00000000000E+00 0.  1.
<scales pt_clust_5="13000.00000" pt_clust_6="13000.00000" pt_clust_7="13000.00000" pt_clust_8="13000.00000" pt_clust_9="65.67670" pt_clust_10="48.75243"></scales>
<clustering>
<clus scale="   48.752">  1 10  2 -1</clus>
<clus scale="   65.677">  2  9  1 -1</clus>
<clus scale="   89.748">  5  6 -1 -1</clus>
<clus scale="   90.594">  7  8 -1 -1</clus>
<clus scale="  117.679">  1  5  2 -1</clus>
<clus scale="   65.677">  2  5  1 -1</clus>
</clustering>
</event>
<event>
10    2  0.1898324E-006  0.1034877E+03  0.7546771E-02  0.1273871E+00
          2   -1    0    0  502    0  0.00000000000E+00  0.00000000000E+00  0.13830234433E+03  0.13830234433E+03  0.00000000000E+00 0. -1.
         -2   -1    0    0    0  501 -0.00000000000E+00 -0.00000000000E+00 -0.15708532719E+03  0.15708532719E+03  0.00000000000E+00 0.  1.
         23    2    1    2    0    0  0.27999998483E+02 -0.43163259007E+01 -0.61595711500E+02  0.11332432656E+03  0.90806061086E+02 0.  0.
         23    2    1    2    0    0 -0.52008778932E+02 -0.98804768924E+01  0.69715613010E+02  0.12732010208E+03  0.92453257307E+02 0.  0.
        -11    1    3    3    0    0  0.35795097188E+02 -0.36998526348E+02 -0.60866183195E+02  0.79717452238E+02  0.00000000000E+00 0.  1.
         11    1    3    3    0    0 -0.77950987057E+01  0.32682200447E+02 -0.72952830452E+00  0.33606874318E+02  0.00000000000E+00 0. -1.
        -13    1    4    4    0    0 -0.70499483027E+02  0.12615517610E+02  0.29011726435E+02  0.77272302039E+02  0.00000000000E+00 0. -1.
         13    1    4    4    0    0  0.18490704095E+02 -0.22495994503E+02  0.40703886575E+02  0.50047800040E+02  0.00000000000E+00 0.  1.
         21    1    1    2  502  503  0.55197049355E+01  0.22756523992E+02 -0.34382176202E+01  0.23667443191E+02  0.00000000000E+00 0.  1.
         21    1    1    2  503  501  0.18489075514E+02 -0.85597211989E+01 -0.23464666752E+02  0.31075799686E+02  0.00000000000E+00 0. -1.
<scales pt_clust_5="13000.00000" pt_clust_6="13000.00000" pt_clust_7="13000.00000" pt_clust_8="13000.00000" pt_clust_9="23.09735" pt_clust_10="20.37436"></scales>
<clustering>
<clus scale="   20.374">  2 10  1 -1</clus>
<clus scale="   23.097">  2  9  1 -1</clus>
<clus scale="   90.806">  5  6 -1 -1</clus>
<clus scale="   92.453">  7  8 -1 -1</clus>
<clus scale="  102.019">  2  5  1 -1</clus>
<clus scale="  103.488">  1  5  2 -1</clus>
</clustering>
</event>
<event>
10    2  0.1898324E-006  0.9387754E+02  0.7546771E-02  0.1293788E+00
         -1   -1    0    0    0  501 -0.00000000000E+00  0.00000000000E+00  0.19566674899E+03  0.19566674899E+03  0.00000000000E+00 0.  1.
          1   -1    0    0  502    0  0.00000000000E+00 -0.00000000000E+00 -0.13444970057E+03  0.13444970057E+03  0.00000000000E+00 0. -1.
         23    2    1    2    0    0 -0.10344868655E+02  0.27720951737E+02  0.11702286800E+03  0.15148178504E+03  0.91525472367E+02 0.  0.
         23    2    1    2    0    0  0.10826593539E+02  0.13795918755E+02 -0.11315655905E+02  0.93986048862E+02  0.91639460988E+02 0.  0.
        -11    1    3    3    0    0 -0.48868441116E+02  0.39340761946E+00  0.62732331724E+02  0.79521222011E+02  0.00000000000E+00 0.  1.
         11    1    3    3    0    0  0.38523572460E+02  0.27327544118E+02  0.54290536272E+02  0.71960563028E+02  0.00000000000E+00 0. -1.
        -13    1    4    4    0    0  0.46528170203E+02  0.27657444286E+02 -0.12942142482E+02  0.55653426659E+02  0.00000000000E+00 0.  1.
         13    1    4    4    0    0 -0.35701576664E+02 -0.13861525531E+02  0.16264865775E+01  0.38332622203E+02  0.00000000000E+00 0. -1.
         21    1    1    2  502  503  0.22180018616E+02 -0.61867339116E+01 -0.34539894896E+02  0.41511844595E+02  0.00000000000E+00 0.  1.
         21    1    1    2  503  501 -0.22661743499E+02 -0.35330136581E+02 -0.99502687778E+01  0.43136771066E+02  0.00000000000E+00 0. -1.
<scales pt_clust_5="13000.00000" pt_clust_6="13000.00000" pt_clust_7="13000.00000" pt_clust_8="13000.00000" pt_clust_9="23.02670" pt_clust_10="40.56552"></scales>
<clustering>
<clus scale="   23.027">  2  9  1 -1</clus>
<clus scale="   40.566">  2 10  1 -1</clus>
<clus scale="   91.525">  5  6 -1 -1</clus>
<clus scale="   91.639">  7  8 -1 -1</clus>
<clus scale="   93.766">  1  5  2 -1</clus>
<clus scale="   23.027">  2  5  1 -1</clus>
</clustering>
</event>
<event>
10    2  0.1931598E-006  0.9208044E+02  0.7546771E-02  0.1298337E+00
          2   -1    0    0  502    0  0.00000000000E+00  0.00000000000E+00  0.42050986928E+03  0.42050986928E+03  0.00000000000E+00 0. -1.
         -2   -1    0    0    0  501 -0.00000000000E+00 -0.00000000000E+00 -0.38340534804E+03  0.38340534804E+03  0.00000000000E+00 0.  1.
         23    2    1    2    0    0  0.11394926324E+02  0.93654205834E+01 -0.26486765391E+03  0.28041932850E+03  0.90898681287E+02 0.  0.
         23    2    1    2    0    0 -0.11870614700E+02  0.54140420059E+02  0.37411142225E+03  0.38878691140E+03  0.90132178749E+02 0.  0.
        -11    1    3    3    0    0 -0.29518765537E+02  0.21605597617E+02 -0.53693943958E+02  0.64970754844E+02  0.00000000000E+00 0. -1.
         11    1    3    3    0    0  0.40913691861E+02 -0.12240177033E+02 -0.21117370995E+03  0.21544857366E+03  0.00000000000E+00 0.  1.
        -13    1    4    4    0    0 -0.21208683441E+02  0.77465545307E+02  0.27043707476E+03  0.28211155661E+03  0.00000000000E+00 0. -1.
         13    1    4    4    0    0  0.93380687409E+01 -0.23325125248E+02  0.10367434748E+03  0.10667535480E+03  0.00000000000E+00 0.  1.
         21    1    1    2  502  503  0.77881510636E+01 -0.39550955574E+02  0.15782064499E+02  0.43289801844E+02  0.00000000000E+00 0.  1.
         21    1    1    2  503  501 -0.73124626881E+01 -0.23954885069E+02 -0.87921311600E+02  0.91419175574E+02  0.00000000000E+00 0.  1.
<scales pt_clust_5="13000.00000" pt_clust_6="13000.00000" pt_clust_7="13000.00000" pt_clust_8="13000.00000" pt_clust_9="41.34853" pt_clust_10="25.04613"></scales>
<clustering>
<clus scale="   25.046">  2 10  1 -1</clus>
<clus scale="   41.349">  1  9  2 -1</clus>
<clus scale="   90.132">  7  8 -1 -1</clus>
<clus scale="   90.899">  5  6 -1 -1</clus>
<clus scale="   91.324">  1  7  2 -1</clus>
<clus scale="   41.349">  1  5  2 -1</clus>
</clustering>
</event>
<event>
10    2  0.1898324E-006  0.9707466E+02  0.7546771E-02  0.1287031E+00
          2   -1    0    0  502    0  0.00000000000E+00  0.00000000000E+00  0.39576795180E+03  0.39576795180E+03  0.00000000000E+00 0. -1.
         -2   -1    0    0    0  501 -0.00000000000E+00 -0.00000000000E+00 -0.98542209890E+02  0.98542209890E+02  0.00000000000E+00 0.  1.
         23    2    1    2    0    0  0.55398669238E+02 -0.15023205623E+02  0.41915304348E+02  0.11525018891E+03  0.90724881065E+02 0.  0.
         23    2    1    2    0    0 -0.22391647348E+02 -0.26130764884E+02  0.59249005868E+02  0.11297603475E+03  0.89827261936E+02 0.  0.
        -11    1    3    3    0    0  0.45857803154E+02  0.32018261188E+02  0.36864780815E+02  0.66985962889E+02  0.00000000000E+00 0.  1.
         11    1    3    3    0    0  0.95408660844E+01 -0.47041466811E+02  0.50505235333E+01  0.48264226020E+02  0.00000000000E+00 0. -1.
        -13    1    4    4    0    0 -0.50000561649E+01  0.27224294292E+02  0.48492812988E+02  0.55836508422E+02  0.00000000000E+00 0. -1.
         13    1    4    4    0    0 -0.17391591183E+02 -0.53355059176E+02  0.10756192881E+02  0.57139526327E+02  0.00000000000E+00 0.  1.
         21    1    1    2  502  503  0.14593734334E+02  0.27717524751E+02  0.21185845867E+03  0.21416172574E+03  0.00000000000E+00 0. -1.
         21    1    1    2  503  501 -0.47600756224E+02  0.13436445755E+02 -0.15797026983E+02  0.51922212291E+02  0.00000000000E+00 0. -1.
<scales pt_clust_5="13000.00000" pt_clust_6="13000.00000" pt_clust_7="13000.00000" pt_clust_8="13000.00000" pt_clust_9="31.32472" pt_clust_10="48.91071"></scales>
<clustering>
<clus scale="   31.325">  1  9  2 -1</clus>
<clus scale="   48.911">  2 10  1 -1</clus>
<clus scale="   89.827">  7  8 -1 -1</clus>
<clus scale="   90.725">  5  6 -1 -1</clus>
<clus scale="   96.236">  1  7  2 -1</clus>
<clus scale="   31.325">  1  5  2 -1</clus>
</clustering>
</event>
<event>
10    2  0.1898324E-006  0.1508904E+03  0.7546771E-02  0.1201671E+00
          2   -1    0    0  502    0  0.00000000000E+00  0.00000000000E+00  0.87797052187E+03  0.87797052187E+03  0.00000000000E+00 0. -1.
         -2   -1    0    0    0  501 -0.00000000000E+00 -0.00000000000E+00 -0.70278800666E+02  0.70278800666E+02  0.00000000000E+00 0.  1.
         23    2    1    2    0    0  0.54134596029E+02 -0.13765430011E+03  0.37664930482E+03  0.41513134556E+03  0.92682654349E+02 0.  0.
         23    2    1    2    0    0 -0.13662767008E+02  0.90510642724E+02  0.16218381771E+03  0.20278164980E+03  0.80236893761E+02 0.  0.
        -11    1    3    3    0    0  0.17226615580E+02  0.10333698870E+02  0.26905817138E+02  0.33577739836E+02  0.00000000000E+00 0.  1.
         11    1    3    3    0    0  0.36907980450E+02 -0.14798799898E+03  0.34974348768E+03  0.38155360572E+03  0.00000000000E+00 0. -1.
        -13    1    4    4    0    0 -0.34576101514E+02  0.28982220360E+02  0.26462144223E+02  0.52304120007E+02  0.00000000000E+00 0.  1.
         13    1    4    4    0    0  0.20913334505E+02  0.61528422364E+02  0.13572167349E+03  0.15047752979E+03  0.00000000000E+00 0. -1.
         21    1    1    2  502  503 -0.26346577074E+02 -0.65145810249E+02  0.15304334023E+03  0.16840541175E+03  0.00000000000E+00 0. -1.
         21    1    1    2  503  501 -0.14125251947E+02  0.11228946763E+03  0.11581525844E+03  0.16193091543E+03  0.00000000000E+00 0.  1.
<scales pt_clust_5="13000.00000" pt_clust_6="13000.00000" pt_clust_7="13000.00000" pt_clust_8="13000.00000" pt_clust_9="70.27175" pt_clust_10="101.51331"></scales>
<clustering>
<clus scale="   70.272">  1  9  2 -1</clus>
<clus scale="   80.237">  7  8 -1 -1</clus>
<clus scale="   92.683">  5  6 -1 -1</clus>
<clus scale="  101.513">  2 10  1 -1</clus>
<clus scale="  143.582">  1  7  2 -1</clus>
<clus scale="   70.272">  1  5  2 -1</clus>
</clustering>
</event>
<event>
10    2  0.1898324E-006  0.2163543E+03  0.7546771E-02  0.1136949E+00
          2   -1    0    0  502    0  0.00000000000E+00  0.00000000000E+00  0.11757080084E+04  0.11757080084E+04  0.00000000000E+00 0. -1.
         -2   -1    0    0    0  501 -0.00000000000E+00 -0.00000000000E+00 -0.11210561119E+03  0.11210561119E+03  0.00000000000E+00 0.  1.
         23    2    1    2    0    0 -0.93630939175E+02 -0.15299469722E+03  0.10939295744E+03  0.22796251644E+03  0.88464453977E+02 0.  0.
         23    2    1    2    0    0 -0.17448144001E+02  0.26352504122E+03  0.52790700852E+03  0.59747759601E+03  0.92432586328E+02 0.  0.
        -11    1    4    4    0    0 -0.32797193203E+02  0.29538932122E+02  0.65039174515E+02  0.78602154006E+02  0.00000000000E+00 0.  1.
         11    1    4    4    0    0  0.15349049202E+02  0.23398610909E+03  0.46286783400E+03  0.51887544200E+03  0.00000000000E+00 0. -1.
        -11    1    3    3    0    0 -0.56256791684E+02 -0.19935896479E+02  0.18270207642E+02  0.62418483370E+02  0.00000000000E+00 0.  1.
         11    1    3    3    0    0 -0.37374147491E+02 -0.13305880074E+03  0.91122749794E+02  0.16554403307E+03  0.00000000000E+00 0. -1.
         21    1    1    2  502  503  0.96367515395E+02 -0.95416071211E+02  0.41843463238E+03  0.43986187178E+03  0.00000000000E+00 0. -1.
         21    1    1    2  503  501  0.14711567780E+02 -0.15114272783E+02  0.78677988941E+01  0.22511635386E+02  0.00000000000E+00 0.  1.
<scales pt_clust_5="13000.00000" pt_clust_6="13000.00000" pt_clust_7="13000.00000" pt_clust_8="13000.00000" pt_clust_9="137.76933" pt_clust_10="21.09198"></scales>
<clustering>
<clus scale="   21.092">  2 10  1 -1</clus>
<clus scale="   88.464">  7  8 -1 -1</clus>
<clus scale="   92.433">  5  6 -1 -1</clus>
<clus scale="  137.769">  1  9  2 -1</clus>
<clus scale="  214.689">  2  7  1 -1</clus>
<clus scale="  137.769">  1  5  2 -1</clus>
</clustering>
</event>
<event>
10    2  0.1898324E-006  0.1155348E+03  0.7546771E-02  0.1251497E+00
         -2   -1    0    0    0  501 -0.00000000000E+00  0.00000000000E+00  0.23859004459E+03  0.23859004459E+03  0.00000000000E+00 0.  1.
          2   -1    0    0  502    0  0.00000000000E+00 -0.00000000000E+00 -0.14507673691E+03  0.14507673691E+03  0.00000000000E+00 0. -1.
         23    2    1    2    0    0  0.76132417566E+02 -0.54263006617E+01  0.15148319408E+03  0.19231073743E+03  0.90612757919E+02 0.  0.
         23    2    1    2    0    0 -0.63225282591E+02 -0.35247580970E+02 -0.33928884156E+02  0.11898970381E+03  0.88133717212E+02 0.  0.
        -13    1    3    3    0    0  0.96119127718E+02 -0.72207454549E+01  0.11018925357E+03  0.14639910341E+03  0.00000000000E+00 0.  1.
         13    1    3    3    0    0 -0.19986710152E+02  0.17944447932E+01  0.41293940512E+02  0.45911634014E+02  0.00000000000E+00 0. -1.
        -13    1    4    4    0    0  0.26464286024E+01 -0.35732331657E+02  0.12993116921E+02  0.38113307352E+02  0.00000000000E+00 0.  1.
         13    1    4    4    0    0 -0.65871711193E+02  0.48475068706E+00 -0.46922001077E+02  0.80876396457E+02  0.00000000000E+00 0. -1.
         21    1    1    2  502  503 -0.73256774113E+01  0.20230454510E+02 -0.40281234192E+02  0.45667435523E+02  0.00000000000E+00 0. -1.
         21    1    1    2  503  501 -0.55814575636E+01  0.20443427121E+02  0.16240231937E+02  0.26698904741E+02  0.00000000000E+00 0. -1.
<scales pt_clust_5="13000.00000" pt_clust_6="13000.00000" pt_clust_7="13000.00000" pt_clust_8="13000.00000" pt_clust_9="21.77797" pt_clust_10="21.19166"></scales>
<clustering>
<clus scale="   21.192">  1 10  2 -1</clus>
<clus scale="   21.778">  2  9  1 -1</clus>
<clus scale="   88.134">  7  8 -1 -1</clus>
<clus scale="   90.613">  5  6 -1 -1</clus>
<clus scale="  113.601">  2  7  1 -1</clus>
<clus scale="   21.778">  2  5  1 -1</clus>
</clustering>
</event>
<event>
10    2  0.1898324E-006  0.1691173E+03  0.7546771E-02  0.1179212E+00
         -1   -1    0    0    0  501 -0.00000000000E+00  0.00000000000E+00  0.97778999920E+02  0.97778999920E+02  0.00000000000E+00 0.  1.
          1   -1    0    0  502    0  0.00000000000E+00 -0.00000000000E+00 -0.56291090592E+03  0.56291090592E+03  0.00000000000E+00 0. -1.
         23    2    1    2    0    0  0.13190862291E+03  0.85865724210E+02 -0.22631512934E+03  0.28966028595E+03  0.88947940369E+02 0.  0.
         23    2    1    2    0    0 -0.10859697469E+03 -0.66235184261E+02 -0.21405130992E+03  0.26546570770E+03  0.92052572691E+02 0.  0.
        -11    1    3    3    0    0  0.66002427639E+02  0.53348883520E+02 -0.18912727532E+03  0.20729580337E+03  0.00000000000E+00 0.  1.
         11    1    3    3    0    0  0.65906195268E+02  0.32516840690E+02 -0.37187854025E+02  0.82364482577E+02  0.00000000000E+00 0. -1.
        -11    1    4    4    0    0 -0.46799018379E+02  0.19557527841E+02 -0.59150709211E+02  0.77919518843E+02  0.00000000000E+00 0.  1.
         11    1    4    4    0    0 -0.61797956312E+02 -0.85792712102E+02 -0.15490060071E+03  0.18754618886E+03  0.00000000000E+00 0. -1.
         21    1    1    2  502  503 -0.21863305793E+02  0.10700981539E+01 -0.60446247947E+02  0.64287620434E+02  0.00000000000E+00 0. -1.
         21    1    1    2  503  501 -0.14483424238E+01 -0.20700638103E+02  0.35680781209E+02  0.41276291759E+02  0.00000000000E+00 0.  1.
<scales pt_clust_5="13000.00000" pt_clust_6="13000.00000" pt_clust_7="13000.00000" pt_clust_8="13000.00000" pt_clust_9="21.91386" pt_clust_10="20.75124"></scales>
<clustering>
<clus scale="   20.751">  1 10  2 -1</clus>
<clus scale="   21.914">  2  9  1 -1</clus>
<clus scale="   88.948">  5  6 -1 -1</clus>
<clus scale="   92.053">  7  8 -1 -1</clus>
<clus scale="  167.448">  1  5  2 -1</clus>
<clus scale="   21.914">  2  5  1 -1</clus>
</clustering>
</event>
<event>
10    2  0.1898324E-006  0.1036676E+03  0.7546771E-02  0.1273649E+00
          2   -1    0    0  502    0  0.00000000000E+00  0.00000000000E+00  0.88740966427E+03  0.88740966427E+03  0.00000000000E+00 0. -1.
         -2   -1    0    0    0  501 -0.00000000000E+00 -0.00000000000E+00 -0.32991729518E+02  0.32991729518E+02  0.00000000000E+00 0.  1.
         23    2    1    2    0    0 -0.63646537609E+02  0.12000100713E+02  0.27522953691E+03  0.29638410683E+03  0.88867072787E+02 0.  0.
         23    2    1    2    0    0  0.29383217754E+02  0.43551003071E+02  0.49215910598E+03  0.50322603024E+03  0.90861370002E+02 0.  0.
        -11    1    4    4    0    0 -0.27736274369E+02  0.33647455097E+02  0.15074606383E+03  0.15692618619E+03  0.00000000000E+00 0. -1.
         11    1    4    4    0    0  0.57119492123E+02  0.99035479745E+01  0.34141304214E+03  0.34629984405E+03  0.00000000000E+00 0.  1.
        -13    1    3    3    0    0 -0.12898239962E+02 -0.35904277231E+02  0.12587854386E+03  0.13153284579E+03  0.00000000000E+00 0.  1.
         13    1    3    3    0    0 -0.50748297647E+02  0.47904377944E+02  0.14935099305E+03  0.16485126103E+03  0.00000000000E+00 0. -1.
         21    1    1    2  502  503  0.16402089147E+02 -0.17178920404E+02  0.72097508190E+02  0.75909120149E+02  0.00000000000E+00 0. -1.
         21    1    1    2  503  501  0.17861230709E+02 -0.38372183380E+02  0.14931783676E+02  0.44882136575E+02  0.00000000000E+00 0.  1.
<scales pt_clust_5="13000.00000" pt_clust_6="13000.00000" pt_clust_7="13000.00000" pt_clust_8="13000.00000" pt_clust_9="23.75171" pt_clust_10="43.15353"></scales>
<clustering>
<clus scale="   23.752">  1  9  2 -1</clus>
<clus scale="   43.154">  2 10  1 -1</clus>
<clus scale="   88.867">  7  8 -1 -1</clus>
<clus scale="   90.861">  5  6 -1 -1</clus>
<clus scale="  101.924">  2  7  1 -1</clus>
<clus scale="   23.752">  1  5  2 -1</clus>
</clustering>
</event>
<event>
10    2  0.1898324E-006  0.9606413E+02  0.7546771E-02  0.1289350E+00
          2   -1    0    0  502    0  0.00000000000E+00  0.00000000000E+00  0.30213421766E+03  0.30213421766E+03  0.00000000000E+00 0. -1.
         -2   -1    0    0    0  501 -0.00000000000E+00 -0.00000000000E+00 -0.76804345448E+02  0.76804345448E+02  0.00000000000E+00 0.  1.
         23    2    1    2    0    0  0.14061303006E+02 -0.24817414045E+02  0.62815881381E+02  0.11423559118E+03  0.91051145283E+02 0.  0.
         23    2    1    2    0    0  0.41890450501E+02  0.23222868568E+02  0.79028905194E+02  0.13045821362E+03  0.92085102901E+02 0.  0.
        -11    1    3    3    0    0  0.31495892354E+02 -0.46274086886E+02  0.13315343430E+02  0.57537646137E+02  0.00000000000E+00 0.  1.
         11    1    3    3    0    0 -0.17434589347E+02  0.21456672841E+02  0.49500537951E+02  0.56697945047E+02  0.00000000000E+00 0. -1.
        -13    1    4    4    0    0  0.70332815447E+02  0.11660715284E+02  0.43562753932E+02  0.83548732724E+02  0.00000000000E+00 0.  1.
         13    1    4    4    0    0 -0.28442364946E+02  0.11562153284E+02  0.35466151262E+02  0.46909480893E+02  0.00000000000E+00 0. -1.
         21    1    1    2  502  503  0.40121840790E+01 -0.24906885585E+02  0.59166627307E+02  0.64320606010E+02  0.00000000000E+00 0. -1.
         21    1    1    2  503  501 -0.59963937587E+02  0.26501431063E+02  0.24318458335E+02  0.69924152301E+02  0.00000000000E+00 0. -1.
<scales pt_clust_5="13000.00000" pt_clust_6="13000.00000" pt_clust_7="13000.00000" pt_clust_8="13000.00000" pt_clust_9="25.22797" pt_clust_10="63.00288"></scales>
<clustering>
<clus scale="   25.228">  1  9  2 -1</clus>
<clus scale="   63.003">  2 10  1 -1</clus>
<clus scale="   91.051">  5  6 -1 -1</clus>
<clus scale="   92.085">  7  8 -1 -1</clus>
<clus scale="   95.073">  2  5  1 -1</clus>
<clus scale="   25.228">  1  5  2 -1</clus>
</clustering>
</event>
<event>
10    2  0.1898324E-006  0.2449115E+03  0.7546771E-02  0.1148868E+00
          2   -1    0    0  502    0  0.00000000000E+00  0.00000000000E+00  0.83838583325E+03  0.83838583325E+03  0.00000000000E+00 0. -1.
         -2   -1    0    0    0  501 -0.00000000000E+00 -0.00000000000E+00 -0.32841992885E+03  0.32841992885E+03  0.00000000000E+00 0.  1.
         23    2    1    2    0    0  0.23974522341E+03 -0.12255966295E+03  0.51580144135E+03  0.58918427812E+03  0.92673316300E+02 0.  0.
         23    2    1    2    0    0  0.48287002757E+02  0.42997598161E+02  0.96575682213E+02  0.14689608131E+03  0.89839680694E+02 0.  0.
        -11    1    3    3    0    0  0.15764034031E+03 -0.12712602315E+03  0.36427791024E+03  0.41678519473E+03  0.00000000000E+00 0.  1.
         11    1    3    3    0    0  0.82104883097E+02  0.45663602003E+01  0.15152353111E+03  0.17239908339E+03  0.00000000000E+00 0. -1.
        -11    1    4    4    0    0  0.64700736687E+02  0.56781665765E+02  0.89849012363E+02  0.12443145871E+03  0.00000000000E+00 0. -1.
         11    1    4    4    0    0 -0.16413733930E+02 -0.13784067604E+02  0.67266698501E+01  0.22464622599E+02  0.00000000000E+00 0.  1.
         21    1    1    2  502  503 -0.64018155943E+02  0.63700951136E+02  0.95462949944E+02  0.13141274778E+03  0.00000000000E+00 0.  1.
         21    1    1    2  503  501 -0.22401407022E+03  0.15861113655E+02 -0.19787416910E+03  0.29931265489E+03  0.00000000000E+00 0.  1.
<scales pt_clust_5="13000.00000" pt_clust_6="13000.00000" pt_clust_7="13000.00000" pt_clust_8="13000.00000" pt_clust_9="90.31133" pt_clust_10="226.70094"></scales>
<clustering>
<clus scale="   89.840">  7  8 -1 -1</clus>
<clus scale="   90.311">  1  9  2 -1</clus>
<clus scale="   92.673">  5  6 -1 -1</clus>
<clus scale="  111.190">  1  7  2 -1</clus>
<clus scale="  226.701">  2 10  1 -1</clus>
<clus scale="   90.311">  1  5  2 -1</clus>
</clustering>
</event>
<event>
10    2  0.1898324E-006  0.1508617E+03  0.7546771E-02  0.1199503E+00
         -1   -1    0    0    0  501 -0.00000000000E+00  0.00000000000E+00  0.45045436617E+02  0.45045436617E+02  0.00000000000E+00 0.  1.
          1   -1    0    0  502    0  0.00000000000E+00 -0.00000000000E+00 -0.99100615387E+03  0.99100615387E+03  0.00000000000E+00 0. -1.
         23    2    1    2    0    0  0.10011172670E+03  0.33172478465E+02 -0.12204397796E+03  0.18543278556E+03  0.91475757744E+02 0.  0.
         23    2    1    2    0    0 -0.99277152186E+02 -0.54452350005E+02 -0.66514370617E+03  0.68082380479E+03  0.91015888440E+02 0.  0.
        -11    1    3    3    0    0  0.15989698530E+02  0.18603354585E+02 -0.91544362510E+02  0.94774076457E+02  0.00000000000E+00 0. -1.
         11    1    3    3    0    0  0.84122028170E+02  0.14569123879E+02 -0.30499615448E+02  0.90658709104E+02  0.00000000000E+00 0.  1.
        -11    1    4    4    0    0 -0.46978635758E+02  0.19255876942E+02 -0.16697643447E+03  0.17452481394E+03  0.00000000000E+00 0.  1.
         11    1    4    4    0    0 -0.52298516428E+02 -0.73708226946E+02 -0.49816727170E+03  0.50629899085E+03  0.00000000000E+00 0. -1.
         21    1    1    2  502  503 -0.20568955823E+02  0.63396094818E+01 -0.13030716345E+03  0.13207281869E+03  0.00000000000E+00 0. -1.
         21    1    1    2  503  501  0.19734381308E+02  0.14940262058E+02 -0.28465869683E+02  0.37722181443E+02  0.00000000000E+00 0. -1.
<scales pt_clust_5="13000.00000" pt_clust_6="13000.00000" pt_clust_7="13000.00000" pt_clust_8="13000.00000" pt_clust_9="21.52377" pt_clust_10="24.27731"></scales>
<clustering>
<clus scale="   21.524">  2  9  1 -1</clus>
<clus scale="   24.277">  1 10  2 -1</clus>
<clus scale="   91.016">  7  8 -1 -1</clus>
<clus scale="   91.476">  5  6 -1 -1</clus>
<clus scale="  150.583">  2  7  1 -1</clus>
<clus scale="   21.524">  2  5  1 -1</clus>
</clustering>
</event>
<event>
10    2  0.1898324E-006  0.1272269E+03  0.7546771E-02  0.1232022E+00
          2   -1    0    0  502    0  0.00000000000E+00  0.00000000000E+00  0.35388171726E+03  0.35388171726E+03  0.00000000000E+00 0. -1.
         -2   -1    0    0    0  501 -0.00000000000E+00 -0.00000000000E+00 -0.19806931099E+03  0.19806931099E+03  0.00000000000E+00 0.  1.
         23    2    1    2    0    0 -0.25630012735E+02 -0.10261898484E+03 -0.12007005766E+03  0.18380394238E+03  0.90440681584E+02 0.  0.
         23    2    1    2    0    0  0.25826444139E+02 -0.19583105303E+02  0.16630662132E+03  0.19273692455E+03  0.91864718795E+02 0.  0.
        -11    1    3    3    0    0  0.12890816205E+02 -0.99163197504E+02 -0.93329976139E+02  0.13678449228E+03  0.00000000000E+00 0.  1.
         11    1    3    3    0    0 -0.38520828939E+02 -0.34557873405E+01 -0.26740081524E+02  0.47019450106E+02  0.00000000000E+00 0. -1.
        -13    1    4    4    0    0 -0.95753141663E+01 -0.42739917624E+02  0.39213487452E+02  0.58788475044E+02  0.00000000000E+00 0.  1.
         13    1    4    4    0    0  0.35401758306E+02  0.23156812321E+02  0.12709313387E+03  0.13394844951E+03  0.00000000000E+00 0. -1.
         21    1    1    2  502  503  0.75080974513E+01  0.41665345728E+02  0.77636106181E+02  0.88429279907E+02  0.00000000000E+00 0. -1.
         21    1    1    2  503  501 -0.77045288560E+01  0.80536744420E+02  0.31939736432E+02  0.86980881405E+02  0.00000000000E+00 0. -1.
<scales pt_clust_5="13000.00000" pt_clust_6="13000.00000" pt_clust_7="13000.00000" pt_clust_8="13000.00000" pt_clust_9="42.33642" pt_clust_10="89.88792"></scales>
<clustering>
<clus scale="   42.336">  1  9  2 -1</clus>
<clus scale="   89.888">  1 10  2 -1</clus>
<clus scale="   90.441">  5  6 -1 -1</clus>
<clus scale="   91.865">  7  8 -1 -1</clus>
<clus scale="  126.202">  2  5  1 -1</clus>
<clus scale="   42.336">  1  5  2 -1</clus>
</clustering>
</event>
<event>
10    2  0.1898324E-006  0.1117929E+03  0.7546771E-02  0.1257680E+00
         -2   -1    0    0    0  501 -0.00000000000E+00  0.00000000000E+00  0.85975668121E+02  0.85975668121E+02  0.00000000000E+00 0.  1.
          2   -1    0    0  502    0  0.00000000000E+00 -0.00000000000E+00 -0.32410766625E+03  0.32410766625E+03  0.00000000000E+00 0. -1.
         23    2    1    2    0    0  0.11229695177E+01  0.65336362887E+02 -0.42988590994E+02  0.11868288514E+03  0.89260892294E+02 0.  0.
         23    2    1    2    0    0 -0.63245522626E+02 -0.52302087664E+02 -0.81420019010E+02  0.14671540449E+03  0.90336514843E+02 0.  0.
        -11    1    3    3    0    0 -0.23823797909E+02  0.64613848520E+01 -0.48585152586E+02  0.54496237419E+02  0.00000000000E+00 0. -1.
         11    1    3    3    0    0  0.24946767427E+02  0.58874978035E+02  0.55965615918E+01  0.64186647719E+02  0.00000000000E+00 0.  1.
        -13    1    4    4    0    0 -0.63493864540E+01 -0.52287662430E+02 -0.71743152128E+02  0.89002214736E+02  0.00000000000E+00 0.  1.
         13    1    4    4    0    0 -0.56896136172E+02 -0.14425233422E-01 -0.96768668824E+01  0.57713189758E+02  0.00000000000E+00 0. -1.
         21    1    1    2  502  503  0.32645067554E+02  0.23643372306E+01 -0.10545196932E+03  0.11041471079E+03  0.00000000000E+00 0.  1.
         21    1    1    2  503  501  0.29477485553E+02 -0.15398612454E+02 -0.82714188108E+01  0.34270333952E+02  0.00000000000E+00 0.  1.
<scales pt_clust_5="13000.00000" pt_clust_6="13000.00000" pt_clust_7="13000.00000" pt_clust_8="13000.00000" pt_clust_9="32.73057" pt_clust_10="36.03638"></scales>
<clustering>
<clus scale="   32.731">  2  9  1 -1</clus>
<clus scale="   36.036">  1 10  2 -1</clus>
<clus scale="   89.261">  5  6 -1 -1</clus>
<clus scale="   90.337">  7  8 -1 -1</clus>
<clus scale="  110.926">  1  5  2 -1</clus>
<clus scale="   32.731">  2  5  1 -1</clus>
</clustering>
</event>
<event>
10    2  0.1898324E-006  0.9796102E+02  0.7546771E-02  0.1286345E+00
         -2   -1    0    0    0  501 -0.00000000000E+00  0.00000000000E+00  0.18504780217E+03  0.18504780217E+03  0.00000000000E+00 0.  1.
          2   -1    0    0  502    0  0.00000000000E+00 -0.00000000000E+00 -0.63853257325E+03  0.63853257325E+03  0.00000000000E+00 0. -1.
         23    2    1    2    0    0 -0.12762031559E+02 -0.23469058942E+02  0.88715615941E+02  0.13151502328E+03  0.93338495051E+02 0.  0.
         23    2    1    2    0    0  0.93935435496E+02 -0.39399330216E+01 -0.34309572126E+03  0.36859576893E+03  0.96482007711E+02 0.  0.
        -11    1    4    4    0    0  0.62843320597E+02 -0.40110305903E+02 -0.12670920969E+03  0.14701477274E+03  0.00000000000E+00 0. -1.
         11    1    4    4    0    0  0.31092114899E+02  0.36170372881E+02 -0.21638651157E+03  0.22158099619E+03  0.00000000000E+00 0.  1.
        -13    1    3    3    0    0  0.39162722597E+02  0.13911336599E+01  0.41304307074E+02  0.56935927822E+02  0.00000000000E+00 0. -1.
         13    1    3    3    0    0 -0.51924754156E+02 -0.24860192602E+02  0.47411308868E+02  0.74579095455E+02  0.00000000000E+00 0.  1.
         21    1    1    2  502  503 -0.82604391235E+02 -0.16729270759E+01 -0.25084372738E+03  0.26410009410E+03  0.00000000000E+00 0.  1.
         21    1    1    2  503  501  0.14309872979E+01  0.29081919039E+02  0.51739061627E+02  0.59369489114E+02  0.00000000000E+00 0. -1.
<scales pt_clust_5="13000.00000" pt_clust_6="13000.00000" pt_clust_7="13000.00000" pt_clust_8="13000.00000" pt_clust_9="82.53135" pt_clust_10="29.11710"></scales>
<clustering>
<clus scale="   29.117">  1 10  2 -1</clus>
<clus scale="   82.531">  2  9  1 -1</clus>
<clus scale="   93.338">  7  8 -1 -1</clus>
<clus scale="   94.867">  1  7  2 -1</clus>
<clus scale="   96.482">  5  6 -1 -1</clus>
<clus scale="   82.531">  2  5  1 -1</clus>
</clustering>
</event>
<event>
10    2  0.1898324E-006  0.3004437E+03  0.7546771E-02  0.1086590E+00
          2   -1    0    0  502    0  0.00000000000E+00  0.00000000000E+00  0.68019095781E+03  0.68019095781E+03  0.00000000000E+00 0. -1.
         -2   -1    0    0    0  501 -0.00000000000E+00 -0.00000000000E+00 -0.32354050895E+03  0.32354050895E+03  0.00000000000E+00 0.  1.
         23    2    1    2    0    0  0.25666752264E+03 -0.30047115286E+02 -0.13372208876E+03  0.31654947796E+03  0.12466326107E+03 0.  0.
         23    2    1    2    0    0 -0.33914354182E+03 -0.13748114036E+02  0.30448180599E+03  0.46498263400E+03  0.91062215782E+02 0.  0.
        -13    1    4    4    0    0 -0.24826635385E+02 -0.26861664632E+02  0.26449101741E+02  0.45138296759E+02  0.00000000000E+00 0. -1.
         13    1    4    4    0    0 -0.31431690644E+03  0.13113550596E+02  0.27803270425E+03  0.41984433724E+03  0.00000000000E+00 0.  1.
        -13    1    3    3    0    0  0.91442868127E+02 -0.62722198119E+01 -0.11723245183E+03  0.14881057300E+03  0.00000000000E+00 0.  1.
         13    1    3    3    0    0  0.16522465451E+03 -0.23774895474E+02 -0.16489636924E+02  0.16773890496E+03  0.00000000000E+00 0. -1.
         21    1    1    2  502  503  0.22322796463E+02  0.18463203676E+02  0.13860821806E+03  0.14160309053E+03  0.00000000000E+00 0. -1.
         21    1    1    2  503  501  0.60153222720E+02  0.25332025646E+02  0.47282513557E+02  0.80596264276E+02  0.00000000000E+00 0. -1.
<scales pt_clust_5="13000.00000" pt_clust_6="13000.00000" pt_clust_7="13000.00000" pt_clust_8="13000.00000" pt_clust_9="28.96890" pt_clust_10="68.56066"></scales>
<clustering>
<clus scale="   28.969">  1  9  2 -1</clus>
<clus scale="   68.561">  1 10  2 -1</clus>
<clus scale="   91.062">  5  6 -1 -1</clus>
<clus scale="  124.663">  7  8 -1 -1</clus>
<clus scale="  288.128">  1  5  2 -1</clus>
<clus scale="   28.969">  1  5  2 -1</clus>
</clustering>
</event>
<event>
10    2  0.1898324E-006  0.1030410E+03  0.7546771E-02  0.1274297E+00
          4   -1    0    0  502    0  0.00000000000E+00  0.00000000000E+00  0.29561345131E+03  0.29561345131E+03  0.00000000000E+00 0. -1.
         -4   -1    0    0    0  501 -0.00000000000E+00 -0.00000000000E+00 -0.22139185260E+03  0.22139185260E+03  0.00000000000E+00 0.  1.
         23    2    1    2    0    0 -0.86496520505E+02 -0.38925107983E+02 -0.44131427008E+02  0.13865567849E+03  0.91000012289E+02 0.  0.
         23    2    1    2    0    0  0.10958922103E+02 -0.43305206730E+02  0.16807601120E+02  0.10328708061E+03  0.91598507972E+02 0.  0.
        -11    1    4    4    0    0 -0.29105119347E+02 -0.44618533543E+02 -0.11135199650E+02  0.54423470847E+02  0.00000000000E+00 0. -1.
         11    1    4    4    0    0  0.40064041450E+02  0.13133268126E+01  0.27942800770E+02  0.48863609768E+02  0.00000000000E+00 0.  1.
        -13    1    3    3    0    0 -0.66620901839E+02 -0.20557789569E+02 -0.71710119937E+02  0.10001654151E+03  0.00000000000E+00 0.  1.
         13    1    3    3    0    0 -0.19875618665E+02 -0.18367318414E+02  0.27578692928E+02  0.38639136982E+02  0.00000000000E+00 0. -1.
         21    1    1    2  502  503  0.42212643226E+02  0.35158563421E+02  0.17399395175E+03  0.18246075489E+03  0.00000000000E+00 0. -1.
         21    1    1    2  503  501  0.33324955176E+02  0.47071751292E+02 -0.72448527152E+02  0.92601789906E+02  0.00000000000E+00 0.  1.
<scales pt_clust_5="13000.00000" pt_clust_6="13000.00000" pt_clust_7="13000.00000" pt_clust_8="13000.00000" pt_clust_9="54.93662" pt_clust_10="62.24297"></scales>
<clustering>
<clus scale="   54.937">  1  9  2 -1</clus>
<clus scale="   62.243">  2 10  1 -1</clus>
<clus scale="   91.000">  7  8 -1 -1</clus>
<clus scale="   91.599">  5  6 -1 -1</clus>
<clus scale="  102.509">  2  7  1 -1</clus>
<clus scale="   54.937">  1  5  2 -1</clus>
</clustering>
</event>
<event>
10    2  0.1898324E-006  0.9663729E+02  0.7546771E-02  0.1288714E+00
          1   -1    0    0  502    0  0.00000000000E+00  0.00000000000E+00  0.85869176282E+02  0.85869176282E+02  0.00000000000E+00 0. -1.
         -1   -1    0    0    0  501 -0.00000000000E+00 -0.00000000000E+00 -0.35071395988E+03  0.35071395988E+03  0.00000000000E+00 0.  1.
         23    2    1    2    0    0 -0.99780915776E+01 -0.45933045032E+01 -0.15083708590E+03  0.17627803216E+03  0.90561898058E+02 0.  0.
         23    2    1    2    0    0  0.15182704874E+02  0.55484081473E+02  0.18354484941E+02  0.10696304015E+03  0.88290469566E+02 0.  0.
        -13    1    3    3    0    0  0.12201051924E+02  0.32710855129E+02 -0.24383543876E+02  0.42584303720E+02  0.00000000000E+00 0. -1.
         13    1    3    3    0    0 -0.22179143502E+02 -0.37304159633E+02 -0.12645354203E+03  0.13369372844E+03  0.00000000000E+00 0.  1.
        -13    1    4    4    0    0 -0.91105402847E+01  0.51259651823E+02  0.46315475847E+02  0.69682689043E+02  0.00000000000E+00 0. -1.
         13    1    4    4    0    0  0.24293245159E+02  0.42244296497E+01 -0.27960990905E+02  0.37280351106E+02  0.00000000000E+00 0.  1.
         21    1    1    2  502  503  0.27040196368E+01 -0.23341694245E+02 -0.66738821217E+01  0.24427179842E+02  0.00000000000E+00 0.  1.
         21    1    1    2  503  501 -0.79086329331E+01 -0.27549082725E+02 -0.12568830052E+03  0.12891488401E+03  0.00000000000E+00 0.  1.
<scales pt_clust_5="13000.00000" pt_clust_6="13000.00000" pt_clust_7="13000.00000" pt_clust_8="13000.00000" pt_clust_9="23.49780" pt_clust_10="29.11689"></scales>
<clustering>
<clus scale="   23.498">  1  9  2 -1</clus>
<clus scale="   29.117">  2 10  1 -1</clus>
<clus scale="   88.290">  7  8 -1 -1</clus>
<clus scale="   90.562">  5  6 -1 -1</clus>
<clus scale="   94.512">  1  7  2 -1</clus>
<clus scale="   23.498">  1  5  2 -1</clus>
</clustering>
</event>
<event>
10    2  0.1898324E-006  0.1078202E+03  0.7546771E-02  0.1266503E+00
          1   -1    0    0  502    0  0.00000000000E+00  0.00000000000E+00  0.63473682033E+02  0.63473682033E+02  0.00000000000E+00 0. -1.
         -1   -1    0    0    0  501 -0.00000000000E+00 -0.00000000000E+00 -0.69557101458E+03  0.69557101458E+03  0.00000000000E+00 0.  1.
         23    2    1    2    0    0 -0.43071915590E+02 -0.69139391431E+02 -0.35754114445E+03  0.37710922260E+03  0.87978693078E+02 0.  0.
         23    2    1    2    0    0  0.14213373398E+02  0.32461180592E+02 -0.15526343060E+03  0.18414023370E+03  0.92439951086E+02 0.  0.
        -11    1    4    4    0    0  0.33836442446E+02 -0.22494823728E+02 -0.65237193529E+02  0.76855795822E+02  0.00000000000E+00 0.  1.
         11    1    4    4    0    0 -0.19623069048E+02  0.54956004320E+02 -0.90026237074E+02  0.10728443788E+03  0.00000000000E+00 0. -1.
        -13    1    3    3    0    0  0.12919773315E+02 -0.58574605212E+02 -0.22459981884E+03  0.23247146823E+03  0.00000000000E+00 0. -1.
         13    1    3    3    0    0 -0.55991688905E+02 -0.10564786220E+02 -0.13294132560E+03  0.14463775437E+03  0.00000000000E+00 0.  1.
         21    1    1    2  502  503  0.33507102390E+02 -0.50306697129E+00  0.29322780612E+02  0.44528692433E+02  0.00000000000E+00 0. -1.
         21    1    1    2  503  501 -0.46485601978E+01  0.37181277811E+02 -0.14861553811E+03  0.15326654788E+03  0.00000000000E+00 0. -1.
<scales pt_clust_5="13000.00000" pt_clust_6="13000.00000" pt_clust_7="13000.00000" pt_clust_8="13000.00000" pt_clust_9="33.51088" pt_clust_10="37.17672"></scales>
<clustering>
<clus scale="   33.511">  1  9  2 -1</clus>
<clus scale="   37.177">  2 10  1 -1</clus>
<clus scale="   87.979">  7  8 -1 -1</clus>
<clus scale="   92.440">  5  6 -1 -1</clus>
<clus scale="  104.021">  2  7  1 -1</clus>
<clus scale="   33.511">  1  5  2 -1</clus>
</clustering>
</event>
<event>
10    2  0.1898324E-006  0.1415584E+03  0.7546771E-02  0.1211388E+00
         -2   -1    0    0    0  501 -0.00000000000E+00  0.00000000000E+00  0.42088013759E+03  0.42088013759E+03  0.00000000000E+00 0.  1.
          2   -1    0    0  502    0  0.00000000000E+00 -0.00000000000E+00 -0.47157796263E+03  0.47157796263E+03  0.00000000000E+00 0. -1.
         23    2    1    2    0    0 -0.13381655206E+03 -0.30261882723E+01  0.38268831409E+02  0.16886939475E+03  0.95584212114E+02 0.  0.
         23    2    1    2    0    0  0.11196478065E+03  0.37048922729E+02 -0.35192482213E+03  0.38311429213E+03  0.94956545960E+02 0.  0.
        -13    1    4    4    0    0  0.23370664071E+02 -0.28659800817E+02 -0.54203684404E+02  0.65617158769E+02  0.00000000000E+00 0.  1.
         13    1    4    4    0    0  0.88594116577E+02  0.65708723546E+02 -0.29772113773E+03  0.31749713336E+03  0.00000000000E+00 0. -1.
        -13    1    3    3    0    0 -0.26972728448E+02 -0.37256714716E+02  0.32894123027E+02  0.56547450880E+02  0.00000000000E+00 0. -1.
         13    1    3    3    0    0 -0.10684382361E+03  0.34230526444E+02  0.53747083821E+01  0.11232194387E+03  0.00000000000E+00 0.  1.
         21    1    1    2  502  503 -0.17696274238E+02 -0.16272477334E+02 -0.33294691327E+02  0.41066873646E+02  0.00000000000E+00 0. -1.
         21    1    1    2  503  501  0.39548045649E+02 -0.17750257122E+02  0.29625285701E+03  0.29940753970E+03  0.00000000000E+00 0.  1.
<scales pt_clust_5="13000.00000" pt_clust_6="13000.00000" pt_clust_7="13000.00000" pt_clust_8="13000.00000" pt_clust_9="24.04062" pt_clust_10="43.31446"></scales>
<clustering>
<clus scale="   24.041">  2  9  1 -1</clus>
<clus scale="   43.314">  1 10  2 -1</clus>
<clus scale="   94.957">  5  6 -1 -1</clus>
<clus scale="   95.584">  7  8 -1 -1</clus>
<clus scale="  141.135">  2  5  1 -1</clus>
<clus scale="   24.041">  2  5  1 -1</clus>
</clustering>
</event>
<event>
10    2  0.1898324E-006  0.1070753E+03  0.7546771E-02  0.1267343E+00
          1   -1    0    0  502    0  0.00000000000E+00  0.00000000000E+00  0.43080796066E+03  0.43080796066E+03  0.00000000000E+00 0. -1.
         -1   -1    0    0    0  501 -0.00000000000E+00 -0.00000000000E+00 -0.61601914984E+02  0.61601914984E+02  0.00000000000E+00 0.  1.
         23    2    1    2    0    0  0.13112441553E+02  0.53391871869E+02  0.96931122452E+02  0.14573684716E+03  0.93919955359E+02 0.  0.
         23    2    1    2    0    0 -0.20483290790E+02 -0.36250233696E+02  0.20561275111E+03  0.22865544976E+03  0.90956399661E+02 0.  0.
        -11    1    4    4    0    0  0.33290719826E+02 -0.10511407986E+02  0.11506230603E+03  0.12024182298E+03  0.00000000000E+00 0.  1.
         11    1    4    4    0    0 -0.53774010616E+02 -0.25738825710E+02  0.90550445080E+02  0.10841362678E+03  0.00000000000E+00 0. -1.
        -11    1    3    3    0    0  0.47693274149E+01  0.21436254274E+02 -0.16581392815E+02  0.27517304900E+02  0.00000000000E+00 0.  1.
         11    1    3    3    0    0  0.83431141380E+01  0.31955617595E+02  0.11351251527E+03  0.11821954226E+03  0.00000000000E+00 0. -1.
         21    1    1    2  502  503 -0.15803388954E+02 -0.14627926629E+02  0.85422997059E+02  0.88095469614E+02  0.00000000000E+00 0. -1.
         21    1    1    2  503  501  0.23174238191E+02 -0.25137115438E+01 -0.18760824944E+02  0.29922109117E+02  0.00000000000E+00 0. -1.
<scales pt_clust_5="13000.00000" pt_clust_6="13000.00000" pt_clust_7="13000.00000" pt_clust_8="13000.00000" pt_clust_9="21.53424" pt_clust_10="23.08242"></scales>
<clustering>
<clus scale="   21.534">  1  9  2 -1</clus>
<clus scale="   23.082">  2 10  1 -1</clus>
<clus scale="   90.956">  5  6 -1 -1</clus>
<clus scale="   93.920">  7  8 -1 -1</clus>
<clus scale="  104.485">  1  5  2 -1</clus>
<clus scale="   21.534">  1  5  2 -1</clus>
</clustering>
</event>
<event>
10    2  0.1898324E-006  0.1148674E+03  0.7546771E-02  0.1251954E+00
          1   -1    0    0  502    0  0.00000000000E+00  0.00000000000E+00  0.59425750421E+03  0.59425750421E+03  0.00000000000E+00 0. -1.
         -1   -1    0    0    0  501 -0.00000000000E+00 -0.00000000000E+00 -0.48111991039E+02  0.48111991039E+02  0.00000000000E+00 0.  1.
         23    2    1    2    0    0  0.17065133344E+02  0.71619177412E+02  0.10990824033E+03  0.16046375913E+03  0.90819994234E+02 0.  0.
         23    2    1    2    0    0 -0.10335673816E+02 -0.79534891284E+02  0.33787520939E+03  0.35884051542E+03  0.90411466632E+02 0.  0.
        -11    1    3    3    0    0 -0.28771011858E+02  0.51864292484E+02  0.30553167116E+02  0.66717104096E+02  0.00000000000E+00 0.  1.
         11    1    3    3    0    0  0.45836145201E+02  0.19754884928E+02  0.79355073210E+02  0.93746655032E+02  0.00000000000E+00 0. -1.
        -13    1    4    4    0    0  0.19197503767E+02  0.11050776273E+02  0.10340848604E+03  0.10575433226E+03  0.00000000000E+00 0.  1.
         13    1    4    4    0    0 -0.29533177583E+02 -0.90585667556E+02  0.23446672336E+03  0.25308618316E+03  0.00000000000E+00 0. -1.
         21    1    1    2  502  503  0.12268223970E+02  0.16772325085E+02  0.99909297498E+02  0.10204747883E+03  0.00000000000E+00 0. -1.
         21    1    1    2  503  501 -0.18997683498E+02 -0.88566112128E+01 -0.15472340446E+01  0.21017741878E+02  0.00000000000E+00 0. -1.
<scales pt_clust_5="13000.00000" pt_clust_6="13000.00000" pt_clust_7="13000.00000" pt_clust_8="13000.00000" pt_clust_9="20.78028" pt_clust_10="20.60235"></scales>
<clustering>
<clus scale="   20.780">  1  9  2 -1</clus>
<clus scale="   20.602">  2 10  1 -1</clus>
<clus scale="   90.411">  7  8 -1 -1</clus>
<clus scale="   90.820">  5  6 -1 -1</clus>
<clus scale="  114.545">  1  7  2 -1</clus>
<clus scale="   20.780">  1  5  2 -1</clus>
</clustering>
</event>
<event>
10    2  0.1898324E-006  0.1540390E+03  0.7546771E-02  0.1196716E+00
          1   -1    0    0  502    0  0.00000000000E+00  0.00000000000E+00  0.90627260225E+03  0.90627260225E+03  0.00000000000E+00 0. -1.
         -1   -1    0    0    0  501 -0.00000000000E+00 -0.00000000000E+00 -0.53514819542E+02  0.53514819542E+02  0.00000000000E+00 0.  1.
         23    2    1    2    0    0 -0.34265862892E+02 -0.10805639574E+03  0.24396352871E+03  0.28377588279E+03  0.90333904467E+02 0.  0.
         23    2    1    2    0    0 -0.60668641248E+02  0.13780663844E+03  0.34873779392E+03  0.39189713852E+03  0.96405210672E+02 0.  0.
        -11    1    4    4    0    0  0.19088735190E+02  0.73801980240E+01  0.16919955096E+02  0.26554321954E+02  0.00000000000E+00 0.  1.
         11    1    4    4    0    0 -0.79757376438E+02  0.13042644041E+03  0.33181783882E+03  0.36534281656E+03  0.00000000000E+00 0. -1.
        -13    1    3    3    0    0  0.24959602098E+02 -0.67162490432E+02  0.10255288807E+03  0.12510346402E+03  0.00000000000E+00 0.  1.
         13    1    3    3    0    0 -0.59225464990E+02 -0.40893905309E+02  0.14141064064E+03  0.15867241878E+03  0.00000000000E+00 0. -1.
         21    1    1    2  502  503  0.74204582492E+02 -0.35338576016E+02  0.24351562841E+03  0.25701166569E+03  0.00000000000E+00 0.  1.
         21    1    1    2  503  501  0.20729921649E+02  0.55883333192E+01  0.16540831670E+02  0.27102734792E+02  0.00000000000E+00 0.  1.
<scales pt_clust_5="13000.00000" pt_clust_6="13000.00000" pt_clust_7="13000.00000" pt_clust_8="13000.00000" pt_clust_9="84.49444" pt_clust_10="21.46996"></scales>
<clustering>
<clus scale="   21.470">  2 10  1 -1</clus>
<clus scale="   84.494">  1  9  2 -1</clus>
<clus scale="   90.334">  7  8 -1 -1</clus>
<clus scale="   96.405">  5  6 -1 -1</clus>
<clus scale="  150.314">  2  7  1 -1</clus>
<clus scale="   84.494">  1  5  2 -1</clus>
</clustering>
</event>
<event>
10    2  0.1898324E-006  0.1444146E+03  0.7546771E-02  0.1207711E+00
         -1   -1    0    0    0  501 -0.00000000000E+00  0.00000000000E+00  0.96563806517E+02  0.96563806517E+02  0.00000000000E+00 0.  1.
          1   -1    0    0  502    0  0.00000000000E+00 -0.00000000000E+00 -0.63238603307E+03  0.63238603307E+03  0.00000000000E+00 0. -1.
         23    2    1    2    0    0  0.58729516334E+02 -0.89000592831E+02 -0.11956828547E+03  0.18479006083E+03  0.92089793549E+02 0.  0.
         23    2    1    2    0    0  0.99193566225E+01  0.12491775304E+03 -0.19357268630E+03  0.24793946881E+03  0.91108488367E+02 0.  0.
        -11    1    3    3    0    0  0.37397255496E+02  0.99261996956E+01 -0.23600553237E+02  0.45321852038E+02  0.00000000000E+00 0. -1.
         11    1    3    3    0    0  0.21332260838E+02 -0.98926792526E+02 -0.95967732237E+02  0.13946820879E+03  0.00000000000E+00 0.  1.
        -13    1    4    4    0    0  0.15927168621E+02  0.22484572579E+02  0.14267330814E+01  0.27591054196E+02  0.00000000000E+00 0.  1.
         13    1    4    4    0    0 -0.60078119983E+01  0.10243318046E+03 -0.19499941938E+03  0.22034841462E+03  0.00000000000E+00 0. -1.
         21    1    1    2  502  503  0.28508264124E+02  0.19348053799E+02 -0.16853483618E+03  0.17202052004E+03  0.00000000000E+00 0. -1.
         21    1    1    2  503  501 -0.97157137080E+02 -0.55265214010E+02 -0.54146418592E+02  0.12419978990E+03  0.00000000000E+00 0.  1.
<scales pt_clust_5="13000.00000" pt_clust_6="13000.00000" pt_clust_7="13000.00000" pt_clust_8="13000.00000" pt_clust_9="34.45386" pt_clust_10="105.14899"></scales>
<clustering>
<clus scale="   34.454">  2  9  1 -1</clus>
<clus scale="   91.108">  7  8 -1 -1</clus>
<clus scale="   92.090">  5  6 -1 -1</clus>
<clus scale="  105.149">  1 10  2 -1</clus>
<clus scale="  143.791">  2  7  1 -1</clus>
<clus scale="   34.454">  2  5  1 -1</clus>
</clustering>
</event>
<event>
10    2  0.1898324E-006  0.1227225E+03  0.7546771E-02  0.1241432E+00
          3   -1    0    0  502    0  0.00000000000E+00  0.00000000000E+00  0.43216909256E+03  0.43216909256E+03  0.00000000000E+00 0. -1.
         -3   -1    0    0    0  501 -0.00000000000E+00 -0.00000000000E+00 -0.66855481168E+02  0.66855481168E+02  0.00000000000E+00 0.  1.
         23    2    1    2    0    0 -0.17908097868E+02 -0.83389788274E+02  0.86556661042E+02  0.15188791472E+03  0.91122589460E+02 0.  0.
         23    2    1    2    0    0 -0.27475781982E+02  0.54584076107E+02  0.21435137668E+03  0.24409296823E+03  0.99501379357E+02 0.  0.
        -11    1    4    4    0    0 -0.49375984606E+02  0.36460509964E+02  0.55602608016E+02  0.82819120141E+02  0.00000000000E+00 0.  1.
         11    1    4    4    0    0  0.21900202624E+02  0.18123566143E+02  0.15874876867E+03  0.16127384809E+03  0.00000000000E+00 0. -1.
        -13    1    3    3    0    0  0.13815900831E+02 -0.57145225365E+02  0.93188875145E+02  0.11018449232E+03  0.00000000000E+00 0.  1.
         13    1    3    3    0    0 -0.31723998699E+02 -0.26244562909E+02 -0.66322141030E+01  0.41703422397E+02  0.00000000000E+00 0. -1.
         21    1    1    2  502  503  0.19056528673E+02  0.22819480039E+02  0.69478326277E+02  0.75571937759E+02  0.00000000000E+00 0.  1.
         21    1    1    2  503  501  0.26327351176E+02  0.59862321278E+01 -0.50727526074E+01  0.27471753021E+02  0.00000000000E+00 0. -1.
<scales pt_clust_5="13000.00000" pt_clust_6="13000.00000" pt_clust_7="13000.00000" pt_clust_8="13000.00000" pt_clust_9="31.03901" pt_clust_10="26.99934"></scales>
<clustering>
<clus scale="   26.999">  2 10  1 -1</clus>
<clus scale="   31.039">  1  9  2 -1</clus>
<clus scale="   91.123">  7  8 -1 -1</clus>
<clus scale="   99.501">  5  6 -1 -1</clus>
<clus scale="  116.033">  2  7  1 -1</clus>
<clus scale="   31.039">  1  5  2 -1</clus>
</clustering>
</event>
<event>
10    2  0.1898324E-006  0.1136057E+03  0.7546771E-02  0.1254364E+00
         -1   -1    0    0    0  501 -0.00000000000E+00  0.00000000000E+00  0.16653407926E+03  0.16653407926E+03  0.00000000000E+00 0.  1.
          1   -1    0    0  502    0  0.00000000000E+00 -0.00000000000E+00 -0.31429405771E+03  0.31429405771E+03  0.00000000000E+00 0. -1.
         23    2    1    2    0    0  0.21446772873E+01  0.46144541174E+02 -0.60764036224E+01  0.10650049187E+03  0.95768020588E+02 0.  0.
         23    2    1    2    0    0 -0.71084754704E+02 -0.44307285322E+02 -0.15335257530E+03  0.19968089499E+03  0.96639896463E+02 0.  0.
        -11    1    4    4    0    0 -0.15521315451E+02 -0.66140510049E+02 -0.87857157713E+02  0.11106015696E+03  0.00000000000E+00 0.  1.
         11    1    4    4    0    0 -0.55563439253E+02  0.21833224727E+02 -0.65495417584E+02  0.88620738025E+02  0.00000000000E+00 0. -1.
        -13    1    3    3    0    0  0.40736318411E+02  0.21498672148E+01 -0.21316100811E+02  0.46026576241E+02  0.00000000000E+00 0.  1.
         13    1    3    3    0    0 -0.38591641124E+02  0.43994673960E+02  0.15239697188E+02  0.60473915632E+02  0.00000000000E+00 0. -1.
         21    1    1    2  502  503  0.19197124891E+02  0.57629850433E+01 -0.73247541514E+02  0.75940397277E+02  0.00000000000E+00 0.  1.
         21    1    1    2  503  501  0.49742952525E+02 -0.76002408955E+01  0.84916541987E+02  0.98706352839E+02  0.00000000000E+00 0.  1.
<scales pt_clust_5="13000.00000" pt_clust_6="13000.00000" pt_clust_7="13000.00000" pt_clust_8="13000.00000" pt_clust_9="20.04349" pt_clust_10="50.84165"></scales>
<clustering>
<clus scale="   20.043">  2  9  1 -1</clus>
<clus scale="   50.842">  1 10  2 -1</clus>
<clus scale="   95.768">  7  8 -1 -1</clus>
<clus scale="   96.640">  5  6 -1 -1</clus>
<clus scale="  112.865">  1  7  2 -1</clus>
<clus scale="   20.043">  2  5  1 -1</clus>
</clustering>
</event>
<event>
10    2  0.1898324E-006  0.1520679E+03  0.7546771E-02  0.1198087E+00
          2   -1    0    0  502    0  0.00000000000E+00  0.00000000000E+00  0.93727693265E+03  0.93727693265E+03  0.00000000000E+00 0. -1.
         -2   -1    0    0    0  501 -0.00000000000E+00 -0.00000000000E+00 -0.28100724572E+03  0.28100724572E+03  0.00000000000E+00 0.  1.
         23    2    1    2    0    0  0.16879334384E+03  0.10408773810E+03 -0.19069025175E+03  0.29006287226E+03  0.91914349285E+02 0.  0.
         23    2    1    2    0    0 -0.74509862333E+02 -0.47448675652E+02  0.65438636771E+03  0.66658813014E+03  0.91187283117E+02 0.  0.
        -11    1    3    3    0    0  0.10191070299E+03  0.12658364705E+02 -0.68517338887E+02  0.12345303280E+03  0.00000000000E+00 0. -1.
         11    1    3    3    0    0  0.66882640854E+02  0.91429373391E+02 -0.12217291286E+03  0.16660983946E+03  0.00000000000E+00 0.  1.
        -11    1    4    4    0    0 -0.61858330414E+01 -0.57376681148E+02  0.31697495720E+03  0.32218546143E+03  0.00000000000E+00 0. -1.
         11    1    4    4    0    0 -0.68324029292E+02  0.99280054956E+01  0.33741141051E+03  0.34440266871E+03  0.00000000000E+00 0.  1.
         21    1    1    2  502  503 -0.46713806907E+02  0.22329601044E+02  0.15261053920E+03  0.16115448338E+03  0.00000000000E+00 0.  1.
         21    1    1    2  503  501 -0.47569674601E+02 -0.78968663488E+02  0.39963031773E+02  0.10047869258E+03  0.00000000000E+00 0.  1.
<scales pt_clust_5="13000.00000" pt_clust_6="13000.00000" pt_clust_7="13000.00000" pt_clust_8="13000.00000" pt_clust_9="51.77635" pt_clust_10="92.75344"></scales>
<clustering>
<clus scale="   51.776">  1  9  2 -1</clus>
<clus scale="   91.187">  7  8 -1 -1</clus>
<clus scale="   91.914">  5  6 -1 -1</clus>
<clus scale="   92.753">  2 10  1 -1</clus>
<clus scale="  151.630">  1  7  2 -1</clus>
<clus scale="   51.776">  1  5  2 -1</clus>
</clustering>
</event>
<event>
10    2  0.1898324E-006  0.1099793E+03  0.7546771E-02  0.1267291E+00
         -2   -1    0    0    0  501 -0.00000000000E+00  0.00000000000E+00  0.37211669614E+03  0.37211669614E+03  0.00000000000E+00 0.  1.
          2   -1    0    0  502    0  0.00000000000E+00 -0.00000000000E+00 -0.14230217076E+03  0.14230217076E+03  0.00000000000E+00 0. -1.
         23    2    1    2    0    0  0.13905599186E+02 -0.20469618311E+02 -0.54863677132E+01  0.93032432792E+02  0.89512917268E+02 0.  0.
         23    2    1    2    0    0 -0.18079498035E+02  0.42129058055E+02 -0.33345634604E+02  0.11834301974E+03  0.10388172694E+03 0.  0.
        -11    1    4    4    0    0  0.19128118596E+02  0.19975544652E+02  0.30515996413E+02  0.41184139450E+02  0.00000000000E+00 0.  1.
         11    1    4    4    0    0 -0.37207616631E+02  0.22153513404E+02 -0.63861631017E+02  0.77158880290E+02  0.00000000000E+00 0. -1.
        -11    1    3    3    0    0 -0.84466857575E+01 -0.51200759912E+02 -0.14692755886E+02  0.53932748784E+02  0.00000000000E+00 0. -1.
         11    1    3    3    0    0  0.22352284944E+02  0.30731141601E+02  0.92063881729E+01  0.39099684008E+02  0.00000000000E+00 0.  1.
         21    1    1    2  502  503  0.61274322027E+01  0.25451517610E+02 -0.38829167399E+01  0.26465113195E+02  0.00000000000E+00 0.  1.
         21    1    1    2  503  501 -0.19535333540E+01 -0.47110957354E+02  0.27252944444E+03  0.27657830118E+03  0.00000000000E+00 0.  1.
<scales pt_clust_5="13000.00000" pt_clust_6="13000.00000" pt_clust_7="13000.00000" pt_clust_8="13000.00000" pt_clust_9="26.17872" pt_clust_10="46.74252"></scales>
<clustering>
<clus scale="   26.179">  2  9  1 -1</clus>
<clus scale="   46.743">  1 10  2 -1</clus>
<clus scale="   89.513">  7  8 -1 -1</clus>
<clus scale="   96.522">  1  7  2 -1</clus>
<clus scale="  103.882">  5  6 -1 -1</clus>
<clus scale="   26.179">  2  5  1 -1</clus>
</clustering>
</event>
<event>
10    2  0.1898324E-006  0.1307568E+03  0.7546771E-02  0.1241701E+00
          4   -1    0    0  502    0  0.00000000000E+00  0.00000000000E+00  0.86551640427E+03  0.86551640427E+03  0.00000000000E+00 0. -1.
         -4   -1    0    0    0  501 -0.00000000000E+00 -0.00000000000E+00 -0.40447666949E+02  0.40447666949E+02  0.00000000000E+00 0.  1.
         23    2    1    2    0    0  0.78277544555E+02  0.21163464879E+02  0.23546551138E+03  0.26516615921E+03  0.91070405255E+02 0.  0.
         23    2    1    2    0    0  0.31206115721E+02  0.21535639267E+02  0.38869973137E+03  0.40070460256E+03  0.89660983326E+02 0.  0.
        -11    1    3    3    0    0 -0.81597344067E+01  0.25905511396E+02  0.22467267245E+02  0.35248473495E+02  0.00000000000E+00 0.  1.
         11    1    3    3    0    0  0.86437278962E+02 -0.47420465178E+01  0.21299824414E+03  0.22991768572E+03  0.00000000000E+00 0. -1.
        -13    1    4    4    0    0 -0.30685114549E+02  0.43325093231E+01  0.90322737671E+02  0.95491066767E+02  0.00000000000E+00 0.  1.
         13    1    4    4    0    0  0.61891230270E+02  0.17203129944E+02  0.29837699370E+03  0.30521353579E+03  0.00000000000E+00 0. -1.
         21    1    1    2  502  503 -0.20143787063E+02  0.66397610320E+01  0.75424524847E+02  0.78349968297E+02  0.00000000000E+00 0.  1.
         21    1    1    2  503  501 -0.89339873213E+02 -0.49338865178E+02  0.12547896972E+03  0.16174334115E+03  0.00000000000E+00 0.  1.
<scales pt_clust_5="13000.00000" pt_clust_6="13000.00000" pt_clust_7="13000.00000" pt_clust_8="13000.00000" pt_clust_9="21.20987" pt_clust_10="93.82708"></scales>
<clustering>
<clus scale="   21.210">  1  9  2 -1</clus>
<clus scale="   89.661">  7  8 -1 -1</clus>
<clus scale="   91.070">  5  6 -1 -1</clus>
<clus scale="   95.411">  1  7  2 -1</clus>
<clus scale="   93.827">  2 10  1 -1</clus>
<clus scale="   21.210">  1  5  2 -1</clus>
</clustering>
</event>
<event>
10    2  0.1898324E-006  0.9593017E+02  0.7546771E-02  0.1289744E+00
         -3   -1    0    0    0  501 -0.00000000000E+00  0.00000000000E+00  0.25493613102E+03  0.25493613102E+03  0.00000000000E+00 0.  1.
          3   -1    0    0  502    0  0.00000000000E+00 -0.00000000000E+00 -0.30529073021E+03  0.30529073021E+03  0.00000000000E+00 0. -1.
         23    2    1    2    0    0 -0.51504879917E+02 -0.35134668048E+02 -0.42972953170E+02  0.11849653276E+03  0.91145795397E+02 0.  0.
         23    2    1    2    0    0 -0.22226894852E+02  0.22507334017E+02 -0.17008621047E+03  0.19610892918E+03  0.92351384259E+02 0.  0.
        -11    1    4    4    0    0  0.50335017098E+00 -0.34771885205E+02 -0.47095437689E+02  0.58543296911E+02  0.00000000000E+00 0.  1.
         11    1    4    4    0    0 -0.22730245023E+02  0.57279219222E+02 -0.12299077278E+03  0.13756563227E+03  0.00000000000E+00 0. -1.
        -13    1    3    3    0    0 -0.29721099512E+02 -0.17606314096E+02  0.26545520443E+02  0.43565935177E+02  0.00000000000E+00 0.  1.
         13    1    3    3    0    0 -0.21783780405E+02 -0.17528353952E+02 -0.69518473613E+02  0.74930597586E+02  0.00000000000E+00 0. -1.
         21    1    1    2  502  503  0.47127924849E+02 -0.51582648793E+02  0.12930488211E+01  0.69881921355E+02  0.00000000000E+00 0. -1.
         21    1    1    2  503  501  0.26603849920E+02  0.64209982824E+02  0.16141151563E+03  0.17573947793E+03  0.00000000000E+00 0.  1.
<scales pt_clust_5="13000.00000" pt_clust_6="13000.00000" pt_clust_7="13000.00000" pt_clust_8="13000.00000" pt_clust_9="63.29068" pt_clust_10="69.50314"></scales>
<clustering>
<clus scale="   69.503">  1 10  2 -1</clus>
<clus scale="   63.291">  1  9  2 -1</clus>
<clus scale="   91.146">  7  8 -1 -1</clus>
<clus scale="   92.351">  5  6 -1 -1</clus>
<clus scale="   94.770">  1  7  2 -1</clus>
<clus scale="   95.930">  2  5  1 -1</clus>
</clustering>
</event>
<event>
10    2  0.1898324E-006  0.1411011E+03  0.7546771E-02  0.1232755E+00
         -1   -1    0    0    0  501 -0.00000000000E+00  0.00000000000E+00  0.16666647444E+03  0.16666647444E+03  0.00000000000E+00 0.  1.
          1   -1    0    0  502    0  0.00000000000E+00 -0.00000000000E+00 -0.66171942592E+03  0.66171942592E+03  0.00000000000E+00 0. -1.
         23    2    1    2    0    0  0.27667393033E+01 -0.32874905899E+01  0.21389616652E+02  0.93372267247E+02  0.90787676198E+02 0.  0.
         23    2    1    2    0    0 -0.13022735153E+02 -0.57294270022E+02 -0.28650983232E+03  0.30661788231E+03  0.92056595239E+02 0.  0.
        -11    1    3    3    0    0 -0.40029972879E+02  0.16753315942E+02  0.68664297194E+01  0.43934271143E+02  0.00000000000E+00 0. -1.
         11    1    3    3    0    0  0.42796712183E+02 -0.20040806532E+02  0.14523186933E+02  0.49437996104E+02  0.00000000000E+00 0.  1.
        -13    1    4    4    0    0 -0.21317234524E+02 -0.75903946648E+02 -0.26704442650E+03  0.27843950749E+03  0.00000000000E+00 0. -1.
         13    1    4    4    0    0  0.82944993710E+01  0.18609676626E+02 -0.19465405825E+02  0.28178374827E+02  0.00000000000E+00 0.  1.
         21    1    1    2  502  503 -0.42540980366E+02 -0.46108349415E+02 -0.28884299320E+03  0.29557738346E+03  0.00000000000E+00 0. -1.
         21    1    1    2  503  501  0.52796976215E+02  0.10669011003E+03  0.58910257397E+02  0.13281836733E+03  0.00000000000E+00 0.  1.
<scales pt_clust_5="13000.00000" pt_clust_6="13000.00000" pt_clust_7="13000.00000" pt_clust_8="13000.00000" pt_clust_9="62.73528" pt_clust_10="106.93502"></scales>
<clustering>
<clus scale="   62.735">  2  9  1 -1</clus>
<clus scale="   90.788">  5  6 -1 -1</clus>
<clus scale="   91.131">  1  5  2 -1</clus>
<clus scale="   92.057">  7  8 -1 -1</clus>
<clus scale="  106.935">  1 10  2 -1</clus>
<clus scale="   62.735">  2  5  1 -1</clus>
</clustering>
</event>
<event>
10    2  0.1898324E-006  0.1615172E+03  0.7546771E-02  0.1187030E+00
          4   -1    0    0  502    0  0.00000000000E+00  0.00000000000E+00  0.30028559334E+03  0.30028559334E+03  0.00000000000E+00 0.  1.
         -4   -1    0    0    0  501 -0.00000000000E+00 -0.00000000000E+00 -0.26621639167E+03  0.26621639167E+03  0.00000000000E+00 0. -1.
         23    2    1    2    0    0 -0.10491094574E+02  0.88502320208E+02 -0.44037313518E+02  0.13482200549E+03  0.91076695344E+02 0.  0.
         23    2    1    2    0    0 -0.22728522513E+02 -0.19394676380E+03 -0.45508997666E+02  0.22031582089E+03  0.91302021567E+02 0.  0.
        -11    1    4    4    0    0 -0.98866789608E+00 -0.17005712269E+03 -0.65603044074E+02  0.18227496217E+03  0.00000000000E+00 0. -1.
         11    1    4    4    0    0 -0.21739854617E+02 -0.23889641101E+02  0.20094046408E+02  0.38040858715E+02  0.00000000000E+00 0.  1.
        -13    1    3    3    0    0 -0.37230929284E+02  0.16462728721E+02  0.86948718163E+01  0.41626485898E+02  0.00000000000E+00 0.  1.
         13    1    3    3    0    0  0.26739834710E+02  0.72039591488E+02 -0.52732185334E+02  0.93195519593E+02  0.00000000000E+00 0. -1.
         21    1    1    2  502  503 -0.53737182246E+01  0.73023784244E+02  0.14031097115E+03  0.15826723772E+03  0.00000000000E+00 0.  1.
         21    1    1    2  503  501  0.38593335311E+02  0.32420659342E+02 -0.16695458286E+02  0.53096920909E+02  0.00000000000E+00 0. -1.
<scales pt_clust_5="13000.00000" pt_clust_6="13000.00000" pt_clust_7="13000.00000" pt_clust_8="13000.00000" pt_clust_9="74.38316" pt_clust_10="50.40382"></scales>
<clustering>
<clus scale="   50.404">  2 10  1 -1</clus>
<clus scale="   74.383">  1  9  2 -1</clus>
<clus scale="   91.077">  7  8 -1 -1</clus>
<clus scale="   91.302">  5  6 -1 -1</clus>
<clus scale="  161.390">  2  7  1 -1</clus>
<clus scale="   74.383">  1  5  2 -1</clus>
</clustering>
</event>
<event>
10    2  0.1898324E-006  0.1379899E+03  0.7546771E-02  0.1218769E+00
         -2   -1    0    0    0  501 -0.00000000000E+00  0.00000000000E+00  0.32610784001E+03  0.32610784001E+03  0.00000000000E+00 0.  1.
          2   -1    0    0  502    0  0.00000000000E+00 -0.00000000000E+00 -0.10948467446E+04  0.10948467446E+04  0.00000000000E+00 0. -1.
         23    2    1    2    0    0  0.16930343056E+03 -0.30400379943E+02 -0.63926426571E+03  0.66797668224E+03  0.89141527308E+02 0.  0.
         23    2    1    2    0    0 -0.68260902922E+02 -0.99636461323E+01 -0.31320531111E+03  0.32976710744E+03  0.76746030071E+02 0.  0.
        -11    1    4    4    0    0 -0.57100632972E+02 -0.40733039278E+02 -0.22532307574E+03  0.23598760823E+03  0.00000000000E+00 0. -1.
         11    1    4    4    0    0 -0.11160269950E+02  0.30769393146E+02 -0.87882235366E+02  0.93779499214E+02  0.00000000000E+00 0.  1.
        -11    1    3    3    0    0  0.91094962783E+02  0.24096072690E+02 -0.24881077164E+03  0.26605584573E+03  0.00000000000E+00 0.  1.
         11    1    3    3    0    0  0.78208467779E+02 -0.54496452633E+02 -0.39045349407E+03  0.40192083651E+03  0.00000000000E+00 0. -1.
         21    1    1    2  502  503 -0.57203563772E+02  0.12100255672E+02 -0.11016643653E+03  0.12472091898E+03  0.00000000000E+00 0.  1.
         21    1    1    2  503  501 -0.43838963868E+02  0.28263770403E+02  0.29389710878E+03  0.29848987591E+03  0.00000000000E+00 0.  1.
<scales pt_clust_5="13000.00000" pt_clust_6="13000.00000" pt_clust_7="13000.00000" pt_clust_8="13000.00000" pt_clust_9="70.47116" pt_clust_10="52.16029"></scales>
<clustering>
<clus scale="   52.160">  1 10  2 -1</clus>
<clus scale="   70.471">  1  9  2 -1</clus>
<clus scale="   76.746">  5  6 -1 -1</clus>
<clus scale="   89.142">  7  8 -1 -1</clus>
<clus scale="  130.326">  2  5  1 -1</clus>
<clus scale="  130.326">  2  5  1 -1</clus>
</clustering>
</event>
<event>
10    2  0.1898324E-006  0.2289088E+03  0.7546771E-02  0.1127445E+00
         -1   -1    0    0    0  501 -0.00000000000E+00  0.00000000000E+00  0.54352453878E+03  0.54352453878E+03  0.00000000000E+00 0.  1.
          1   -1    0    0  502    0  0.00000000000E+00 -0.00000000000E+00 -0.13535702468E+03  0.13535702468E+03  0.00000000000E+00 0. -1.
         23    2    1    2    0    0  0.15951690232E+03 -0.15745593661E+03  0.27852455056E+03  0.36973757919E+03  0.94297073672E+02 0.  0.
         23    2    1    2    0    0 -0.14289846373E+03  0.12958762288E+03  0.92291426564E+02  0.23390972996E+03  0.94779382849E+02 0.  0.
        -11    1    3    3    0    0  0.11172915335E+03 -0.14448207844E+03  0.16603730193E+03  0.24683366937E+03  0.00000000000E+00 0.  1.
         11    1    3    3    0    0  0.47787748969E+02 -0.12973858167E+02  0.11248724862E+03  0.12290390982E+03  0.00000000000E+00 0. -1.
        -13    1    4    4    0    0 -0.11381237144E+03  0.12631946023E+03  0.41075261233E+02  0.17492009322E+03  0.00000000000E+00 0. -1.
         13    1    4    4    0    0 -0.29086092289E+02  0.32681626480E+01  0.51216165332E+02  0.58989636743E+02  0.00000000000E+00 0.  1.
         21    1    1    2  502  503  0.68816809720E+01  0.31277206873E+02  0.12833350399E+01  0.32051024190E+02  0.00000000000E+00 0. -1.
         21    1    1    2  503  501 -0.23500119565E+02 -0.34088931446E+01  0.36068201941E+02  0.43183230117E+02  0.00000000000E+00 0.  1.
<scales pt_clust_5="13000.00000" pt_clust_6="13000.00000" pt_clust_7="13000.00000" pt_clust_8="13000.00000" pt_clust_9="31.75668" pt_clust_10="23.74608"></scales>
<clustering>
<clus scale="   23.746">  1 10  2 -1</clus>
<clus scale="   31.757">  2  9  1 -1</clus>
<clus scale="   94.297">  5  6 -1 -1</clus>
<clus scale="   94.779">  7  8 -1 -1</clus>
<clus scale="  228.710">  1  5  2 -1</clus>
<clus scale="   31.757">  2  5  1 -1</clus>
</clustering>
</event>
<event>
10    2  0.1898324E-006  0.1515875E+03  0.7546771E-02  0.1199249E+00
         -1   -1    0    0    0  501 -0.00000000000E+00  0.00000000000E+00  0.86181766586E+02  0.86181766586E+02  0.00000000000E+00 0.  1.
          1   -1    0    0  502    0  0.00000000000E+00 -0.00000000000E+00 -0.64772434613E+03  0.64772434613E+03  0.00000000000E+00 0. -1.
         23    2    1    2    0    0  0.12266968470E+03  0.53381743623E+02 -0.70615699682E+02  0.17867556534E+03  0.95083744733E+02 0.  0.
         23    2    1    2    0    0 -0.51628556574E+02 -0.86530512715E+02 -0.32563570955E+03  0.35288837488E+03  0.91315673942E+02 0.  0.
        -13    1    3    3    0    0  0.95028561703E+02  0.77330193430E+02 -0.34512995480E+02  0.12728524350E+03  0.00000000000E+00 0.  1.
         13    1    3    3    0    0  0.27641122998E+02 -0.23948449807E+02 -0.36102704201E+02  0.51390321846E+02  0.00000000000E+00 0. -1.
        -13    1    4    4    0    0 -0.24020231161E+02 -0.32960227210E+02 -0.28629935780E+02  0.49829923797E+02  0.00000000000E+00 0.  1.
         13    1    4    4    0    0 -0.27608325413E+02 -0.53570285505E+02 -0.29700577377E+03  0.30305845108E+03  0.00000000000E+00 0. -1.
         21    1    1    2  502  503 -0.49368672986E+02  0.10552529196E+02 -0.16334923738E+03  0.17097249807E+03  0.00000000000E+00 0.  1.
         21    1    1    2  503  501 -0.21672455142E+02  0.22596239896E+02 -0.19419329277E+01  0.31369674414E+02  0.00000000000E+00 0. -1.
<scales pt_clust_5="13000.00000" pt_clust_6="13000.00000" pt_clust_7="13000.00000" pt_clust_8="13000.00000" pt_clust_9="51.87458" pt_clust_10="31.30951"></scales>
<clustering>
<clus scale="   31.310">  1 10  2 -1</clus>
<clus scale="   51.875">  2  9  1 -1</clus>
<clus scale="   91.316">  7  8 -1 -1</clus>
<clus scale="   95.084">  5  6 -1 -1</clus>
<clus scale="  149.253">  2  7  1 -1</clus>
<clus scale="   51.875">  2  5  1 -1</clus>
</clustering>
</event>
<event>
10    2  0.1898324E-006  0.1002144E+03  0.7546771E-02  0.1280194E+00
         -1   -1    0    0    0  501 -0.00000000000E+00  0.00000000000E+00  0.21054023316E+03  0.21054023316E+03  0.00000000000E+00 0.  1.
          1   -1    0    0  502    0  0.00000000000E+00 -0.00000000000E+00 -0.19999021134E+03  0.19999021134E+03  0.00000000000E+00 0. -1.
         23    2    1    2    0    0  0.29411431434E+02 -0.15042682100E+02  0.11803731740E+03  0.15325817109E+03  0.91999696309E+02 0.  0.
         23    2    1    2    0    0 -0.80821403522E+02  0.46256870317E+01 -0.56836672945E+02  0.13459354440E+03  0.91277152429E+02 0.  0.
        -11    1    3    3    0    0 -0.17228575362E+02 -0.40841397936E+02  0.49754941171E+02  0.66636309661E+02  0.00000000000E+00 0. -1.
         11    1    3    3    0    0  0.46640006796E+02  0.25798715835E+02  0.68282376234E+02  0.86621861425E+02  0.00000000000E+00 0.  1.
        -13    1    4    4    0    0 -0.10081656633E+03  0.96187255451E+01 -0.49433678813E+02  0.11269511315E+03  0.00000000000E+00 0. -1.
         13    1    4    4    0    0  0.19995162805E+02 -0.49930385134E+01 -0.74029941319E+01  0.21898431252E+02  0.00000000000E+00 0.  1.
         21    1    1    2  502  503  0.20931638997E+01  0.40969867203E+02 -0.49981143906E+02  0.64660854463E+02  0.00000000000E+00 0.  1.
         21    1    1    2  503  501  0.49316808188E+02 -0.30552872134E+02 -0.66947872830E+00  0.58017874550E+02  0.00000000000E+00 0. -1.
<scales pt_clust_5="13000.00000" pt_clust_6="13000.00000" pt_clust_7="13000.00000" pt_clust_8="13000.00000" pt_clust_9="41.02330" pt_clust_10="54.44604"></scales>
<clustering>
<clus scale="   41.023">  2  9  1 -1</clus>
<clus scale="   54.446">  2 10  1 -1</clus>
<clus scale="   91.277">  7  8 -1 -1</clus>
<clus scale="   92.000">  5  6 -1 -1</clus>
<clus scale="   99.552">  2  7  1 -1</clus>
<clus scale="   41.023">  2  5  1 -1</clus>
</clustering>
</event>
<event>
10    2  0.1898324E-006  0.1078962E+03  0.7546771E-02  0.1264618E+00
          1   -1    0    0  502    0  0.00000000000E+00  0.00000000000E+00  0.11770353805E+04  0.11770353805E+04  0.00000000000E+00 0. -1.
         -1   -1    0    0    0  501 -0.00000000000E+00 -0.00000000000E+00 -0.27257723457E+02  0.27257723457E+02  0.00000000000E+00 0.  1.
         23    2    1    2    0    0  0.62239124996E+02 -0.76330442742E+02  0.38739784518E+03  0.40994598582E+03  0.90986678524E+02 0.  0.
         23    2    1    2    0    0 -0.27381404229E+02  0.54245875631E+01  0.33015302110E+03  0.34352954074E+03  0.90732356785E+02 0.  0.
        -11    1    4    4    0    0  0.90289605964E+01  0.39465434250E+02  0.20214833008E+03  0.20616253293E+03  0.00000000000E+00 0.  1.
         11    1    4    4    0    0 -0.36410364826E+02 -0.34040846687E+02  0.12800469102E+03  0.13736700780E+03  0.00000000000E+00 0. -1.
        -13    1    3    3    0    0  0.31226275541E+02 -0.88075455734E+02  0.33620825004E+03  0.34895322549E+03  0.00000000000E+00 0. -1.
         13    1    3    3    0    0  0.31012849455E+02  0.11745012993E+02  0.51189595144E+02  0.60992760329E+02  0.00000000000E+00 0.  1.
         21    1    1    2  502  503 -0.94662002279E+01  0.54029813033E+02  0.40854898735E+03  0.41221487686E+03  0.00000000000E+00 0. -1.
         21    1    1    2  503  501 -0.25391520539E+02  0.16876042146E+02  0.23677803387E+02  0.38602700515E+02  0.00000000000E+00 0.  1.
<scales pt_clust_5="13000.00000" pt_clust_6="13000.00000" pt_clust_7="13000.00000" pt_clust_8="13000.00000" pt_clust_9="56.83458" pt_clust_10="30.48820"></scales>
<clustering>
<clus scale="   30.488">  2 10  1 -1</clus>
<clus scale="   56.835">  1  9  2 -1</clus>
<clus scale="   90.732">  5  6 -1 -1</clus>
<clus scale="   90.987">  7  8 -1 -1</clus>
<clus scale="  107.682">  1  5  2 -1</clus>
<clus scale="   56.835">  1  5  2 -1</clus>
</clustering>
</event>
<event>
10    2  0.1898324E-006  0.1053138E+03  0.7546771E-02  0.1270680E+00
         -1   -1    0    0    0  501 -0.00000000000E+00  0.00000000000E+00  0.44471485311E+03  0.44471485311E+03  0.00000000000E+00 0.  1.
          1   -1    0    0  502    0  0.00000000000E+00 -0.00000000000E+00 -0.17615526022E+03  0.17615526022E+03  0.00000000000E+00 0. -1.
         23    2    1    2    0    0 -0.65075331427E+02  0.72174439367E+02  0.23112212150E+03  0.26627405323E+03  0.89668767791E+02 0.  0.
         23    2    1    2    0    0  0.30506704029E+02  0.17266793705E+02  0.55714548397E+02  0.11343340532E+03  0.92380871309E+02 0.  0.
        -11    1    4    4    0    0  0.22850141118E+02 -0.29579942876E+02  0.54328864832E+02  0.65944882466E+02  0.00000000000E+00 0.  1.
         11    1    4    4    0    0  0.76565629117E+01  0.46846736581E+02  0.13856835654E+01  0.47488522854E+02  0.00000000000E+00 0. -1.
        -13    1    3    3    0    0 -0.45567691792E+02  0.36441709395E+02  0.21451096583E+03  0.22230467197E+03  0.00000000000E+00 0.  1.
         13    1    3    3    0    0 -0.19507639635E+02  0.35732729972E+02  0.16611155670E+02  0.43969381257E+02  0.00000000000E+00 0. -1.
         21    1    1    2  502  503  0.29157136564E+02 -0.19252737534E+02 -0.11576029708E+03  0.12091837286E+03  0.00000000000E+00 0. -1.
         21    1    1    2  503  501  0.54114908337E+01 -0.70188495538E+02  0.97483220079E+02  0.12024428193E+03  0.00000000000E+00 0.  1.
<scales pt_clust_5="13000.00000" pt_clust_6="13000.00000" pt_clust_7="13000.00000" pt_clust_8="13000.00000" pt_clust_9="34.94004" pt_clust_10="74.81388"></scales>
<clustering>
<clus scale="   34.940">  2  9  1 -1</clus>
<clus scale="   74.814">  1 10  2 -1</clus>
<clus scale="   89.669">  7  8 -1 -1</clus>
<clus scale="   92.381">  5  6 -1 -1</clus>
<clus scale="  102.943">  1  7  2 -1</clus>
<clus scale="   34.940">  2  5  1 -1</clus>
</clustering>
</event>
<event>
10    2  0.1898324E-006  0.1263281E+03  0.7546771E-02  0.1233475E+00
         -1   -1    0    0    0  501 -0.00000000000E+00  0.00000000000E+00  0.11792606851E+03  0.11792606851E+03  0.00000000000E+00 0.  1.
          1   -1    0    0  502    0  0.00000000000E+00 -0.00000000000E+00 -0.42153258608E+03  0.42153258608E+03  0.00000000000E+00 0. -1.
         23    2    1    2    0    0  0.11103242932E+03 -0.43885307392E+02 -0.14648048052E+03  0.21091611949E+03  0.93674744316E+02 0.  0.
         23    2    1    2    0    0 -0.49402186395E+02  0.32397029035E+02 -0.12327684834E+03  0.16480050984E+03  0.92042833493E+02 0.  0.
        -11    1    4    4    0    0  0.27517627615E+02  0.95977296641E+01 -0.32941726573E+02  0.43982878418E+02  0.00000000000E+00 0.  1.
         11    1    4    4    0    0 -0.76919814009E+02  0.22799299370E+02 -0.90335121766E+02  0.12081763143E+03  0.00000000000E+00 0. -1.
        -13    1    3    3    0    0  0.11186682262E+03 -0.19845492941E+02 -0.76632430358E+02  0.13704217955E+03  0.00000000000E+00 0.  1.
         13    1    3    3    0    0 -0.83439330147E+00 -0.24039814450E+02 -0.69848050162E+02  0.73873939941E+02  0.00000000000E+00 0. -1.
         21    1    1    2  502  503 -0.25799799308E+02 -0.28862217949E+02 -0.82471314754E+02  0.91105296369E+02  0.00000000000E+00 0. -1.
         21    1    1    2  503  501 -0.35830443617E+02  0.40350496306E+02  0.48622126048E+02  0.72636728887E+02  0.00000000000E+00 0.  1.
<scales pt_clust_5="13000.00000" pt_clust_6="13000.00000" pt_clust_7="13000.00000" pt_clust_8="13000.00000" pt_clust_9="38.71250" pt_clust_10="53.82082"></scales>
<clustering>
<clus scale="   38.712">  2  9  1 -1</clus>
<clus scale="   53.821">  1 10  2 -1</clus>
<clus scale="   92.043">  5  6 -1 -1</clus>
<clus scale="   93.675">  7  8 -1 -1</clus>
<clus scale="  125.123">  2  5  1 -1</clus>
<clus scale="   38.712">  2  5  1 -1</clus>
</clustering>
</event>
<event>
10    2  0.1898324E-006  0.2580502E+03  0.7546771E-02  0.1108419E+00
         -1   -1    0    0    0  501 -0.00000000000E+00  0.00000000000E+00  0.17302265919E+03  0.17302265919E+03  0.00000000000E+00 0.  1.
          1   -1    0    0  502    0  0.00000000000E+00 -0.00000000000E+00 -0.72972596469E+03  0.72972596469E+03  0.00000000000E+00 0. -1.
         23    2    1    2    0    0  0.50166958357E+02  0.20408874233E+03 -0.10746144691E+03  0.25429972953E+03  0.94612110271E+02 0.  0.
         23    2    1    2    0    0 -0.29303330699E+02 -0.28057889334E+03 -0.15642643423E+03  0.33566298884E+03  0.92828940388E+02 0.  0.
        -11    1    3    3    0    0 -0.25809116897E+02  0.77941413260E+02 -0.50597607231E+02  0.96442170618E+02  0.00000000000E+00 0. -1.
         11    1    3    3    0    0  0.75976075254E+02  0.12614732907E+03 -0.56863839684E+02  0.15785755891E+03  0.00000000000E+00 0.  1.
        -13    1    4    4    0    0  0.22806803982E+02 -0.17802670115E+03 -0.11613797950E+03  0.21377952875E+03  0.00000000000E+00 0.  1.
         13    1    4    4    0    0 -0.52110134681E+02 -0.10255219219E+03 -0.40288454735E+02  0.12188346009E+03  0.00000000000E+00 0. -1.
         21    1    1    2  502  503 -0.16116773393E+02  0.27650919446E+02 -0.23404753476E+03  0.23622568078E+03  0.00000000000E+00 0.  1.
         21    1    1    2  503  501 -0.47468542648E+01  0.48839231566E+02 -0.58767889584E+02  0.76560224735E+02  0.00000000000E+00 0.  1.
<scales pt_clust_5="13000.00000" pt_clust_6="13000.00000" pt_clust_7="13000.00000" pt_clust_8="13000.00000" pt_clust_9="32.00506" pt_clust_10="53.07932"></scales>
<clustering>
<clus scale="   32.005">  2  9  1 -1</clus>
<clus scale="   53.079">  2 10  1 -1</clus>
<clus scale="   92.829">  7  8 -1 -1</clus>
<clus scale="   94.612">  5  6 -1 -1</clus>
<clus scale="  257.402">  2  7  1 -1</clus>
<clus scale="   32.005">  2  5  1 -1</clus>
</clustering>
</event>
<event>
10    2  0.1898324E-006  0.9696717E+02  0.7546771E-02  0.1287502E+00
          1   -1    0    0  502    0  0.00000000000E+00  0.00000000000E+00  0.21841086472E+03  0.21841086472E+03  0.00000000000E+00 0. -1.
         -1   -1    0    0    0  501 -0.00000000000E+00 -0.00000000000E+00 -0.23514442511E+03  0.23514442511E+03  0.00000000000E+00 0.  1.
         23    2    1    2    0    0  0.20976906269E+01 -0.22304809906E+02 -0.75467013840E+01  0.93328957151E+02  0.90285307167E+02 0.  0.
         23    2    1    2    0    0 -0.36259370689E+01  0.32401580051E+02  0.11190586522E+03  0.14825819604E+03  0.91621832615E+02 0.  0.
        -11    1    3    3    0    0  0.32432090074E+01  0.25905343690E+02 -0.30309026924E+02  0.40003029254E+02  0.00000000000E+00 0. -1.
         11    1    3    3    0    0 -0.11455183805E+01 -0.48210153596E+02  0.22762325540E+02  0.53325927897E+02  0.00000000000E+00 0.  1.
        -13    1    4    4    0    0 -0.28993786228E+02  0.54528250100E+02  0.58107410741E+02  0.84796467390E+02  0.00000000000E+00 0.  1.
         13    1    4    4    0    0  0.25367849159E+02 -0.22126670048E+02  0.53798454482E+02  0.63461728648E+02  0.00000000000E+00 0. -1.
         21    1    1    2  502  503  0.27072931417E+02  0.25687950849E+01  0.40001559734E+02  0.48370105487E+02  0.00000000000E+00 0. -1.
         21    1    1    2  503  501 -0.25544684975E+02 -0.12665565231E+02 -0.16109428396E+03  0.16359803116E+03  0.00000000000E+00 0.  1.
<scales pt_clust_5="13000.00000" pt_clust_6="13000.00000" pt_clust_7="13000.00000" pt_clust_8="13000.00000" pt_clust_9="27.19453" pt_clust_10="28.32984"></scales>
<clustering>
<clus scale="   27.195">  1  9  2 -1</clus>
<clus scale="   28.330">  2 10  1 -1</clus>
<clus scale="   90.285">  5  6 -1 -1</clus>
<clus scale="   91.622">  7  8 -1 -1</clus>
<clus scale="   95.705">  2  5  1 -1</clus>
<clus scale="   27.195">  1  5  2 -1</clus>
</clustering>
</event>
<event>
10    2  0.1898324E-006  0.2013890E+03  0.7546771E-02  0.1148892E+00
          2   -1    0    0  502    0  0.00000000000E+00  0.00000000000E+00  0.86893578651E+03  0.86893578651E+03  0.00000000000E+00 0. -1.
         -2   -1    0    0    0  501 -0.00000000000E+00 -0.00000000000E+00 -0.13747798671E+03  0.13747798671E+03  0.00000000000E+00 0.  1.
         23    2    1    2    0    0  0.18634032172E+03  0.52639091903E+02  0.88075154255E+02  0.23311283411E+03  0.95345535471E+02 0.  0.
         23    2    1    2    0    0 -0.99679983942E+02 -0.11682531516E+03  0.27860986666E+03  0.33119138261E+03  0.92087027593E+02 0.  0.
        -11    1    4    4    0    0 -0.20821912871E+02  0.10780389859E+02  0.73031484441E+02  0.76703106722E+02  0.00000000000E+00 0.  1.
         11    1    4    4    0    0 -0.78858071071E+02 -0.12760570502E+03  0.20557838222E+03  0.25448827589E+03  0.00000000000E+00 0. -1.
        -11    1    3    3    0    0  0.59985542062E+02  0.51164794543E+02 -0.41983006586E+00  0.78843374575E+02  0.00000000000E+00 0.  1.
         11    1    3    3    0    0  0.12635477966E+03  0.14742973608E+01  0.88494984321E+02  0.15426945954E+03  0.00000000000E+00 0. -1.
         21    1    1    2  502  503 -0.72836302409E+02 -0.11332120898E+01  0.36812117696E+03  0.37525939301E+03  0.00000000000E+00 0. -1.
         21    1    1    2  503  501 -0.13824035373E+02  0.65319435349E+02 -0.33483980712E+01  0.66850163484E+02  0.00000000000E+00 0.  1.
<scales pt_clust_5="13000.00000" pt_clust_6="13000.00000" pt_clust_7="13000.00000" pt_clust_8="13000.00000" pt_clust_9="73.32716" pt_clust_10="66.76625"></scales>
<clustering>
<clus scale="   66.766">  2 10  1 -1</clus>
<clus scale="   73.327">  1  9  2 -1</clus>
<clus scale="   92.087">  5  6 -1 -1</clus>
<clus scale="   95.346">  7  8 -1 -1</clus>
<clus scale="  199.867">  1  5  2 -1</clus>
<clus scale="   73.327">  1  5  2 -1</clus>
</clustering>
</event>
<event>
10    2  0.1898324E-006  0.1506908E+03  0.7546771E-02  0.1199942E+00
          1   -1    0    0  502    0  0.00000000000E+00  0.00000000000E+00  0.51393262453E+03  0.51393262453E+03  0.00000000000E+00 0. -1.
         -1   -1    0    0    0  501 -0.00000000000E+00 -0.00000000000E+00 -0.14524145307E+03  0.14524145307E+03  0.00000000000E+00 0.  1.
         23    2    1    2    0    0  0.54434425707E+02  0.13928687503E+03  0.18876271892E+03  0.25744397305E+03  0.91006015974E+02 0.  0.
         23    2    1    2    0    0  0.26585838445E+02 -0.97884186175E+02  0.20245422333E+03  0.24467668093E+03  0.92686811024E+02 0.  0.
        -11    1    4    4    0    0 -0.23172476877E+02 -0.13486462822E+02  0.97417620940E+02  0.10103980025E+03  0.00000000000E+00 0.  1.
         11    1    4    4    0    0  0.49758315322E+02 -0.84397723353E+02  0.10503660238E+03  0.14363688068E+03  0.00000000000E+00 0. -1.
        -13    1    3    3    0    0  0.18245689122E+02 -0.93186433207E+01  0.35066402985E+02  0.40612743113E+02  0.00000000000E+00 0.  1.
         13    1    3    3    0    0  0.36188736585E+02  0.14860551835E+03  0.15369631594E+03  0.21683122993E+03  0.00000000000E+00 0. -1.
         21    1    1    2  502  503 -0.11494928274E+02 -0.32336864478E+02  0.47076780279E+02  0.58258299166E+02  0.00000000000E+00 0.  1.
         21    1    1    2  503  501 -0.69525335878E+02 -0.90658243807E+01 -0.69602551070E+02  0.98795124455E+02  0.00000000000E+00 0.  1.
<scales pt_clust_5="13000.00000" pt_clust_6="13000.00000" pt_clust_7="13000.00000" pt_clust_8="13000.00000" pt_clust_9="34.31918" pt_clust_10="70.61355"></scales>
<clustering>
<clus scale="   34.319">  1  9  2 -1</clus>
<clus scale="   70.614">  2 10  1 -1</clus>
<clus scale="   91.006">  7  8 -1 -1</clus>
<clus scale="   92.687">  5  6 -1 -1</clus>
<clus scale="  149.663">  2  7  1 -1</clus>
<clus scale="   34.319">  1  5  2 -1</clus>
</clustering>
</event>
<event>
10    2  0.1898324E-006  0.1149681E+03  0.7546771E-02  0.1251724E+00
          2   -1    0    0  502    0  0.00000000000E+00  0.00000000000E+00  0.20070163741E+03  0.20070163741E+03  0.00000000000E+00 0. -1.
         -2   -1    0    0    0  501 -0.00000000000E+00 -0.00000000000E+00 -0.15958098505E+03  0.15958098505E+03  0.00000000000E+00 0.  1.
         23    2    1    2    0    0 -0.32406972743E+02  0.57852310057E+02 -0.16237401667E+02  0.11433938465E+03  0.91720990005E+02 0.  0.
         23    2    1    2    0    0 -0.42342162843E+02 -0.71141098592E+02  0.85408877530E+02  0.15035648845E+03  0.91970009217E+02 0.  0.
        -11    1    3    3    0    0 -0.54727359515E+02  0.14070763581E+02  0.11849639791E+02  0.57736333711E+02  0.00000000000E+00 0. -1.
         11    1    3    3    0    0  0.22320386772E+02  0.43781546476E+02 -0.28087041458E+02  0.56603050937E+02  0.00000000000E+00 0.  1.
        -13    1    4    4    0    0 -0.63046641290E+02 -0.39612541418E+02  0.84502738349E+02  0.11262657415E+03  0.00000000000E+00 0. -1.
         13    1    4    4    0    0  0.20704478447E+02 -0.31528557174E+02  0.90613918054E+00  0.37729914305E+02  0.00000000000E+00 0.  1.
         21    1    1    2  502  503  0.53037756575E+02  0.26503976649E+02 -0.21978478004E+01  0.59332073414E+02  0.00000000000E+00 0. -1.
         21    1    1    2  503  501  0.21711379011E+02 -0.13215188114E+02 -0.25852975697E+02  0.36254675944E+02  0.00000000000E+00 0. -1.
<scales pt_clust_5="13000.00000" pt_clust_6="13000.00000" pt_clust_7="13000.00000" pt_clust_8="13000.00000" pt_clust_9="62.73811" pt_clust_10="25.41703"></scales>
<clustering>
<clus scale="   25.417">  2 10  1 -1</clus>
<clus scale="   62.738">  2  9  1 -1</clus>
<clus scale="   91.721">  5  6 -1 -1</clus>
<clus scale="   91.970">  7  8 -1 -1</clus>
<clus scale="  114.769">  2  5  1 -1</clus>
<clus scale="  114.968">  1  5  2 -1</clus>
</clustering>
</event>
<event>
10    2  0.1898324E-006  0.9636050E+02  0.7546771E-02  0.1288804E+00
         -2   -1    0    0    0  501 -0.00000000000E+00  0.00000000000E+00  0.77717799571E+02  0.77717799571E+02  0.00000000000E+00 0.  1.
          2   -1    0    0  502    0  0.00000000000E+00 -0.00000000000E+00 -0.39707860191E+03  0.39707860191E+03  0.00000000000E+00 0. -1.
         23    2    1    2    0    0 -0.17087782084E+02 -0.53732552009E+02 -0.91729508741E+02  0.14165157246E+03  0.92041760977E+02 0.  0.
         23    2    1    2    0    0  0.25771926142E+02 -0.20271790821E+02 -0.15762266356E+03  0.18483325821E+03  0.90792574545E+02 0.  0.
        -13    1    3    3    0    0  0.23803661173E+02  0.41000661590E+01  0.19238096329E+01  0.24230680371E+02  0.00000000000E+00 0.  1.
         13    1    3    3    0    0 -0.40891443257E+02 -0.57832618168E+02 -0.93653318374E+02  0.11742089209E+03  0.00000000000E+00 0. -1.
        -13    1    4    4    0    0  0.96992792973E+01  0.29888231585E+02 -0.19434388729E+02  0.36946960246E+02  0.00000000000E+00 0.  1.
         13    1    4    4    0    0  0.16072646845E+02 -0.50160022407E+02 -0.13818827483E+03  0.14788629797E+03  0.00000000000E+00 0. -1.
         21    1    1    2  502  503 -0.11184675814E+02  0.53307894957E+02 -0.98767756952E+02  0.11279139351E+03  0.00000000000E+00 0.  1.
         21    1    1    2  503  501  0.25005317553E+01  0.20696447873E+02  0.28759126921E+02  0.35520177292E+02  0.00000000000E+00 0.  1.
<scales pt_clust_5="13000.00000" pt_clust_6="13000.00000" pt_clust_7="13000.00000" pt_clust_8="13000.00000" pt_clust_9="57.51497" pt_clust_10="20.84696"></scales>
<clustering>
<clus scale="   20.847">  1 10  2 -1</clus>
<clus scale="   57.515">  2  9  1 -1</clus>
<clus scale="   90.793">  7  8 -1 -1</clus>
<clus scale="   92.042">  5  6 -1 -1</clus>
<clus scale="   95.168">  2  7  1 -1</clus>
<clus scale="   57.515">  2  5  1 -1</clus>
</clustering>
</event>
<event>
10    2  0.1898324E-006  0.9961790E+02  0.7546771E-02  0.1282739E+00
          2   -1    0    0  502    0  0.00000000000E+00  0.00000000000E+00  0.38833131356E+03  0.38833131356E+03  0.00000000000E+00 0. -1.
         -2   -1    0    0    0  501 -0.00000000000E+00 -0.00000000000E+00 -0.57965326787E+02  0.57965326787E+02  0.00000000000E+00 0.  1.
         23    2    1    2    0    0 -0.11919152525E+02  0.79897710881E+01  0.42447444179E+02  0.10479898496E+03  0.94737210707E+02 0.  0.
         23    2    1    2    0    0  0.56213354905E+02 -0.35937300988E+02  0.14078892251E+03  0.18069395102E+03  0.91527877506E+02 0.  0.
        -11    1    4    4    0    0  0.55568885907E+02  0.18484160802E+02  0.66655203271E+02  0.88727004934E+02  0.00000000000E+00 0. -1.
         11    1    4    4    0    0  0.64446899780E+00 -0.54421461790E+02  0.74133719237E+02  0.91966946081E+02  0.00000000000E+00 0.  1.
        -13    1    3    3    0    0 -0.39039895630E+01 -0.25027450487E+02  0.61026680726E+02  0.66074731727E+02  0.00000000000E+00 0.  1.
         13    1    3    3    0    0 -0.80151629617E+01  0.33017221575E+02 -0.18579236547E+02  0.38724253234E+02  0.00000000000E+00 0. -1.
         21    1    1    2  502  503 -0.16091589522E+02  0.21318580628E+02  0.11262686026E+03  0.11575072693E+03  0.00000000000E+00 0. -1.
         21    1    1    2  503  501 -0.28202612859E+02  0.66289492715E+01  0.34502759828E+02  0.45052977440E+02  0.00000000000E+00 0. -1.
<scales pt_clust_5="13000.00000" pt_clust_6="13000.00000" pt_clust_7="13000.00000" pt_clust_8="13000.00000" pt_clust_9="26.70994" pt_clust_10="32.04779"></scales>
<clustering>
<clus scale="   26.710">  1  9  2 -1</clus>
<clus scale="   32.048">  1 10  2 -1</clus>
<clus scale="   91.528">  5  6 -1 -1</clus>
<clus scale="   94.737">  7  8 -1 -1</clus>
<clus scale="   96.571">  1  5  2 -1</clus>
<clus scale="   26.710">  1  5  2 -1</clus>
</clustering>
</event>
<event>
10    2  0.1898324E-006  0.1156340E+03  0.7546771E-02  0.1253151E+00
         -2   -1    0    0    0  501 -0.00000000000E+00  0.00000000000E+00  0.34253699746E+03  0.34253699746E+03  0.00000000000E+00 0.  1.
          2   -1    0    0  502    0  0.00000000000E+00 -0.00000000000E+00 -0.12566354347E+03  0.12566354347E+03  0.00000000000E+00 0. -1.
         23    2    1    2    0    0 -0.19639764516E+02 -0.87693915263E+02  0.69950242975E+02  0.14727350008E+03  0.93383639943E+02 0.  0.
         23    2    1    2    0    0  0.22107456044E+00  0.40238602848E+02  0.15713588647E+01  0.94824041366E+02  0.85848329158E+02 0.  0.
        -13    1    4    4    0    0 -0.30222245651E+02 -0.50304241163E+01 -0.19528253716E+02  0.36332382142E+02  0.00000000000E+00 0. -1.
         13    1    4    4    0    0  0.30443320211E+02  0.45269026964E+02  0.21099612580E+02  0.58491659224E+02  0.00000000000E+00 0.  1.
        -13    1    3    3    0    0  0.18586779485E+02  0.12102171336E+02  0.17370383147E+02  0.28171992002E+02  0.00000000000E+00 0.  1.
         13    1    3    3    0    0 -0.38226544001E+02 -0.99796086599E+02  0.52579859828E+02  0.11910150808E+03  0.00000000000E+00 0. -1.
         21    1    1    2  502  503 -0.73749586920E+01  0.70902197542E+02 -0.51275462779E+01  0.71468897870E+02  0.00000000000E+00 0.  1.
         21    1    1    2  503  501  0.26793648647E+02 -0.23446885126E+02  0.15047939843E+03  0.15463410162E+03  0.00000000000E+00 0.  1.
<scales pt_clust_5="13000.00000" pt_clust_6="13000.00000" pt_clust_7="13000.00000" pt_clust_8="13000.00000" pt_clust_9="66.86276" pt_clust_10="35.60416"></scales>
<clustering>
<clus scale="   35.604">  1 10  2 -1</clus>
<clus scale="   66.863">  2  9  1 -1</clus>
<clus scale="   85.848">  5  6 -1 -1</clus>
<clus scale="   93.384">  7  8 -1 -1</clus>
<clus scale="  109.639">  2  5  1 -1</clus>
<clus scale="   66.863">  2  5  1 -1</clus>
</clustering>
</event>
<event>
10    2  0.1898324E-006  0.9148927E+02  0.7546771E-02  0.1300237E+00
          3   -1    0    0  503    0  0.00000000000E+00  0.00000000000E+00  0.22497160826E+03  0.22497160826E+03  0.00000000000E+00 0. -1.
         -3   -1    0    0    0  501 -0.00000000000E+00 -0.00000000000E+00 -0.94683968690E+02  0.94683968690E+02  0.00000000000E+00 0.  1.
         23    2    1    2    0    0 -0.19666470570E+01 -0.26603414316E+02 -0.67274284193E+01  0.95296913509E+02  0.91239432688E+02 0.  0.
         23    2    1    2    0    0 -0.12035766816E+02 -0.30129979663E+02  0.48343735870E+02  0.10688970383E+03  0.89641600997E+02 0.  0.
        -13    1    4    4    0    0 -0.38784683920E+02 -0.47864601399E+02  0.22161149161E+02  0.65470514784E+02  0.00000000000E+00 0.  1.
         13    1    4    4    0    0  0.26748917104E+02  0.17734621736E+02  0.26182586709E+02  0.41419189045E+02  0.00000000000E+00 0. -1.
        -13    1    3    3    0    0  0.14397908433E+02 -0.47881226729E+02  0.23179018768E+02  0.55110602894E+02  0.00000000000E+00 0. -1.
         13    1    3    3    0    0 -0.16364555490E+02  0.21277812412E+02 -0.29906447188E+02  0.40186310615E+02  0.00000000000E+00 0.  1.
         21    1    1    2  502  501 -0.16685638444E+02  0.35424443564E+02  0.52234870323E+02  0.65282336124E+02  0.00000000000E+00 0. -1.
         21    1    1    2  503  502  0.30688052317E+02  0.21308950416E+02  0.36436461795E+02  0.52186623487E+02  0.00000000000E+00 0. -1.
<scales pt_clust_5="13000.00000" pt_clust_6="13000.00000" pt_clust_7="13000.00000" pt_clust_8="13000.00000" pt_clust_9="42.88241" pt_clust_10="37.36078"></scales>
<clustering>
<clus scale="   37.361">  1 10  2 -1</clus>
<clus scale="   42.882">  1  9  2 -1</clus>
<clus scale="   89.642">  5  6 -1 -1</clus>
<clus scale="   89.896">  1  5  2 -1</clus>
<clus scale="   91.239">  7  8 -1 -1</clus>
<clus scale="   37.361">  1  5  2 -1</clus>
</clustering>
</event>
<event>
10    2  0.1898324E-006  0.1677983E+03  0.7546771E-02  0.1180179E+00
         -2   -1    0    0    0  501 -0.00000000000E+00  0.00000000000E+00  0.45207742795E+03  0.45207742795E+03  0.00000000000E+00 0.  1.
          2   -1    0    0  502    0  0.00000000000E+00 -0.00000000000E+00 -0.23877893110E+03  0.23877893110E+03  0.00000000000E+00 0. -1.
         23    2    1    2    0    0 -0.91769094547E+02 -0.10343259226E+03  0.22385031096E+03  0.27763418683E+03  0.88611015801E+02 0.  0.
         23    2    1    2    0    0  0.10235345190E+03  0.91649031854E+02 -0.43999387331E+01  0.16360455678E+03  0.88720445119E+02 0.  0.
        -13    1    4    4    0    0  0.59444556633E+02  0.89129854326E+02 -0.32851857401E+02  0.11205815803E+03  0.00000000000E+00 0.  1.
         13    1    4    4    0    0  0.42908895265E+02  0.25191775276E+01  0.28451918668E+02  0.51546398751E+02  0.00000000000E+00 0. -1.
        -13    1    3    3    0    0 -0.28181889773E+02  0.10709157280E+02  0.22552985004E+02  0.37650260204E+02  0.00000000000E+00 0. -1.
         13    1    3    3    0    0 -0.63587204774E+02 -0.11414174954E+03  0.20129732596E+03  0.23998392663E+03  0.00000000000E+00 0.  1.
         21    1    1    2  502  503 -0.19314135718E+02  0.31883286123E+02 -0.12413779134E+03  0.12961393063E+03  0.00000000000E+00 0. -1.
         21    1    1    2  503  501  0.87297783671E+01 -0.20099725713E+02  0.11798591596E+03  0.12000368481E+03  0.00000000000E+00 0. -1.
<scales pt_clust_5="13000.00000" pt_clust_6="13000.00000" pt_clust_7="13000.00000" pt_clust_8="13000.00000" pt_clust_9="37.09857" pt_clust_10="21.91365"></scales>
<clustering>
<clus scale="   21.914">  1 10  2 -1</clus>
<clus scale="   37.099">  2  9  1 -1</clus>
<clus scale="   88.611">  7  8 -1 -1</clus>
<clus scale="   88.720">  5  6 -1 -1</clus>
<clus scale="  167.741">  1  7  2 -1</clus>
<clus scale="   37.099">  2  5  1 -1</clus>
</clustering>
</event>
<event>
10    2  0.1898324E-006  0.2707333E+03  0.7546771E-02  0.1100980E+00
          1   -1    0    0  502    0  0.00000000000E+00  0.00000000000E+00  0.17061127287E+03  0.17061127287E+03  0.00000000000E+00 0. -1.
         -1   -1    0    0    0  501 -0.00000000000E+00 -0.00000000000E+00 -0.12899628389E+04  0.12899628389E+04  0.00000000000E+00 0.  1.
         23    2    1    2    0    0  0.28004856295E+03  0.51713202785E+02 -0.35746068885E+03  0.46598812688E+03  0.90913900882E+02 0.  0.
         23    2    1    2    0    0 -0.22252267181E+03 -0.48935090188E+02 -0.35247711544E+03  0.42890901417E+03  0.88384631019E+02 0.  0.
        -13    1    4    4    0    0 -0.77350204658E+02 -0.60650779918E+02 -0.12946498365E+03  0.16255077132E+03  0.00000000000E+00 0. -1.
         13    1    4    4    0    0 -0.14517246716E+03  0.11715689729E+02 -0.22301213179E+03  0.26635824285E+03  0.00000000000E+00 0.  1.
        -13    1    3    3    0    0  0.96545678194E+02  0.62490369667E+02 -0.13121126005E+03  0.17447781820E+03  0.00000000000E+00 0.  1.
         13    1    3    3    0    0  0.18350288475E+03 -0.10777166882E+02 -0.22624942880E+03  0.29151030868E+03  0.00000000000E+00 0. -1.
         21    1    1    2  502  503  0.16941942847E+01  0.61210839328E+02  0.61484424234E+02  0.86775408779E+02  0.00000000000E+00 0.  1.
         21    1    1    2  503  501 -0.59220085416E+02 -0.63988951924E+02 -0.47089818593E+03  0.47890156190E+03  0.00000000000E+00 0. -1.
<scales pt_clust_5="13000.00000" pt_clust_6="13000.00000" pt_clust_7="13000.00000" pt_clust_8="13000.00000" pt_clust_9="61.23428" pt_clust_10="85.29257"></scales>
<clustering>
<clus scale="   61.234">  1  9  2 -1</clus>
<clus scale="   85.293">  2 10  1 -1</clus>
<clus scale="   88.385">  5  6 -1 -1</clus>
<clus scale="   90.914">  7  8 -1 -1</clus>
<clus scale="  269.894">  1  5  2 -1</clus>
<clus scale="   61.234">  1  5  2 -1</clus>
</clustering>
</event>
<event>
10    2  0.1898324E-006  0.9044437E+02  0.7546771E-02  0.1303405E+00
         -1   -1    0    0    0  501 -0.00000000000E+00  0.00000000000E+00  0.12517781904E+03  0.12517781904E+03  0.00000000000E+00 0.  1.
          1   -1    0    0  502    0  0.00000000000E+00 -0.00000000000E+00 -0.23912968458E+03  0.23912968458E+03  0.00000000000E+00 0. -1.
         23    2    1    2    0    0 -0.65990792391E+01  0.62155565648E+01  0.52046483829E+02  0.10194006024E+03  0.87182328555E+02 0.  0.
         23    2    1    2    0    0 -0.13174002090E+02 -0.29976023580E+02 -0.17406816991E+03  0.19621006916E+03  0.84418879073E+02 0.  0.
        -13    1    3    3    0    0 -0.35015832364E+02 -0.25350225047E+02  0.36936479513E+02  0.56859879923E+02  0.00000000000E+00 0.  1.
         13    1    3    3    0    0  0.28416753124E+02  0.31565781612E+02  0.15110004316E+02  0.45080180316E+02  0.00000000000E+00 0. -1.
        -13    1    4    4    0    0 -0.25863837889E+01 -0.58490869005E+02 -0.96249531893E+02  0.11265808239E+03  0.00000000000E+00 0. -1.
         13    1    4    4    0    0 -0.10587618301E+02  0.28514845424E+02 -0.77818638012E+02  0.83551986768E+02  0.00000000000E+00 0.  1.
         21    1    1    2  502  503  0.27982405644E+02  0.49851219281E+01 -0.17508651892E+02  0.33382920144E+02  0.00000000000E+00 0. -1.
         21    1    1    2  503  501 -0.82093243145E+01  0.18775345087E+02  0.25578472422E+02  0.32774454081E+02  0.00000000000E+00 0.  1.
<scales pt_clust_5="13000.00000" pt_clust_6="13000.00000" pt_clust_7="13000.00000" pt_clust_8="13000.00000" pt_clust_9="28.07541" pt_clust_10="20.49162"></scales>
<clustering>
<clus scale="   20.492">  1 10  2 -1</clus>
<clus scale="   28.075">  2  9  1 -1</clus>
<clus scale="   84.419">  7  8 -1 -1</clus>
<clus scale="   87.182">  5  6 -1 -1</clus>
<clus scale="   87.784">  2  7  1 -1</clus>
<clus scale="   28.075">  2  5  1 -1</clus>
</clustering>
</event>
<event>
10    2  0.1898324E-006  0.1452672E+03  0.7546771E-02  0.1206952E+00
          1   -1    0    0  502    0  0.00000000000E+00  0.00000000000E+00  0.21066065053E+03  0.21066065053E+03  0.00000000000E+00 0. -1.
         -1   -1    0    0    0  501 -0.00000000000E+00 -0.00000000000E+00 -0.60114515129E+03  0.60114515129E+03  0.00000000000E+00 0.  1.
         23    2    1    2    0    0  0.18293568174E+02  0.82251845171E+02 -0.33977811697E+03  0.36309561197E+03  0.96380672275E+02 0.  0.
         23    2    1    2    0    0 -0.68040183909E+02 -0.88122291314E+02  0.15321615341E+03  0.21136634646E+03  0.93837827653E+02 0.  0.
        -11    1    4    4    0    0 -0.49489115317E+02 -0.42223809627E+02  0.14790147433E+03  0.16157620104E+03  0.00000000000E+00 0. -1.
         11    1    4    4    0    0 -0.18551068592E+02 -0.45898481687E+02  0.53146790769E+01  0.49790145419E+02  0.00000000000E+00 0.  1.
        -11    1    3    3    0    0  0.35706165908E+02  0.66045931039E+02 -0.32812925169E+03  0.33660927068E+03  0.00000000000E+00 0.  1.
         11    1    3    3    0    0 -0.17412597735E+02  0.16205914132E+02 -0.11648865281E+02  0.26486341293E+02  0.00000000000E+00 0. -1.
         21    1    1    2  502  503  0.57006920952E+02 -0.20204741561E+02 -0.43119302457E+02  0.74278495289E+02  0.00000000000E+00 0.  1.
         21    1    1    2  503  501 -0.72603052170E+01  0.26075187704E+02 -0.16080323474E+03  0.16306534809E+03  0.00000000000E+00 0.  1.
<scales pt_clust_5="13000.00000" pt_clust_6="13000.00000" pt_clust_7="13000.00000" pt_clust_8="13000.00000" pt_clust_9="58.47783" pt_clust_10="27.06709"></scales>
<clustering>
<clus scale="   27.067">  2 10  1 -1</clus>
<clus scale="   58.478">  2  9  1 -1</clus>
<clus scale="   93.838">  5  6 -1 -1</clus>
<clus scale="   96.381">  7  8 -1 -1</clus>
<clus scale="  143.593">  1  5  2 -1</clus>
<clus scale="  143.593">  1  5  2 -1</clus>
</clustering>
</event>
<event>
10    2  0.1898324E-006  0.1571556E+03  0.7546771E-02  0.1201597E+00
         -2   -1    0    0    0  501 -0.00000000000E+00  0.00000000000E+00  0.20392755460E+03  0.20392755460E+03  0.00000000000E+00 0.  1.
          2   -1    0    0  502    0  0.00000000000E+00 -0.00000000000E+00 -0.45770858250E+03  0.45770858250E+03  0.00000000000E+00 0. -1.
         23    2    1    2    0    0  0.29504840742E+02 -0.10182449885E+03 -0.61868311197E+02  0.15308512041E+03  0.91480063228E+02 0.  0.
         23    2    1    2    0    0  0.12009835563E+03  0.32273196274E+02 -0.20247676957E+03  0.25484915730E+03  0.92119903036E+02 0.  0.
        -11    1    3    3    0    0 -0.21715113811E+02  0.43403041738E+01 -0.10343875611E+02  0.24441361886E+02  0.00000000000E+00 0.  1.
         11    1    3    3    0    0  0.51219954554E+02 -0.10616480302E+03 -0.51524435586E+02  0.12864375853E+03  0.00000000000E+00 0. -1.
        -11    1    4    4    0    0  0.59831552587E+02 -0.25362576010E+02 -0.12566519102E+03  0.14147372612E+03  0.00000000000E+00 0. -1.
         11    1    4    4    0    0  0.60266803045E+02  0.57635772284E+02 -0.76811578554E+02  0.11337543118E+03  0.00000000000E+00 0.  1.
         21    1    1    2  502  503 -0.54629966118E+02 -0.32460611125E+02 -0.68519139887E+02  0.93450505636E+02  0.00000000000E+00 0.  1.
         21    1    1    2  503  501 -0.94973230256E+02  0.10201191370E+03  0.79083192761E+02  0.16025135375E+03  0.00000000000E+00 0.  1.
<scales pt_clust_5="13000.00000" pt_clust_6="13000.00000" pt_clust_7="13000.00000" pt_clust_8="13000.00000" pt_clust_9="63.54624" pt_clust_10="127.78606"></scales>
<clustering>
<clus scale="   63.546">  2  9  1 -1</clus>
<clus scale="   91.480">  5  6 -1 -1</clus>
<clus scale="   92.120">  7  8 -1 -1</clus>
<clus scale="  127.289">  2  7  1 -1</clus>
<clus scale="  127.786">  1 10  2 -1</clus>
<clus scale="   63.546">  2  5  1 -1</clus>
</clustering>
</event>
<event>
10    2  0.1898324E-006  0.1906616E+03  0.7546771E-02  0.1158721E+00
         -1   -1    0    0    0  501 -0.00000000000E+00  0.00000000000E+00  0.45394942814E+03  0.45394942814E+03  0.00000000000E+00 0.  1.
          1   -1    0    0  502    0  0.00000000000E+00 -0.00000000000E+00 -0.15933373814E+03  0.15933373814E+03  0.00000000000E+00 0. -1.
         23    2    1    2    0    0 -0.16987826482E+03 -0.47656939694E+02  0.26290793598E+03  0.32883295462E+03  0.88773422180E+02 0.  0.
         23    2    1    2    0    0  0.16206956148E+03  0.16086511814E+02  0.66879099159E+02  0.20075455287E+03  0.96458581657E+02 0.  0.
        -11    1    4    4    0    0  0.10275375123E+02  0.30810672811E+02  0.29169841483E+02  0.43655017411E+02  0.00000000000E+00 0.  1.
         11    1    4    4    0    0  0.15179418635E+03 -0.14724160997E+02  0.37709257676E+02  0.15709953546E+03  0.00000000000E+00 0. -1.
        -13    1    3    3    0    0 -0.99526035493E+02  0.82747251793E+01  0.18343284639E+03  0.20885763561E+03  0.00000000000E+00 0.  1.
         13    1    3    3    0    0 -0.70352229331E+02 -0.55931664873E+02  0.79475089587E+02  0.11997531901E+03  0.00000000000E+00 0. -1.
         21    1    1    2  502  503 -0.95253008173E+01  0.20888764212E+02 -0.52281476817E+02  0.57100128232E+02  0.00000000000E+00 0.  1.
         21    1    1    2  503  501  0.17334004165E+02  0.10681663668E+02  0.17110131680E+02  0.26595530549E+02  0.00000000000E+00 0.  1.
<scales pt_clust_5="13000.00000" pt_clust_6="13000.00000" pt_clust_7="13000.00000" pt_clust_8="13000.00000" pt_clust_9="22.97241" pt_clust_10="20.36089"></scales>
<clustering>
<clus scale="   20.361">  1 10  2 -1</clus>
<clus scale="   22.972">  2  9  1 -1</clus>
<clus scale="   88.773">  7  8 -1 -1</clus>
<clus scale="   96.459">  5  6 -1 -1</clus>
<clus scale="  186.891">  1  7  2 -1</clus>
<clus scale="   22.972">  2  5  1 -1</clus>
</clustering>
</event>
<event>
10    2  0.1898324E-006  0.1444912E+03  0.7546771E-02  0.1208415E+00
         -4   -1    0    0    0  501 -0.00000000000E+00  0.00000000000E+00  0.26055074485E+03  0.26055074485E+03  0.00000000000E+00 0.  1.
          4   -1    0    0  502    0  0.00000000000E+00 -0.00000000000E+00 -0.16004692610E+03  0.16004692610E+03  0.00000000000E+00 0. -1.
         23    2    1    2    0    0  0.11026914078E+03 -0.49208625427E+02  0.14441010537E+03  0.20897754422E+03  0.90755513503E+02 0.  0.
         23    2    1    2    0    0 -0.64248785398E+02  0.33316194548E+02 -0.57159760435E+02  0.13274591283E+03  0.95479651837E+02 0.  0.
        -11    1    3    3    0    0  0.15464930282E+02 -0.48729917486E+02  0.26203314896E+02  0.57448956808E+02  0.00000000000E+00 0. -1.
         11    1    3    3    0    0  0.94804210494E+02 -0.47870794064E+00  0.11820679048E+03  0.15152858741E+03  0.00000000000E+00 0.  1.
        -13    1    4    4    0    0 -0.29116808361E+02  0.64080059733E+02 -0.47903245964E+02  0.85139670885E+02  0.00000000000E+00 0. -1.
         13    1    4    4    0    0 -0.35131977037E+02 -0.30763865185E+02 -0.92565144708E+01  0.47606241942E+02  0.00000000000E+00 0.  1.
         21    1    1    2  502  503 -0.44178269168E+01  0.32600237903E+02  0.46752258117E+01  0.33228759267E+02  0.00000000000E+00 0. -1.
         21    1    1    2  503  501 -0.41602528461E+02 -0.16707807025E+02  0.85782479941E+01  0.45645454633E+02  0.00000000000E+00 0. -1.
<scales pt_clust_5="13000.00000" pt_clust_6="13000.00000" pt_clust_7="13000.00000" pt_clust_8="13000.00000" pt_clust_9="32.89822" pt_clust_10="43.99601"></scales>
<clustering>
<clus scale="   32.898">  2  9  1 -1</clus>
<clus scale="   43.996">  2 10  1 -1</clus>
<clus scale="   90.756">  5  6 -1 -1</clus>
<clus scale="   95.480">  7  8 -1 -1</clus>
<clus scale="  141.414">  1  5  2 -1</clus>
<clus scale="   32.898">  2  5  1 -1</clus>
</clustering>
</event>
<event>
10    2  0.1898324E-006  0.2311751E+03  0.7546771E-02  0.1127354E+00
         -2   -1    0    0    0  501 -0.00000000000E+00  0.00000000000E+00  0.15325532966E+03  0.15325532966E+03  0.00000000000E+00 0.  1.
          2   -1    0    0  502    0  0.00000000000E+00 -0.00000000000E+00 -0.76234280094E+03  0.76234280094E+03  0.00000000000E+00 0. -1.
         23    2    1    2    0    0 -0.21900304649E+03 -0.80662329873E+02 -0.12526352669E+03  0.27344931131E+03  0.67932532003E+02 0.  0.
         23    2    1    2    0    0  0.19321501701E+03  0.12712146625E+03 -0.33298035962E+03  0.41580881291E+03  0.92353337893E+02 0.  0.
        -11    1    3    3    0    0 -0.16833981132E+03 -0.90321970440E+02 -0.91651071281E+02  0.21188739766E+03  0.00000000000E+00 0.  1.
         11    1    3    3    0    0 -0.50663235176E+02  0.96596405669E+01 -0.33612455406E+02  0.61561913655E+02  0.00000000000E+00 0. -1.
        -13    1    4    4    0    0  0.65193829980E+02  0.38081817808E+02 -0.43863318367E+02  0.87318102437E+02  0.00000000000E+00 0.  1.
         13    1    4    4    0    0  0.12802118703E+03  0.89039648445E+02 -0.28911704125E+03  0.32849071047E+03  0.00000000000E+00 0. -1.
         21    1    1    2  502  503 -0.27015726669E+02 -0.74110629590E+02 -0.14673420124E+03  0.16659279912E+03  0.00000000000E+00 0. -1.
         21    1    1    2  503  501  0.52803756154E+02  0.27651493210E+02 -0.41093837283E+01  0.59747207260E+02  0.00000000000E+00 0. -1.
<scales pt_clust_5="13000.00000" pt_clust_6="13000.00000" pt_clust_7="13000.00000" pt_clust_8="13000.00000" pt_clust_9="75.46007" pt_clust_10="59.60572"></scales>
<clustering>
<clus scale="   59.606">  1 10  2 -1</clus>
<clus scale="   67.933">  5  6 -1 -1</clus>
<clus scale="   75.460">  2  9  1 -1</clus>
<clus scale="   92.353">  7  8 -1 -1</clus>
<clus scale="  222.548">  1  5  2 -1</clus>
<clus scale="   75.460">  2  5  1 -1</clus>
</clustering>
</event>
<event>
10    2  0.1898324E-006  0.1151243E+03  0.7546771E-02  0.1252102E+00
         -1   -1    0    0    0  501 -0.00000000000E+00  0.00000000000E+00  0.23939724802E+03  0.23939724802E+03  0.00000000000E+00 0.  1.
          1   -1    0    0  502    0  0.00000000000E+00 -0.00000000000E+00 -0.39076495535E+03  0.39076495535E+03  0.00000000000E+00 0. -1.
         23    2    1    2    0    0 -0.12806364896E+02  0.42435640035E+02  0.17358772306E+03  0.20195170295E+03  0.93204110430E+02 0.  0.
         23    2    1    2    0    0  0.19271792962E+02 -0.44160987113E+02 -0.26859509983E+03  0.28769421303E+03  0.91121006200E+02 0.  0.
        -11    1    4    4    0    0  0.85596666263E+01  0.18872443300E+02 -0.13556179697E+02  0.24763017119E+02  0.00000000000E+00 0.  1.
         11    1    4    4    0    0  0.10712126336E+02 -0.63033430412E+02 -0.25503892013E+03  0.26293119591E+03  0.00000000000E+00 0. -1.
        -13    1    3    3    0    0 -0.47104562345E+02  0.29270635618E+02  0.56227129803E+02  0.78975312782E+02  0.00000000000E+00 0.  1.
         13    1    3    3    0    0  0.34298197449E+02  0.13165004418E+02  0.11736059326E+03  0.12297639017E+03  0.00000000000E+00 0. -1.
         21    1    1    2  502  503  0.16080021952E+02 -0.17348849705E+02 -0.91561651355E+02  0.94567889322E+02  0.00000000000E+00 0. -1.
         21    1    1    2  503  501 -0.22545450019E+02  0.19074196783E+02  0.35201320794E+02  0.45948398069E+02  0.00000000000E+00 0.  1.
<scales pt_clust_5="13000.00000" pt_clust_6="13000.00000" pt_clust_7="13000.00000" pt_clust_8="13000.00000" pt_clust_9="23.65480" pt_clust_10="29.10792"></scales>
<clustering>
<clus scale="   23.655">  2  9  1 -1</clus>
<clus scale="   29.108">  1 10  2 -1</clus>
<clus scale="   91.121">  5  6 -1 -1</clus>
<clus scale="   93.204">  7  8 -1 -1</clus>
<clus scale="  113.444">  2  5  1 -1</clus>
<clus scale="   23.655">  2  5  1 -1</clus>
</clustering>
</event>
<event>
10    2  0.1898324E-006  0.9411638E+02  0.7546771E-02  0.1293677E+00
          1   -1    0    0  502    0  0.00000000000E+00  0.00000000000E+00  0.86358318555E+02  0.86358318555E+02  0.00000000000E+00 0. -1.
         -1   -1    0    0    0  501 -0.00000000000E+00 -0.00000000000E+00 -0.33698037414E+03  0.33698037414E+03  0.00000000000E+00 0.  1.
         23    2    1    2    0    0 -0.34083594162E+02 -0.48982169999E+01 -0.85305586224E+02  0.12665385719E+03  0.87054423096E+02 0.  0.
         23    2    1    2    0    0  0.12580623436E+02 -0.19464643232E+02  0.93183875225E+00  0.90990580796E+02  0.87984504590E+02 0.  0.
        -11    1    4    4    0    0  0.27133735633E+02  0.22617800686E+02  0.22120170343E+02  0.41678609061E+02  0.00000000000E+00 0.  1.
         11    1    4    4    0    0 -0.14553112197E+02 -0.42082443918E+02 -0.21188331591E+02  0.49311971735E+02  0.00000000000E+00 0. -1.
        -13    1    3    3    0    0 -0.18970744036E+02 -0.39376662141E+02 -0.76322197972E+02  0.87951626215E+02  0.00000000000E+00 0. -1.
         13    1    3    3    0    0 -0.15112850126E+02  0.34478445141E+02 -0.89833882518E+01  0.38702230979E+02  0.00000000000E+00 0.  1.
         21    1    1    2  502  503  0.30295259085E+02 -0.17374931043E+02 -0.90284538485E+00  0.34935742179E+02  0.00000000000E+00 0. -1.
         21    1    1    2  503  501 -0.87922883595E+01  0.41737791275E+02 -0.16534546273E+03  0.17075851252E+03  0.00000000000E+00 0.  1.
<scales pt_clust_5="13000.00000" pt_clust_6="13000.00000" pt_clust_7="13000.00000" pt_clust_8="13000.00000" pt_clust_9="34.92407" pt_clust_10="41.75885"></scales>
<clustering>
<clus scale="   34.924">  1  9  2 -1</clus>
<clus scale="   41.759">  2 10  1 -1</clus>
<clus scale="   87.054">  7  8 -1 -1</clus>
<clus scale="   87.985">  5  6 -1 -1</clus>
<clus scale="   93.247">  2  7  1 -1</clus>
<clus scale="   34.924">  1  5  2 -1</clus>
</clustering>
</event>
<event>
10    2  0.1898324E-006  0.9657568E+02  0.7546771E-02  0.1287965E+00
         -3   -1    0    0    0  501 -0.00000000000E+00  0.00000000000E+00  0.10172590604E+03  0.10172590604E+03  0.00000000000E+00 0.  1.
          3   -1    0    0  502    0  0.00000000000E+00 -0.00000000000E+00 -0.18912046711E+03  0.18912046711E+03  0.00000000000E+00 0. -1.
         23    2    1    2    0    0  0.16643649307E+02 -0.25268597241E+02 -0.23174650646E+02  0.98810605558E+02  0.91164457271E+02 0.  0.
         23    2    1    2    0    0 -0.22321572647E+02  0.24159310191E+02 -0.76503743428E+02  0.12305120492E+03  0.90591674005E+02 0.  0.
        -11    1    3    3    0    0  0.48622927735E+02 -0.28331197855E+02  0.44372610243E+01  0.56449403529E+02  0.00000000000E+00 0.  1.
         11    1    3    3    0    0 -0.31979278427E+02  0.30626006141E+01 -0.27611911670E+02  0.42361202029E+02  0.00000000000E+00 0. -1.
        -13    1    4    4    0    0 -0.41367071977E+02  0.32432086158E+02 -0.10165216214E+02  0.53538831489E+02  0.00000000000E+00 0. -1.
         13    1    4    4    0    0  0.19045499330E+02 -0.82727759668E+01 -0.66338527214E+02  0.69512373430E+02  0.00000000000E+00 0.  1.
         21    1    1    2  502  503 -0.16870881237E+02 -0.15039153551E+02 -0.17278262517E+02  0.28448921400E+02  0.00000000000E+00 0.  1.
         21    1    1    2  503  501  0.22548804577E+02  0.16148440601E+02  0.29562095522E+02  0.40535641272E+02  0.00000000000E+00 0.  1.
<scales pt_clust_5="13000.00000" pt_clust_6="13000.00000" pt_clust_7="13000.00000" pt_clust_8="13000.00000" pt_clust_9="22.60095" pt_clust_10="26.99331"></scales>
<clustering>
<clus scale="   22.601">  2  9  1 -1</clus>
<clus scale="   26.993">  1 10  2 -1</clus>
<clus scale="   90.592">  7  8 -1 -1</clus>
<clus scale="   91.164">  5  6 -1 -1</clus>
<clus scale="   96.035">  2  7  1 -1</clus>
<clus scale="   22.601">  2  5  1 -1</clus>
</clustering>
</event>
<event>
10    2  0.1898324E-006  0.1280628E+03  0.7546771E-02  0.1231964E+00
         -3   -1    0    0    0  501 -0.00000000000E+00  0.00000000000E+00  0.57284119994E+03  0.57284119994E+03  0.00000000000E+00 0.  1.
          3   -1    0    0  502    0  0.00000000000E+00 -0.00000000000E+00 -0.25491937265E+03  0.25491937265E+03  0.00000000000E+00 0. -1.
         23    2    1    2    0    0  0.56498590920E+02 -0.41481452476E+02  0.17242651532E+02  0.11509482108E+03  0.89647683357E+02 0.  0.
         23    2    1    2    0    0 -0.99057014174E+02  0.22816032481E+02 -0.82776091378E+02  0.15547239892E+03  0.83587810883E+02 0.  0.
        -13    1    3    3    0    0  0.79825828926E+01 -0.57765589403E+02 -0.65071714920E+01  0.58676470834E+02  0.00000000000E+00 0. -1.
         13    1    3    3    0    0  0.48516008027E+02  0.16284136927E+02  0.23749823024E+02  0.56418350242E+02  0.00000000000E+00 0.  1.
        -13    1    4    4    0    0 -0.88962806096E+02 -0.16934934973E+02 -0.55384875258E+02  0.10615393209E+03  0.00000000000E+00 0. -1.
         13    1    4    4    0    0 -0.10094208078E+02  0.39750967454E+02 -0.27391216120E+02  0.49318466833E+02  0.00000000000E+00 0.  1.
         21    1    1    2  502  503 -0.16712150371E+02 -0.14484754098E+02 -0.82961407295E+02  0.85858599871E+02  0.00000000000E+00 0. -1.
         21    1    1    2  503  501  0.59270573625E+02  0.33150174093E+02  0.46641667443E+03  0.47133475273E+03  0.00000000000E+00 0.  1.
<scales pt_clust_5="13000.00000" pt_clust_6="13000.00000" pt_clust_7="13000.00000" pt_clust_8="13000.00000" pt_clust_9="22.11570" pt_clust_10="67.59894"></scales>
<clustering>
<clus scale="   22.116">  2  9  1 -1</clus>
<clus scale="   67.599">  1 10  2 -1</clus>
<clus scale="   83.588">  7  8 -1 -1</clus>
<clus scale="   89.648">  5  6 -1 -1</clus>
<clus scale="  123.896">  2  7  1 -1</clus>
<clus scale="   22.116">  2  5  1 -1</clus>
</clustering>
</event>
<event>
10    2  0.1898324E-006  0.2488611E+03  0.7546771E-02  0.1114089E+00
          1   -1    0    0  502    0  0.00000000000E+00  0.00000000000E+00  0.63509255392E+03  0.63509255392E+03  0.00000000000E+00 0. -1.
         -1   -1    0    0    0  501 -0.00000000000E+00 -0.00000000000E+00 -0.19160457565E+03  0.19160457565E+03  0.00000000000E+00 0.  1.
         23    2    1    2    0    0  0.13912359139E+03  0.22899213926E+03  0.90380607961E+02  0.29695643217E+03  0.90673561688E+02 0.  0.
         23    2    1    2    0    0 -0.10889229337E+03 -0.16876495070E+03  0.14896344448E+03  0.26635415654E+03  0.91734883076E+02 0.  0.
        -11    1    3    3    0    0  0.77532149275E+02  0.12677496020E+03  0.22817207015E+01  0.14862143504E+03  0.00000000000E+00 0.  1.
         11    1    3    3    0    0  0.61591442111E+02  0.10221717906E+03  0.88098887260E+02  0.14833499712E+03  0.00000000000E+00 0. -1.
        -13    1    4    4    0    0 -0.55027085310E+02 -0.59567083994E+02  0.11357603257E+03  0.13955548283E+03  0.00000000000E+00 0. -1.
         13    1    4    4    0    0 -0.53865208057E+02 -0.10919786671E+03  0.35387411912E+02  0.12679867371E+03  0.00000000000E+00 0.  1.
         21    1    1    2  502  503 -0.54481260776E+02  0.39055854042E+00  0.18854719232E+03  0.19626106095E+03  0.00000000000E+00 0. -1.
         21    1    1    2  503  501  0.24249962757E+02 -0.60617747096E+02  0.15596733505E+02  0.67125479907E+02  0.00000000000E+00 0.  1.
<scales pt_clust_5="13000.00000" pt_clust_6="13000.00000" pt_clust_7="13000.00000" pt_clust_8="13000.00000" pt_clust_9="54.48266" pt_clust_10="63.53883"></scales>
<clustering>
<clus scale="   54.483">  1  9  2 -1</clus>
<clus scale="   63.539">  2 10  1 -1</clus>
<clus scale="   90.674">  5  6 -1 -1</clus>
<clus scale="   91.735">  7  8 -1 -1</clus>
<clus scale="  248.472">  2  5  1 -1</clus>
<clus scale="   54.483">  1  5  2 -1</clus>
</clustering>
</event>
<event>
10    2  0.1898324E-006  0.2216155E+03  0.7546771E-02  0.1139168E+00
          2   -1    0    0  502    0  0.00000000000E+00  0.00000000000E+00  0.50774078889E+03  0.50774078889E+03  0.00000000000E+00 0. -1.
         -2   -1    0    0    0  501 -0.00000000000E+00 -0.00000000000E+00 -0.47402256661E+03  0.47402256661E+03  0.00000000000E+00 0.  1.
         23    2    1    2    0    0  0.56999729734E+02 -0.20395518265E+03 -0.14789829506E+03  0.27544799597E+03  0.95660896315E+02 0.  0.
         23    2    1    2    0    0  0.11865767003E+03  0.11985968393E+03  0.25138210441E+03  0.31588308461E+03  0.90239538088E+02 0.  0.
        -11    1    4    4    0    0  0.15927188232E+02 -0.14286134232E+02  0.19327940633E+02  0.28832936815E+02  0.00000000000E+00 0.  1.
         11    1    4    4    0    0  0.10273048180E+03  0.13414581817E+03  0.23205416378E+03  0.28705014779E+03  0.00000000000E+00 0. -1.
        -13    1    3    3    0    0  0.66797717124E+02 -0.16573286300E+03 -0.15353496517E+03  0.23558926635E+03  0.00000000000E+00 0.  1.
         13    1    3    3    0    0 -0.97979873905E+01 -0.38222319651E+02  0.56366701190E+01  0.39858729614E+02  0.00000000000E+00 0. -1.
         21    1    1    2  502  503 -0.16443342893E+03  0.10252067651E+03  0.10085683877E+03  0.21845123847E+03  0.00000000000E+00 0. -1.
         21    1    1    2  503  501 -0.11223970839E+02 -0.18425177795E+02 -0.17062242585E+03  0.17198103645E+03  0.00000000000E+00 0.  1.
<scales pt_clust_5="13000.00000" pt_clust_6="13000.00000" pt_clust_7="13000.00000" pt_clust_8="13000.00000" pt_clust_9="199.90601" pt_clust_10="21.57463"></scales>
<clustering>
<clus scale="   21.575">  2 10  1 -1</clus>
<clus scale="   90.240">  5  6 -1 -1</clus>
<clus scale="   95.661">  7  8 -1 -1</clus>
<clus scale="  189.315">  1  5  2 -1</clus>
<clus scale="  199.906">  1  9  2 -1</clus>
<clus scale="  189.315">  1  5  2 -1</clus>
</clustering>
</event>
<event>
10    2  0.1898324E-006  0.1254082E+03  0.7546771E-02  0.1234433E+00
          1   -1    0    0  502    0  0.00000000000E+00  0.00000000000E+00  0.37589269079E+03  0.37589269079E+03  0.00000000000E+00 0. -1.
         -1   -1    0    0    0  501 -0.00000000000E+00 -0.00000000000E+00 -0.99634928875E+02  0.99634928875E+02  0.00000000000E+00 0.  1.
         23    2    1    2    0    0  0.60376878220E+02 -0.42071342761E+01  0.40891538321E+02  0.11894691654E+03  0.93878557960E+02 0.  0.
         23    2    1    2    0    0 -0.11901158907E+03 -0.35156748423E+02  0.86403404078E+02  0.17798381551E+03  0.93877233952E+02 0.  0.
        -11    1    4    4    0    0 -0.15128523185E+02 -0.21903123290E+02 -0.16372597199E+02  0.31251895345E+02  0.00000000000E+00 0.  1.
         11    1    4    4    0    0 -0.10388306588E+03 -0.13253625134E+02  0.10277600128E+03  0.14673192016E+03  0.00000000000E+00 0. -1.
        -13    1    3    3    0    0 -0.15474729364E+02 -0.27068882980E+02  0.19906383179E+02  0.36992644755E+02  0.00000000000E+00 0. -1.
         13    1    3    3    0    0  0.75851607584E+02  0.22861748704E+02  0.20985155142E+02  0.81954271781E+02  0.00000000000E+00 0.  1.
         21    1    1    2  502  503  0.36130215926E+02 -0.15188134832E+01  0.11588341279E+03  0.12139466487E+03  0.00000000000E+00 0. -1.
         21    1    1    2  503  501  0.22504494923E+02  0.40882696182E+02  0.33079406721E+02  0.57202222753E+02  0.00000000000E+00 0.  1.
<scales pt_clust_5="13000.00000" pt_clust_6="13000.00000" pt_clust_7="13000.00000" pt_clust_8="13000.00000" pt_clust_9="36.16213" pt_clust_10="49.81637"></scales>
<clustering>
<clus scale="   36.162">  1  9  2 -1</clus>
<clus scale="   49.816">  1 10  2 -1</clus>
<clus scale="   93.877">  5  6 -1 -1</clus>
<clus scale="   93.879">  7  8 -1 -1</clus>
<clus scale="  125.407">  1  5  2 -1</clus>
<clus scale="   36.162">  1  5  2 -1</clus>
</clustering>
</event>
<event>
10    2  0.1898324E-006  0.1139015E+03  0.7546771E-02  0.1253700E+00
         -1   -1    0    0    0  501 -0.00000000000E+00  0.00000000000E+00  0.20841363807E+03  0.20841363807E+03  0.00000000000E+00 0.  1.
          1   -1    0    0  502    0  0.00000000000E+00 -0.00000000000E+00 -0.50585181216E+03  0.50585181216E+03  0.00000000000E+00 0. -1.
         23    2    1    2    0    0  0.88543683267E+01  0.76890721669E+02  0.74888348163E+02  0.14166823778E+03  0.92038263710E+02 0.  0.
         23    2    1    2    0    0 -0.55336506000E+01 -0.13779641881E+03 -0.13701215834E+03  0.21485918502E+03  0.91507723873E+02 0.  0.
        -11    1    4    4    0    0  0.20936323360E+02 -0.13505082911E+02  0.37783457052E+01  0.25199063406E+02  0.00000000000E+00 0. -1.
         11    1    4    4    0    0 -0.26469973960E+02 -0.12429133590E+03 -0.14079050405E+03  0.18966012162E+03  0.00000000000E+00 0.  1.
        -11    1    3    3    0    0  0.39063291607E+02  0.35914113155E+01  0.13807532087E+02  0.41587100509E+02  0.00000000000E+00 0.  1.
         11    1    3    3    0    0 -0.30208923281E+02  0.73299310353E+02  0.61080816076E+02  0.10008113727E+03  0.00000000000E+00 0. -1.
         21    1    1    2  502  503  0.83740481715E+01  0.93902227659E+02 -0.28316640098E+03  0.29844758952E+03  0.00000000000E+00 0. -1.
         21    1    1    2  503  501 -0.11694765898E+02 -0.32996530514E+02  0.47852037079E+02  0.59290437913E+02  0.00000000000E+00 0. -1.
<scales pt_clust_5="13000.00000" pt_clust_6="13000.00000" pt_clust_7="13000.00000" pt_clust_8="13000.00000" pt_clust_9="92.60286" pt_clust_10="35.00769"></scales>
<clustering>
<clus scale="   35.008">  1 10  2 -1</clus>
<clus scale="   91.508">  5  6 -1 -1</clus>
<clus scale="   92.038">  7  8 -1 -1</clus>
<clus scale="   92.603">  2  9  1 -1</clus>
<clus scale="  113.473">  2  5  1 -1</clus>
<clus scale="   92.603">  2  5  1 -1</clus>
</clustering>
</event>
<event>
10    2  0.1898324E-006  0.1912113E+03  0.7546771E-02  0.1157766E+00
          1   -1    0    0  502    0  0.00000000000E+00  0.00000000000E+00  0.40543612830E+03  0.40543612830E+03  0.00000000000E+00 0. -1.
         -1   -1    0    0    0  501 -0.00000000000E+00 -0.00000000000E+00 -0.16378929011E+03  0.16378929011E+03  0.00000000000E+00 0.  1.
         23    2    1    2    0    0 -0.11683085778E+03  0.73975587779E+02  0.45816110667E+02  0.17223047755E+03  0.91882449259E+02 0.  0.
         23    2    1    2    0    0  0.15655237239E+03 -0.11426206661E+03  0.16297626419E+03  0.26814805565E+03  0.88190996652E+02 0.  0.
        -11    1    4    4    0    0  0.40376824776E+02 -0.46689274239E+01  0.76256754931E+02  0.86412843576E+02  0.00000000000E+00 0. -1.
         11    1    4    4    0    0  0.11617554762E+03 -0.10959313919E+03  0.86719509263E+02  0.18173521208E+03  0.00000000000E+00 0.  1.
        -13    1    3    3    0    0 -0.23433711217E+02 -0.21242042376E+02  0.14263830772E+01  0.31660665729E+02  0.00000000000E+00 0.  1.
         13    1    3    3    0    0 -0.93397146568E+02  0.95217630155E+02  0.44389727589E+02  0.14056981182E+03  0.00000000000E+00 0. -1.
         21    1    1    2  502  503  0.11554051388E+02  0.29078326799E+02  0.61536714676E+02  0.69034863989E+02  0.00000000000E+00 0. -1.
         21    1    1    2  503  501 -0.51275565998E+02  0.11208152032E+02 -0.28682251341E+02  0.59812021220E+02  0.00000000000E+00 0. -1.
<scales pt_clust_5="13000.00000" pt_clust_6="13000.00000" pt_clust_7="13000.00000" pt_clust_8="13000.00000" pt_clust_9="31.28970" pt_clust_10="52.27298"></scales>
<clustering>
<clus scale="   31.290">  1  9  2 -1</clus>
<clus scale="   52.273">  2 10  1 -1</clus>
<clus scale="   88.191">  5  6 -1 -1</clus>
<clus scale="   91.882">  7  8 -1 -1</clus>
<clus scale="  189.465">  1  5  2 -1</clus>
<clus scale="   31.290">  1  5  2 -1</clus>
</clustering>
</event>
<event>
10    2  0.1898324E-006  0.1134527E+03  0.7546771E-02  0.1258036E+00
          1   -1    0    0  502    0  0.00000000000E+00  0.00000000000E+00  0.22744900497E+03  0.22744900497E+03  0.00000000000E+00 0. -1.
         -1   -1    0    0    0  501 -0.00000000000E+00 -0.00000000000E+00 -0.12787830755E+03  0.12787830755E+03  0.00000000000E+00 0.  1.
         23    2    1    2    0    0  0.39597907310E+02  0.32169817809E+02 -0.22707967294E+02  0.10748720312E+03  0.91842014434E+02 0.  0.
         23    2    1    2    0    0 -0.22879060546E+02 -0.57763985352E+02  0.98160997231E+02  0.14200361877E+03  0.81665886100E+02 0.  0.
        -11    1    4    4    0    0  0.23513868398E+02 -0.65061641573E+00  0.63879138567E+01  0.24374797480E+02  0.00000000000E+00 0.  1.
         11    1    4    4    0    0 -0.46392928943E+02 -0.57113368936E+02  0.91773083374E+02  0.11762882129E+03  0.00000000000E+00 0. -1.
        -11    1    3    3    0    0  0.33935691857E+02  0.12955574545E+02  0.32510049596E+02  0.48748142717E+02  0.00000000000E+00 0. -1.
         11    1    3    3    0    0  0.56622154531E+01  0.19214243263E+02 -0.55218016890E+02  0.58739060406E+02  0.00000000000E+00 0.  1.
         21    1    1    2  502  503 -0.19776247461E+02 -0.16130723682E+02  0.50355216119E+02  0.56453060152E+02  0.00000000000E+00 0. -1.
         21    1    1    2  503  501  0.30574006974E+01  0.41724891225E+02 -0.26237548629E+02  0.49383430468E+02  0.00000000000E+00 0.  1.
<scales pt_clust_5="13000.00000" pt_clust_6="13000.00000" pt_clust_7="13000.00000" pt_clust_8="13000.00000" pt_clust_9="25.52058" pt_clust_10="40.68962"></scales>
<clustering>
<clus scale="   25.521">  1  9  2 -1</clus>
<clus scale="   40.690">  2 10  1 -1</clus>
<clus scale="   81.666">  5  6 -1 -1</clus>
<clus scale="   91.842">  7  8 -1 -1</clus>
<clus scale="  105.384">  1  5  2 -1</clus>
<clus scale="   25.521">  1  5  2 -1</clus>
</clustering>
</event>
<event>
10    2  0.1898324E-006  0.4131658E+03  0.7546771E-02  0.1039476E+00
          1   -1    0    0  502    0  0.00000000000E+00  0.00000000000E+00  0.13599308359E+04  0.13599308359E+04  0.00000000000E+00 0. -1.
         -1   -1    0    0    0  501 -0.00000000000E+00 -0.00000000000E+00 -0.62114689122E+03  0.62114689122E+03  0.00000000000E+00 0.  1.
         23    2    1    2    0    0 -0.64309365969E+02  0.44484846350E+03 -0.32767406826E+03  0.56364135750E+03  0.91079277808E+02 0.  0.
         23    2    1    2    0    0 -0.19524428133E+03 -0.28772039261E+03  0.19650318776E+03  0.41160209012E+03  0.99495849550E+02 0.  0.
        -11    1    4    4    0    0 -0.13417079376E+03 -0.12234421552E+03  0.69930277136E+02  0.19457685533E+03  0.00000000000E+00 0. -1.
         11    1    4    4    0    0 -0.61073487563E+02 -0.16537617709E+03  0.12657291062E+03  0.21702523479E+03  0.00000000000E+00 0.  1.
        -13    1    3    3    0    0  0.21451146367E+02  0.48787645165E+02 -0.34896616734E+02  0.63703687968E+02  0.00000000000E+00 0. -1.
         13    1    3    3    0    0 -0.85760512336E+02  0.39606081833E+03 -0.29277745153E+03  0.49993766953E+03  0.00000000000E+00 0.  1.
         21    1    1    2  502  503  0.11254027542E+03 -0.10236443840E+03  0.83015923106E+03  0.84398349554E+03  0.00000000000E+00 0. -1.
         21    1    1    2  503  501  0.14701337188E+03 -0.54763632491E+02  0.39795594114E+02  0.16185078395E+03  0.00000000000E+00 0. -1.
<scales pt_clust_5="13000.00000" pt_clust_6="13000.00000" pt_clust_7="13000.00000" pt_clust_8="13000.00000" pt_clust_9="152.13084" pt_clust_10="184.43221"></scales>
<clustering>
<clus scale="   91.079">  7  8 -1 -1</clus>
<clus scale="   99.496">  5  6 -1 -1</clus>
<clus scale="  152.131">  1  9  2 -1</clus>
<clus scale="  184.432">  1 10  2 -1</clus>
<clus scale="  411.220">  2  7  1 -1</clus>
<clus scale="  152.131">  1  5  2 -1</clus>
</clustering>
</event>
<event>
10    2  0.1898324E-006  0.1908008E+03  0.7546771E-02  0.1157880E+00
         -2   -1    0    0    0  501 -0.00000000000E+00  0.00000000000E+00  0.71559275045E+02  0.71559275045E+02  0.00000000000E+00 0.  1.
          2   -1    0    0  502    0  0.00000000000E+00 -0.00000000000E+00 -0.92628315902E+03  0.92628315902E+03  0.00000000000E+00 0. -1.
         23    2    1    2    0    0 -0.12674783602E+03  0.82931391001E+02 -0.12319027952E+03  0.21530514451E+03  0.90762496305E+02 0.  0.
         23    2    1    2    0    0  0.16040195279E+03 -0.96035660316E+02 -0.49630434766E+03  0.53783991813E+03  0.89454667362E+02 0.  0.
        -11    1    4    4    0    0  0.14261789246E+03 -0.83849655015E+02 -0.48704547645E+03  0.51437721958E+03  0.00000000000E+00 0. -1.
         11    1    4    4    0    0  0.17784060328E+02 -0.12186005302E+02 -0.92588712160E+01  0.23462698548E+02  0.00000000000E+00 0.  1.
        -13    1    3    3    0    0 -0.50114574252E+02 -0.10633689567E+02 -0.59844522543E+02  0.78777616013E+02  0.00000000000E+00 0. -1.
         13    1    3    3    0    0 -0.76633261771E+02  0.93565080567E+02 -0.63345756977E+02  0.13652752850E+03  0.00000000000E+00 0.  1.
         21    1    1    2  502  503 -0.27985166226E+02 -0.63274265252E+01 -0.21180276926E+03  0.21373726610E+03  0.00000000000E+00 0.  1.
         21    1    1    2  503  501 -0.56689505359E+01  0.19431695841E+02 -0.23426487537E+02  0.30960105325E+02  0.00000000000E+00 0. -1.
<scales pt_clust_5="13000.00000" pt_clust_6="13000.00000" pt_clust_7="13000.00000" pt_clust_8="13000.00000" pt_clust_9="28.71076" pt_clust_10="20.24173"></scales>
<clustering>
<clus scale="   20.242">  1 10  2 -1</clus>
<clus scale="   28.711">  2  9  1 -1</clus>
<clus scale="   89.455">  5  6 -1 -1</clus>
<clus scale="   90.762">  7  8 -1 -1</clus>
<clus scale="  190.182">  2  5  1 -1</clus>
<clus scale="   28.711">  2  5  1 -1</clus>
</clustering>
</event>
<event>
10    2  0.1898324E-006  0.9856252E+02  0.7546771E-02  0.1283468E+00
         -1   -1    0    0    0  501 -0.00000000000E+00  0.00000000000E+00  0.23295732432E+03  0.23295732432E+03  0.00000000000E+00 0.  1.
          1   -1    0    0  502    0  0.00000000000E+00 -0.00000000000E+00 -0.13595416338E+03  0.13595416338E+03  0.00000000000E+00 0. -1.
         23    2    1    2    0    0  0.31737230362E+02 -0.15818924092E+01  0.12678935119E+03  0.16169459276E+03  0.95183231609E+02 0.  0.
         23    2    1    2    0    0 -0.22037387812E+02 -0.86093417389E+01  0.34466335938E+02  0.10374711104E+03  0.94951395506E+02 0.  0.
        -11    1    3    3    0    0  0.62461079064E+02 -0.10479750057E+02  0.58203218613E+02  0.86016429919E+02  0.00000000000E+00 0. -1.
         11    1    3    3    0    0 -0.30723848702E+02  0.88978576478E+01  0.68586132576E+02  0.75678162844E+02  0.00000000000E+00 0.  1.
        -13    1    4    4    0    0  0.10562204481E+02 -0.42426990586E+02  0.36170404578E+02  0.56744231963E+02  0.00000000000E+00 0. -1.
         13    1    4    4    0    0 -0.32599592293E+02  0.33817648847E+02 -0.17040686406E+01  0.47002879073E+02  0.00000000000E+00 0.  1.
         21    1    1    2  502  503 -0.12067708272E+00  0.31516609964E+02 -0.72198920777E+02  0.78778140547E+02  0.00000000000E+00 0. -1.
         21    1    1    2  503  501 -0.95791654669E+01 -0.21325375815E+02  0.79463945928E+01  0.24691643358E+02  0.00000000000E+00 0.  1.
<scales pt_clust_5="13000.00000" pt_clust_6="13000.00000" pt_clust_7="13000.00000" pt_clust_8="13000.00000" pt_clust_9="31.19392" pt_clust_10="23.37803"></scales>
<clustering>
<clus scale="   23.378">  1 10  2 -1</clus>
<clus scale="   31.194">  2  9  1 -1</clus>
<clus scale="   94.951">  7  8 -1 -1</clus>
<clus scale="   95.183">  5  6 -1 -1</clus>
<clus scale="   98.339">  2  7  1 -1</clus>
<clus scale="   31.194">  2  5  1 -1</clus>
</clustering>
</event>
<event>
10    2  0.1898324E-006  0.9930133E+02  0.7546771E-02  0.1286537E+00
         -1   -1    0    0    0  501 -0.00000000000E+00  0.00000000000E+00  0.82854543251E+02  0.82854543251E+02  0.00000000000E+00 0.  1.
          1   -1    0    0  502    0  0.00000000000E+00 -0.00000000000E+00 -0.21365636645E+03  0.21365636645E+03  0.00000000000E+00 0. -1.
         23    2    1    2    0    0  0.31844272001E+02 -0.52665975830E+01 -0.28170581985E+02  0.10803252189E+03  0.99174842511E+02 0.  0.
         23    2    1    2    0    0  0.19841898256E+02  0.90623040923E+00 -0.58692003298E+02  0.10976962193E+03  0.90609582653E+02 0.  0.
        -11    1    3    3    0    0 -0.13065227880E+02  0.32769789472E+02  0.11445391874E+02  0.37088492511E+02  0.00000000000E+00 0.  1.
         11    1    3    3    0    0  0.44909499881E+02 -0.38036387055E+02 -0.39615973859E+02  0.70944029379E+02  0.00000000000E+00 0. -1.
        -13    1    4    4    0    0 -0.18106003547E+02 -0.25881868600E+02  0.38983991038E+01  0.31826027120E+02  0.00000000000E+00 0.  1.
         13    1    4    4    0    0  0.37947901803E+02  0.26788099009E+02 -0.62590402402E+02  0.77943594815E+02  0.00000000000E+00 0. -1.
         21    1    1    2  502  503 -0.25078655466E+02 -0.22669125837E+01 -0.44670073511E+02  0.51278585395E+02  0.00000000000E+00 0. -1.
         21    1    1    2  503  501 -0.26607514791E+02  0.66272797575E+01  0.73083560065E+00  0.27430180477E+02  0.00000000000E+00 0.  1.
<scales pt_clust_5="13000.00000" pt_clust_6="13000.00000" pt_clust_7="13000.00000" pt_clust_8="13000.00000" pt_clust_9="25.18090" pt_clust_10="29.34463"></scales>
<clustering>
<clus scale="   25.181">  2  9  1 -1</clus>
<clus scale="   29.345">  1 10  2 -1</clus>
<clus scale="   90.610">  7  8 -1 -1</clus>
<clus scale="   90.748">  2  7  1 -1</clus>
<clus scale="   99.175">  5  6 -1 -1</clus>
<clus scale="   25.181">  2  5  1 -1</clus>
</clustering>
</event>
<event>
10    2  0.1898324E-006  0.9440919E+02  0.7546771E-02  0.1292963E+00
          4   -1    0    0  502    0  0.00000000000E+00  0.00000000000E+00  0.10600765273E+03  0.10600765273E+03  0.00000000000E+00 0. -1.
         -4   -1    0    0    0  501 -0.00000000000E+00 -0.00000000000E+00 -0.18724379766E+03  0.18724379766E+03  0.00000000000E+00 0.  1.
         23    2    1    2    0    0 -0.22171507547E+02  0.19362358017E+02 -0.33556544395E+02  0.10155642123E+03  0.91220547943E+02 0.  0.
         23    2    1    2    0    0  0.27689451538E+02  0.22577682281E+02 -0.36414025317E+02  0.10380319428E+03  0.90402789996E+02 0.  0.
        -13    1    4    4    0    0  0.18375287353E+02 -0.95456903879E+01  0.25852186047E+02  0.33122604271E+02  0.00000000000E+00 0.  1.
         13    1    4    4    0    0  0.93141641852E+01  0.32123372669E+02 -0.62266211365E+02  0.70680590007E+02  0.00000000000E+00 0. -1.
        -13    1    3    3    0    0 -0.43911511163E+02  0.22984169002E+02 -0.52713561436E+02  0.72354767615E+02  0.00000000000E+00 0.  1.
         13    1    3    3    0    0  0.21740003617E+02 -0.36218109850E+01  0.19157017041E+02  0.29201653617E+02  0.00000000000E+00 0. -1.
         21    1    1    2  502  503 -0.38894109523E+02 -0.29142719282E+02  0.45306680997E+01  0.48811646112E+02  0.00000000000E+00 0.  1.
         21    1    1    2  503  501  0.33376165532E+02 -0.12797321016E+02 -0.15796243322E+02  0.39080188765E+02  0.00000000000E+00 0.  1.
<scales pt_clust_5="13000.00000" pt_clust_6="13000.00000" pt_clust_7="13000.00000" pt_clust_8="13000.00000" pt_clust_9="46.15423" pt_clust_10="35.74549"></scales>
<clustering>
<clus scale="   35.745">  2 10  1 -1</clus>
<clus scale="   46.154">  1  9  2 -1</clus>
<clus scale="   90.403">  5  6 -1 -1</clus>
<clus scale="   91.221">  7  8 -1 -1</clus>
<clus scale="   93.619">  1  5  2 -1</clus>
<clus scale="   46.154">  1  5  2 -1</clus>
</clustering>
</event>
<event>
10    2  0.1898324E-006  0.1022724E+03  0.7546771E-02  0.1276079E+00
          1   -1    0    0  502    0  0.00000000000E+00  0.00000000000E+00  0.31885285970E+03  0.31885285970E+03  0.00000000000E+00 0. -1.
         -1   -1    0    0    0  501 -0.00000000000E+00 -0.00000000000E+00 -0.44684489858E+03  0.44684489858E+03  0.00000000000E+00 0.  1.
         23    2    1    2    0    0 -0.75113973209E+02 -0.18977630123E+02 -0.35409495516E+03  0.37365034121E+03  0.90714281129E+02 0.  0.
         23    2    1    2    0    0  0.53438175798E+02 -0.14916626001E+02  0.10363521503E+03  0.14913768970E+03  0.91780435454E+02 0.  0.
        -11    1    3    3    0    0 -0.74386015493E+02 -0.45139963648E+02 -0.31349136230E+03  0.32534248087E+03  0.00000000000E+00 0.  1.
         11    1    3    3    0    0 -0.72795771525E+00  0.26162333525E+02 -0.40603592856E+02  0.48307860341E+02  0.00000000000E+00 0. -1.
        -13    1    4    4    0    0 -0.12080956469E+02 -0.36321122173E+02  0.35015382736E+02  0.51877263356E+02  0.00000000000E+00 0.  1.
         13    1    4    4    0    0  0.65519132268E+02  0.21404496172E+02  0.68619832293E+02  0.97260426348E+02  0.00000000000E+00 0. -1.
         21    1    1    2  502  503 -0.18495862895E+02 -0.97669210112E+01  0.16726448630E+03  0.16856719155E+03  0.00000000000E+00 0. -1.
         21    1    1    2  503  501  0.40171660305E+02  0.43661177135E+02 -0.44796785051E+02  0.74342535815E+02  0.00000000000E+00 0. -1.
<scales pt_clust_5="13000.00000" pt_clust_6="13000.00000" pt_clust_7="13000.00000" pt_clust_8="13000.00000" pt_clust_9="20.91625" pt_clust_10="57.40500"></scales>
<clustering>
<clus scale="   20.916">  1  9  2 -1</clus>
<clus scale="   57.405">  2 10  1 -1</clus>
<clus scale="   90.714">  5  6 -1 -1</clus>
<clus scale="   91.780">  7  8 -1 -1</clus>
<clus scale="  101.317">  2  5  1 -1</clus>
<clus scale="   20.916">  1  5  2 -1</clus>
</clustering>
</event>
<event>
10    2  0.1898324E-006  0.1076315E+03  0.7546771E-02  0.1269044E+00
         -2   -1    0    0    0  501 -0.00000000000E+00  0.00000000000E+00  0.73944633041E+02  0.73944633041E+02  0.00000000000E+00 0.  1.
          2   -1    0    0  502    0  0.00000000000E+00 -0.00000000000E+00 -0.52767229960E+03  0.52767229960E+03  0.00000000000E+00 0. -1.
         23    2    1    2    0    0  0.31807728362E+02  0.24431726871E+02 -0.39520774563E+01  0.10279411079E+03  0.94564102259E+02 0.  0.
         23    2    1    2    0    0 -0.17229810666E+02  0.54831088577E+02 -0.23597277518E+03  0.26382953941E+03  0.10305125224E+03 0.  0.
        -11    1    4    4    0    0 -0.46520994761E+02  0.67731445805E+02 -0.19665726525E+03  0.21313336595E+03  0.00000000000E+00 0.  1.
         11    1    4    4    0    0  0.29291184095E+02 -0.12900357228E+02 -0.39315509928E+02  0.50696173457E+02  0.00000000000E+00 0. -1.
        -11    1    3    3    0    0 -0.17704537767E+02 -0.19994551986E+02 -0.21170864801E+02  0.34079880914E+02  0.00000000000E+00 0. -1.
         11    1    3    3    0    0  0.49512266129E+02  0.44426278857E+02  0.17218787345E+02  0.68714229879E+02  0.00000000000E+00 0.  1.
         21    1    1    2  502  503  0.91900449414E+01 -0.37287997971E+02 -0.15098052473E+03  0.15578822346E+03  0.00000000000E+00 0. -1.
         21    1    1    2  503  501 -0.23767962637E+02 -0.41974817477E+02 -0.62822289190E+02  0.79205058987E+02  0.00000000000E+00 0. -1.
<scales pt_clust_5="13000.00000" pt_clust_6="13000.00000" pt_clust_7="13000.00000" pt_clust_8="13000.00000" pt_clust_9="38.40380" pt_clust_10="53.76730"></scales>
<clustering>
<clus scale="   38.404">  2  9  1 -1</clus>
<clus scale="   53.767">  2 10  1 -1</clus>
<clus scale="   94.564">  7  8 -1 -1</clus>
<clus scale="   99.536">  1  7  2 -1</clus>
<clus scale="  103.051">  5  6 -1 -1</clus>
<clus scale="   38.404">  2  5  1 -1</clus>
</clustering>
</event>
<event>
10    2  0.1898324E-006  0.1352871E+03  0.7546771E-02  0.1220192E+00
          2   -1    0    0  502    0  0.00000000000E+00  0.00000000000E+00  0.30924399397E+03  0.30924399397E+03  0.00000000000E+00 0. -1.
         -2   -1    0    0    0  501 -0.00000000000E+00 -0.00000000000E+00 -0.17276394740E+03  0.17276394740E+03  0.00000000000E+00 0.  1.
         23    2    1    2    0    0  0.92828472025E+02  0.74051693125E+02 -0.55499143613E+02  0.16326992855E+03  0.97345447522E+02 0.  0.
         23    2    1    2    0    0 -0.73759152863E+02 -0.38321658265E+02  0.16232565402E+03  0.20602723452E+03  0.95857400786E+02 0.  0.
        -11    1    4    4    0    0 -0.39524965252E+02  0.10340366921E+02  0.13407817362E+03  0.14016455582E+03  0.00000000000E+00 0. -1.
         11    1    4    4    0    0 -0.34234187611E+02 -0.48662025186E+02  0.28247480406E+02  0.65862678702E+02  0.00000000000E+00 0.  1.
        -13    1    3    3    0    0  0.54629449029E+02 -0.12092050424E+02 -0.45279541594E+01  0.56134630608E+02  0.00000000000E+00 0. -1.
         13    1    3    3    0    0  0.38199022996E+02  0.86143743548E+02 -0.50971189454E+02  0.10713529794E+03  0.00000000000E+00 0.  1.
         21    1    1    2  502  503  0.76747136897E+01 -0.24415385999E+02  0.63292728433E+02  0.68271383289E+02  0.00000000000E+00 0. -1.
         21    1    1    2  503  501 -0.26744032852E+02 -0.11314648860E+02 -0.33639192274E+02  0.44439395010E+02  0.00000000000E+00 0. -1.
<scales pt_clust_5="13000.00000" pt_clust_6="13000.00000" pt_clust_7="13000.00000" pt_clust_8="13000.00000" pt_clust_9="25.59321" pt_clust_10="29.09874"></scales>
<clustering>
<clus scale="   25.593">  1  9  2 -1</clus>
<clus scale="   29.099">  2 10  1 -1</clus>
<clus scale="   95.857">  5  6 -1 -1</clus>
<clus scale="   97.345">  7  8 -1 -1</clus>
<clus scale="  134.220">  1  5  2 -1</clus>
<clus scale="   25.593">  1  5  2 -1</clus>
</clustering>
</event>
<event>
10    2  0.1898324E-006  0.1203858E+03  0.7546771E-02  0.1255746E+00
         -2   -1    0    0    0  501 -0.00000000000E+00  0.00000000000E+00  0.39114497526E+03  0.39114497526E+03  0.00000000000E+00 0.  1.
          2   -1    0    0  503    0  0.00000000000E+00 -0.00000000000E+00 -0.68498344532E+02  0.68498344532E+02  0.00000000000E+00 0. -1.
         23    2    1    2    0    0 -0.44119121262E+01 -0.32424460150E+02  0.98496813818E+02  0.13497618564E+03  0.86291006333E+02 0.  0.
         23    2    1    2    0    0 -0.76488987151E+02  0.19951304080E+01  0.55311414258E+02  0.13131168494E+03  0.91262590114E+02 0.  0.
        -11    1    3    3    0    0 -0.41105520850E+02 -0.34940038000E+02  0.70391801372E+02  0.88687517725E+02  0.00000000000E+00 0.  1.
         11    1    3    3    0    0  0.36693608724E+02  0.25155778499E+01  0.28105012445E+02  0.46288667918E+02  0.00000000000E+00 0. -1.
        -13    1    4    4    0    0 -0.91134605069E+02 -0.19017237161E+02  0.47615390931E+02  0.10456766710E+03  0.00000000000E+00 0.  1.
         13    1    4    4    0    0  0.14645617917E+02  0.21012367569E+02  0.76960233270E+01  0.26744017837E+02  0.00000000000E+00 0. -1.
         21    1    1    2  502  501  0.59692601394E+02  0.21391970546E+02  0.82853542947E+02  0.10433375601E+03  0.00000000000E+00 0. -1.
         21    1    1    2  503  502  0.21208297884E+02  0.90373591960E+01  0.85984859702E+02  0.89021693190E+02  0.00000000000E+00 0. -1.
<scales pt_clust_5="13000.00000" pt_clust_6="13000.00000" pt_clust_7="13000.00000" pt_clust_8="13000.00000" pt_clust_9="87.02240" pt_clust_10="22.63337"></scales>
<clustering>
<clus scale="   22.633">  9 10 -1 -1</clus>
<clus scale="   86.291">  5  6 -1 -1</clus>
<clus scale="   91.263">  7  8 -1 -1</clus>
<clus scale="   92.287">  1  5  2 -1</clus>
<clus scale="   87.022">  1  9  2 -1</clus>
<clus scale="  120.386">  2  5  1 -1</clus>
</clustering>
</event>
<event>
10    2  0.1898324E-006  0.1801763E+03  0.7546771E-02  0.1190484E+00
         -1   -1    0    0    0  501 -0.00000000000E+00  0.00000000000E+00  0.52862393496E+02  0.52862393496E+02  0.00000000000E+00 0.  1.
          1   -1    0    0  502    0  0.00000000000E+00 -0.00000000000E+00 -0.14349137302E+04  0.14349137302E+04  0.00000000000E+00 0. -1.
         23    2    1    2    0    0  0.42602139058E+02  0.94350358283E+01 -0.20338648069E+03  0.22860082371E+03  0.94806718764E+02 0.  0.
         23    2    1    2    0    0 -0.19749388851E+03  0.60398155802E+02 -0.60234321728E+03  0.64399505023E+03  0.96231492187E+02 0.  0.
        -13    1    3    3    0    0  0.62152538414E+02 -0.14055523068E+02 -0.17735600804E+03  0.18845596130E+03  0.00000000000E+00 0.  1.
         13    1    3    3    0    0 -0.19550399356E+02  0.23490558896E+02 -0.26030472644E+02  0.40144862415E+02  0.00000000000E+00 0. -1.
        -13    1    4    4    0    0 -0.51251479078E+02 -0.23322742078E+02 -0.10932707722E+03  0.12297590910E+03  0.00000000000E+00 0.  1.
         13    1    4    4    0    0 -0.14624240943E+03  0.83720897880E+02 -0.49301614006E+03  0.52101914113E+03  0.00000000000E+00 0. -1.
         21    1    1    2  502  503  0.12708651642E+03 -0.35254723804E+02 -0.54534498468E+03  0.56106597698E+03  0.00000000000E+00 0.  1.
         21    1    1    2  503  501  0.27805233033E+02 -0.34578467826E+02 -0.30976654042E+02  0.54114272765E+02  0.00000000000E+00 0.  1.
<scales pt_clust_5="13000.00000" pt_clust_6="13000.00000" pt_clust_7="13000.00000" pt_clust_8="13000.00000" pt_clust_9="152.32534" pt_clust_10="44.37118"></scales>
<clustering>
<clus scale="   44.371">  1 10  2 -1</clus>
<clus scale="   94.807">  5  6 -1 -1</clus>
<clus scale="   96.231">  7  8 -1 -1</clus>
<clus scale="  107.703">  1  5  2 -1</clus>
<clus scale="  152.325">  2  9  1 -1</clus>
<clus scale="  152.325">  2  5  1 -1</clus>
</clustering>
</event>
<event>
10    2  0.1898324E-006  0.1631885E+03  0.7546771E-02  0.1185841E+00
         -2   -1    0    0    0  501 -0.00000000000E+00  0.00000000000E+00  0.22188613257E+03  0.22188613257E+03  0.00000000000E+00 0.  1.
          2   -1    0    0  502    0  0.00000000000E+00 -0.00000000000E+00 -0.48122910874E+03  0.48122910874E+03  0.00000000000E+00 0. -1.
         23    2    1    2    0    0 -0.13018839928E+03 -0.37027710740E+02  0.16648934913E+03  0.23396024348E+03  0.93266400641E+02 0.  0.
         23    2    1    2    0    0  0.90018509126E+02  0.10400433581E+02 -0.29424546055E+03  0.32296250918E+03  0.97534046760E+02 0.  0.
        -11    1    3    3    0    0 -0.43871684990E+02 -0.59030598088E+02  0.58523012526E+02  0.93990846626E+02  0.00000000000E+00 0.  1.
         11    1    3    3    0    0 -0.86316714291E+02  0.22002887348E+02  0.10796633660E+03  0.13996939686E+03  0.00000000000E+00 0. -1.
        -13    1    4    4    0    0  0.44248748650E+02  0.17356620111E+02 -0.33527433570E+02  0.58166079639E+02  0.00000000000E+00 0.  1.
         13    1    4    4    0    0  0.45769760476E+02 -0.69561865301E+01 -0.26071802698E+03  0.26479642954E+03  0.00000000000E+00 0. -1.
         21    1    1    2  502  503  0.22499035203E+02 -0.40892761501E+01 -0.82761898929E+02  0.85863034414E+02  0.00000000000E+00 0. -1.
         21    1    1    2  503  501  0.17670854951E+02  0.30716553309E+02 -0.48824965814E+02  0.60329454238E+02  0.00000000000E+00 0. -1.
<scales pt_clust_5="13000.00000" pt_clust_6="13000.00000" pt_clust_7="13000.00000" pt_clust_8="13000.00000" pt_clust_9="22.86764" pt_clust_10="36.61210"></scales>
<clustering>
<clus scale="   22.868">  2  9  1 -1</clus>
<clus scale="   36.612">  2 10  1 -1</clus>
<clus scale="   93.266">  5  6 -1 -1</clus>
<clus scale="   97.534">  7  8 -1 -1</clus>
<clus scale="  160.674">  1  5  2 -1</clus>
<clus scale="   22.868">  2  5  1 -1</clus>
</clustering>
</event>
<event>
10    2  0.1898324E-006  0.3311589E+03  0.7546771E-02  0.1120855E+00
         -2   -1    0    0    0  501 -0.00000000000E+00  0.00000000000E+00  0.11086801387E+03  0.11086801387E+03  0.00000000000E+00 0.  1.
          2   -1    0    0  502    0  0.00000000000E+00 -0.00000000000E+00 -0.24199212893E+04  0.24199212893E+04  0.00000000000E+00 0. -1.
         23    2    1    2    0    0  0.99581608592E+01 -0.92767889864E+01  0.69391110761E+01  0.88106379957E+02  0.86771879921E+02 0.  0.
         23    2    1    2    0    0 -0.23948480432E+03  0.22302479792E+03 -0.87004685276E+03  0.93426140106E+03  0.93647250498E+02 0.  0.
        -11    1    4    4    0    0 -0.69249769066E+02  0.34622457138E+02 -0.12398666348E+03  0.14617434034E+03  0.00000000000E+00 0.  1.
         11    1    4    4    0    0 -0.17023503525E+03  0.18840234078E+03 -0.74606018928E+03  0.78808706072E+03  0.00000000000E+00 0. -1.
        -11    1    3    3    0    0  0.29978476081E+02  0.23342525308E+02 -0.18389809373E+02  0.42210989146E+02  0.00000000000E+00 0.  1.
         11    1    3    3    0    0 -0.20020315221E+02 -0.32619314295E+02  0.25328920449E+02  0.45895390811E+02  0.00000000000E+00 0. -1.
         21    1    1    2  502  503  0.20994437462E+03 -0.23220561704E+03 -0.14479821331E+04  0.14814345571E+04  0.00000000000E+00 0. -1.
         21    1    1    2  503  501  0.19582268838E+02  0.18457608107E+02  0.20365993419E+01  0.26986965127E+02  0.00000000000E+00 0. -1.
<scales pt_clust_5="13000.00000" pt_clust_6="13000.00000" pt_clust_7="13000.00000" pt_clust_8="13000.00000" pt_clust_9="317.64199" pt_clust_10="26.91001"></scales>
<clustering>
<clus scale="   26.910">  1 10  2 -1</clus>
<clus scale="   86.772">  7  8 -1 -1</clus>
<clus scale="   88.962">  1  7  2 -1</clus>
<clus scale="   93.647">  5  6 -1 -1</clus>
<clus scale="  317.642">  2  9  1 -1</clus>
<clus scale="  317.642">  2  5  1 -1</clus>
</clustering>
</event>
<event>
10    2  0.1898324E-006  0.9655465E+02  0.7546771E-02  0.1288212E+00
         -1   -1    0    0    0  501 -0.00000000000E+00  0.00000000000E+00  0.24466201599E+03  0.24466201599E+03  0.00000000000E+00 0.  1.
          1   -1    0    0  503    0  0.00000000000E+00 -0.00000000000E+00 -0.12006294462E+03  0.12006294462E+03  0.00000000000E+00 0. -1.
         23    2    1    2    0    0 -0.79210330944E+00 -0.29853085041E+02  0.18642278672E+03  0.20954725323E+03  0.90910735420E+02 0.  0.
         23    2    1    2    0    0 -0.54326225991E+00  0.28896408384E+02 -0.55173314216E+02  0.11098448375E+03  0.91859476817E+02 0.  0.
        -13    1    3    3    0    0  0.19585269089E+01 -0.55324842312E+02  0.17078202771E+03  0.17953042916E+03  0.00000000000E+00 0.  1.
         13    1    3    3    0    0 -0.27506302184E+01  0.25471757272E+02  0.15640759009E+02  0.30016824074E+02  0.00000000000E+00 0. -1.
        -13    1    4    4    0    0  0.39764175696E+02  0.27809579416E+02 -0.51082285641E+02  0.70455392146E+02  0.00000000000E+00 0. -1.
         13    1    4    4    0    0 -0.40307437956E+02  0.10868289684E+01 -0.40910285752E+01  0.40529091608E+02  0.00000000000E+00 0.  1.
         21    1    1    2  502  501  0.22346673582E+02 -0.10204645164E+01 -0.12280823295E+01  0.22403646003E+02  0.00000000000E+00 0. -1.
         21    1    1    2  503  502 -0.21011308013E+02  0.19771411728E+01 -0.54223188018E+01  0.21789577619E+02  0.00000000000E+00 0.  1.
<scales pt_clust_5="13000.00000" pt_clust_6="13000.00000" pt_clust_7="13000.00000" pt_clust_8="13000.00000" pt_clust_9="20.03061" pt_clust_10="21.10413"></scales>
<clustering>
<clus scale="   21.104">  2 10  1 -1</clus>
<clus scale="   20.031">  2  9  1 -1</clus>
<clus scale="   90.911">  5  6 -1 -1</clus>
<clus scale="   91.859">  7  8 -1 -1</clus>
<clus scale="   95.652">  1  5  2 -1</clus>
<clus scale="   21.104">  2  5  1 -1</clus>
</clustering>
</event>
<event>
10    2  0.1898324E-006  0.1223373E+03  0.7546771E-02  0.1239594E+00
         -1   -1    0    0    0  501 -0.00000000000E+00  0.00000000000E+00  0.21712001771E+03  0.21712001771E+03  0.00000000000E+00 0.  1.
          1   -1    0    0  502    0  0.00000000000E+00 -0.00000000000E+00 -0.30335276918E+03  0.30335276918E+03  0.00000000000E+00 0. -1.
         23    2    1    2    0    0 -0.44680418386E+02  0.98434600686E+02 -0.58485680079E+01  0.14121157345E+03  0.90668585134E+02 0.  0.
         23    2    1    2    0    0  0.62491476290E+02 -0.44725752273E+02 -0.18986195562E+03  0.22440469920E+03  0.91675129154E+02 0.  0.
        -13    1    3    3    0    0 -0.23618558840E+02  0.20752068125E+01  0.28221180020E+02  0.36858890470E+02  0.00000000000E+00 0.  1.
         13    1    3    3    0    0 -0.21061859546E+02  0.96359393874E+02 -0.34069748028E+02  0.10435268298E+03  0.00000000000E+00 0. -1.
        -13    1    4    4    0    0  0.58187895493E+02  0.14661821994E+02 -0.99245844853E+02  0.11597645419E+03  0.00000000000E+00 0. -1.
         13    1    4    4    0    0  0.43035807974E+01 -0.59387574267E+02 -0.90616110768E+02  0.10842824501E+03  0.00000000000E+00 0.  1.
         21    1    1    2  502  503  0.27867468666E+01 -0.37272256042E+02 -0.47059568680E+01  0.37671382489E+02  0.00000000000E+00 0. -1.
         21    1    1    2  503  501 -0.20597804771E+02 -0.16436592371E+02  0.11418372902E+03  0.11718513175E+03  0.00000000000E+00 0.  1.
<scales pt_clust_5="13000.00000" pt_clust_6="13000.00000" pt_clust_7="13000.00000" pt_clust_8="13000.00000" pt_clust_9="39.94704" pt_clust_10="26.35206"></scales>
<clustering>
<clus scale="   26.352">  1 10  2 -1</clus>
<clus scale="   39.947">  1  9  2 -1</clus>
<clus scale="   90.669">  5  6 -1 -1</clus>
<clus scale="   91.675">  7  8 -1 -1</clus>
<clus scale="  121.585">  1  5  2 -1</clus>
<clus scale="  122.337">  2  5  1 -1</clus>
</clustering>
</event>
<event>
10    2  0.1898324E-006  0.9508602E+02  0.7546771E-02  0.1291466E+00
          1   -1    0    0  502    0  0.00000000000E+00  0.00000000000E+00  0.22189728764E+03  0.22189728764E+03  0.00000000000E+00 0. -1.
         -1   -1    0    0    0  501 -0.00000000000E+00 -0.00000000000E+00 -0.18388506850E+03  0.18388506850E+03  0.00000000000E+00 0.  1.
         23    2    1    2    0    0 -0.39841272893E+01  0.61063562946E+01 -0.13269471692E+03  0.16136285332E+03  0.91525524712E+02 0.  0.
         23    2    1    2    0    0 -0.17899526396E+00 -0.16534916708E+02  0.98230396530E+02  0.13587295925E+03  0.92405707301E+02 0.  0.
        -11    1    3    3    0    0 -0.20121650544E+01 -0.26690773567E+02 -0.12471011192E+03  0.12755021841E+03  0.00000000000E+00 0.  1.
         11    1    3    3    0    0 -0.19719622349E+01  0.32797129862E+02 -0.79846050046E+01  0.33812634907E+02  0.00000000000E+00 0. -1.
        -11    1    4    4    0    0 -0.63126065951E+01 -0.49776854555E+02  0.26884096317E+02  0.56923974617E+02  0.00000000000E+00 0.  1.
         11    1    4    4    0    0  0.61336113312E+01  0.33241937847E+02  0.71346300213E+02  0.78948984629E+02  0.00000000000E+00 0. -1.
         21    1    1    2  502  503  0.31179924656E+02  0.13767416409E+02  0.73801471907E+02  0.81291984302E+02  0.00000000000E+00 0. -1.
         21    1    1    2  503  501 -0.27016802103E+02 -0.33388559959E+01 -0.13249323753E+01  0.27254559270E+02  0.00000000000E+00 0.  1.
<scales pt_clust_5="13000.00000" pt_clust_6="13000.00000" pt_clust_7="13000.00000" pt_clust_8="13000.00000" pt_clust_9="33.50903" pt_clust_10="27.22234"></scales>
<clustering>
<clus scale="   27.222">  2 10  1 -1</clus>
<clus scale="   33.509">  1  9  2 -1</clus>
<clus scale="   91.526">  5  6 -1 -1</clus>
<clus scale="   92.406">  7  8 -1 -1</clus>
<clus scale="   94.231">  2  5  1 -1</clus>
<clus scale="   33.509">  1  5  2 -1</clus>
</clustering>
</event>
<event>
10    2  0.1898324E-006  0.1719452E+03  0.7546771E-02  0.1175920E+00
          2   -1    0    0  502    0  0.00000000000E+00  0.00000000000E+00  0.58075266997E+03  0.58075266997E+03  0.00000000000E+00 0. -1.
         -2   -1    0    0    0  501 -0.00000000000E+00 -0.00000000000E+00 -0.16422376513E+03  0.16422376513E+03  0.00000000000E+00 0.  1.
         23    2    1    2    0    0 -0.16671651867E+03  0.99474002370E+02  0.11961413929E+03  0.24568498248E+03  0.91455418399E+02 0.  0.
         23    2    1    2    0    0  0.13319357501E+03  0.63954479226E+02  0.25747498381E+03  0.31044044686E+03  0.90825106248E+02 0.  0.
        -11    1    3    3    0    0 -0.14449195565E+03  0.88087624929E+02  0.13489262350E+03  0.21641020029E+03  0.00000000000E+00 0. -1.
         11    1    3    3    0    0 -0.22224563024E+02  0.11386377441E+02 -0.15278484213E+02  0.29274782197E+02  0.00000000000E+00 0.  1.
        -11    1    4    4    0    0  0.11055196606E+03  0.45650435257E+02  0.25446192215E+03  0.28117000064E+03  0.00000000000E+00 0.  1.
         11    1    4    4    0    0  0.22641608948E+02  0.18304043969E+02  0.30130616617E+01  0.29270446220E+02  0.00000000000E+00 0. -1.
         21    1    1    2  502  503  0.67106724572E+01 -0.19471660592E+02  0.37060975812E+02  0.42399228993E+02  0.00000000000E+00 0.  1.
         21    1    1    2  503  501  0.26812271205E+02 -0.14395682100E+03  0.23788059298E+01  0.14645177677E+03  0.00000000000E+00 0.  1.
<scales pt_clust_5="13000.00000" pt_clust_6="13000.00000" pt_clust_7="13000.00000" pt_clust_8="13000.00000" pt_clust_9="20.59560" pt_clust_10="149.23501"></scales>
<clustering>
<clus scale="   20.596">  1  9  2 -1</clus>
<clus scale="   90.825">  7  8 -1 -1</clus>
<clus scale="   91.455">  5  6 -1 -1</clus>
<clus scale="  149.235">  2 10  1 -1</clus>
<clus scale="  171.611">  1  7  2 -1</clus>
<clus scale="   20.596">  1  5  2 -1</clus>
</clustering>
</event>
<event>
10    2  0.1898324E-006  0.1520869E+03  0.7546771E-02  0.1198271E+00
          2   -1    0    0  502    0  0.00000000000E+00  0.00000000000E+00  0.76569776095E+03  0.76569776095E+03  0.00000000000E+00 0. -1.
         -2   -1    0    0    0  501 -0.00000000000E+00 -0.00000000000E+00 -0.53376440688E+02  0.53376440688E+02  0.00000000000E+00 0.  1.
         23    2    1    2    0    0 -0.10712486490E+03 -0.79816648239E+02  0.17581739622E+03  0.23977832170E+03  0.93463643870E+02 0.  0.
         23    2    1    2    0    0  0.48724601364E+02  0.85730714383E+02  0.32718531162E+03  0.35379389926E+03  0.91629977897E+02 0.  0.
        -11    1    3    3    0    0 -0.12011023422E+03 -0.52532008027E+02  0.15539638170E+03  0.20330793314E+03  0.00000000000E+00 0. -1.
         11    1    3    3    0    0  0.12985369313E+02 -0.27284640212E+02  0.20421014518E+02  0.36470388559E+02  0.00000000000E+00 0.  1.
        -13    1    4    4    0    0  0.53800068136E+02  0.90071932759E+01  0.17471449077E+03  0.18303204678E+03  0.00000000000E+00 0. -1.
         13    1    4    4    0    0 -0.50754667723E+01  0.76723521107E+02  0.15247082084E+03  0.17076185248E+03  0.00000000000E+00 0.  1.
         21    1    1    2  502  503  0.53393741625E+02  0.15788655144E+02  0.18159786881E+03  0.18994198913E+03  0.00000000000E+00 0.  1.
         21    1    1    2  503  501  0.50065219151E+01 -0.21702721288E+02  0.27720743611E+02  0.35559991554E+02  0.00000000000E+00 0.  1.
<scales pt_clust_5="13000.00000" pt_clust_6="13000.00000" pt_clust_7="13000.00000" pt_clust_8="13000.00000" pt_clust_9="55.59669" pt_clust_10="22.27270"></scales>
<clustering>
<clus scale="   22.273">  2 10  1 -1</clus>
<clus scale="   55.597">  1  9  2 -1</clus>
<clus scale="   91.630">  7  8 -1 -1</clus>
<clus scale="   93.464">  5  6 -1 -1</clus>
<clus scale="  150.967">  1  7  2 -1</clus>
<clus scale="   55.597">  1  5  2 -1</clus>
</clustering>
</event>
<event>
10    2  0.1898324E-006  0.1515498E+03  0.7546771E-02  0.1212379E+00
          2   -1    0    0  502    0  0.00000000000E+00  0.00000000000E+00  0.78133760181E+03  0.78133760181E+03  0.00000000000E+00 0. -1.
         -2   -1    0    0    0  501 -0.00000000000E+00 -0.00000000000E+00 -0.84154310844E+02  0.84154310844E+02  0.00000000000E+00 0.  1.
         23    2    1    2    0    0  0.77990691931E+02 -0.28100972608E+02  0.25116581556E+03  0.28065766543E+03  0.93873561605E+02 0.  0.
         23    2    1    2    0    0  0.47255530155E+02 -0.69190467041E+02  0.21316889428E+03  0.24606899149E+03  0.89936451020E+02 0.  0.
        -11    1    3    3    0    0  0.61043514272E+02 -0.43881765230E+02  0.24558970761E+03  0.25683890756E+03  0.00000000000E+00 0. -1.
         11    1    3    3    0    0  0.16947177659E+02  0.15780792622E+02  0.55761079495E+01  0.23818757865E+02  0.00000000000E+00 0.  1.
        -13    1    4    4    0    0  0.58720745101E+02 -0.44771503495E+02  0.74847801770E+02  0.10514184162E+03  0.00000000000E+00 0. -1.
         13    1    4    4    0    0 -0.11465214946E+02 -0.24418963546E+02  0.13832109251E+03  0.14092714986E+03  0.00000000000E+00 0.  1.
         21    1    1    2  502  503 -0.43903794584E+01  0.47957306433E+02  0.19783732298E+03  0.20361430460E+03  0.00000000000E+00 0. -1.
         21    1    1    2  503  501 -0.12085584263E+03  0.49334133217E+02  0.35011258139E+02  0.13515095114E+03  0.00000000000E+00 0.  1.
<scales pt_clust_5="13000.00000" pt_clust_6="13000.00000" pt_clust_7="13000.00000" pt_clust_8="13000.00000" pt_clust_9="48.15785" pt_clust_10="118.97514"></scales>
<clustering>
<clus scale="   48.158">  1  9  2 -1</clus>
<clus scale="   89.936">  7  8 -1 -1</clus>
<clus scale="   93.874">  5  6 -1 -1</clus>
<clus scale="  112.619">  1  7  2 -1</clus>
<clus scale="  118.975">  2 10  1 -1</clus>
<clus scale="   48.158">  1  5  2 -1</clus>
</clustering>
</event>
<event>
10    2  0.1898324E-006  0.1318145E+03  0.7546771E-02  0.1225442E+00
         -1   -1    0    0    0  501 -0.00000000000E+00  0.00000000000E+00  0.28193152612E+03  0.28193152612E+03  0.00000000000E+00 0.  1.
          1   -1    0    0  502    0  0.00000000000E+00 -0.00000000000E+00 -0.12470114387E+03  0.12470114387E+03  0.00000000000E+00 0. -1.
         23    2    1    2    0    0 -0.58445466408E+02 -0.56922812911E+02  0.18505284157E+03  0.22275177834E+03  0.93368738931E+02 0.  0.
         23    2    1    2    0    0  0.44549119209E+02  0.71577559549E+02 -0.41131444451E+02  0.13057724941E+03  0.90833095779E+02 0.  0.
        -11    1    3    3    0    0 -0.79335857211E+02 -0.39011105236E+02  0.10059025998E+03  0.13391954665E+03  0.00000000000E+00 0.  1.
         11    1    3    3    0    0  0.20890390804E+02 -0.17911707674E+02  0.84462581589E+02  0.88832231698E+02  0.00000000000E+00 0. -1.
        -11    1    4    4    0    0  0.18470621924E+02  0.67311071254E+02 -0.64696254628E+02  0.95171159237E+02  0.00000000000E+00 0. -1.
         11    1    4    4    0    0  0.26078497285E+02  0.42664882948E+01  0.23564810177E+02  0.35406090177E+02  0.00000000000E+00 0.  1.
         21    1    1    2  502  503  0.24404250467E+02  0.28369031147E+01 -0.59133828718E+01  0.25270210864E+02  0.00000000000E+00 0.  1.
         21    1    1    2  503  501 -0.10507903268E+02 -0.17491649753E+02  0.19222368008E+02  0.28033431364E+02  0.00000000000E+00 0.  1.
<scales pt_clust_5="13000.00000" pt_clust_6="13000.00000" pt_clust_7="13000.00000" pt_clust_8="13000.00000" pt_clust_9="24.10943" pt_clust_10="20.40524"></scales>
<clustering>
<clus scale="   20.405">  1 10  2 -1</clus>
<clus scale="   24.109">  2  9  1 -1</clus>
<clus scale="   90.833">  7  8 -1 -1</clus>
<clus scale="   93.369">  5  6 -1 -1</clus>
<clus scale="  130.031">  2  7  1 -1</clus>
<clus scale="   24.109">  2  5  1 -1</clus>
</clustering>
</event>
<event>
10    2  0.1898324E-006  0.1081050E+03  0.7546771E-02  0.1266589E+00
         -2   -1    0    0    0  501 -0.00000000000E+00  0.00000000000E+00  0.43168333965E+02  0.43168333965E+02  0.00000000000E+00 0.  1.
          2   -1    0    0  502    0  0.00000000000E+00 -0.00000000000E+00 -0.46695146333E+03  0.46695146333E+03  0.00000000000E+00 0. -1.
         23    2    1    2    0    0  0.24684742607E+01 -0.31651150587E+02 -0.10552991839E+03  0.14662295321E+03  0.96715242000E+02 0.  0.
         23    2    1    2    0    0 -0.23626757212E+02  0.64435150318E+02 -0.18899654878E+03  0.22070673195E+03  0.91003592369E+02 0.  0.
        -11    1    3    3    0    0  0.49161903677E+02 -0.23090675388E+02 -0.57128544818E+02  0.78827296643E+02  0.00000000000E+00 0.  1.
         11    1    3    3    0    0 -0.46693429416E+02 -0.85604751993E+01 -0.48401373569E+02  0.67795656569E+02  0.00000000000E+00 0. -1.
        -11    1    4    4    0    0  0.28142521788E+02  0.17503509673E+02 -0.11167683644E+03  0.11649073002E+03  0.00000000000E+00 0.  1.
         11    1    4    4    0    0 -0.51769279000E+02  0.46931640646E+02 -0.77319712343E+02  0.10421600193E+03  0.00000000000E+00 0. -1.
         21    1    1    2  502  503 -0.16571345517E+01 -0.27837580467E+02 -0.10685911444E+03  0.11043797951E+03  0.00000000000E+00 0. -1.
         21    1    1    2  503  501  0.22815417503E+02 -0.49464192639E+01 -0.22397547765E+02  0.32352132622E+02  0.00000000000E+00 0.  1.
<scales pt_clust_5="13000.00000" pt_clust_6="13000.00000" pt_clust_7="13000.00000" pt_clust_8="13000.00000" pt_clust_9="28.07550" pt_clust_10="23.34546"></scales>
<clustering>
<clus scale="   23.345">  1 10  2 -1</clus>
<clus scale="   28.076">  2  9  1 -1</clus>
<clus scale="   91.004">  7  8 -1 -1</clus>
<clus scale="   96.715">  5  6 -1 -1</clus>
<clus scale="  103.027">  2  7  1 -1</clus>
<clus scale="   28.076">  2  5  1 -1</clus>
</clustering>
</event>
<event>
10    2  0.1898324E-006  0.9403667E+02  0.7546771E-02  0.1294037E+00
          3   -1    0    0  502    0  0.00000000000E+00  0.00000000000E+00  0.81199768256E+02  0.81199768256E+02  0.00000000000E+00 0. -1.
         -3   -1    0    0    0  501 -0.00000000000E+00 -0.00000000000E+00 -0.48736290864E+03  0.48736290864E+03  0.00000000000E+00 0.  1.
         23    2    1    2    0    0 -0.84584481250E+01 -0.24154608900E+02 -0.35299009920E+03  0.36449925344E+03  0.87193492545E+02 0.  0.
         23    2    1    2    0    0 -0.95660719042E+01  0.77146128895E+02 -0.58518145848E+02  0.13149128700E+03  0.88445182055E+02 0.  0.
        -11    1    4    4    0    0  0.28034892869E+02  0.65202160841E+02 -0.14609209772E+02  0.72461755476E+02  0.00000000000E+00 0. -1.
         11    1    4    4    0    0 -0.37600964773E+02  0.11943968054E+02 -0.43908936076E+02  0.59029531525E+02  0.00000000000E+00 0.  1.
        -13    1    3    3    0    0 -0.43192595174E+02 -0.12893435502E+02 -0.27131080726E+03  0.27502980764E+03  0.00000000000E+00 0.  1.
         13    1    3    3    0    0  0.34734147049E+02 -0.11261173397E+02 -0.81679291949E+02  0.89469445795E+02  0.00000000000E+00 0. -1.
         21    1    1    2  502  503  0.11101230589E+02 -0.21114209422E+02  0.24945831943E+02  0.34515817989E+02  0.00000000000E+00 0. -1.
         21    1    1    2  503  501  0.69232894404E+01 -0.31877310573E+02 -0.19600727279E+02  0.38056318475E+02  0.00000000000E+00 0. -1.
<scales pt_clust_5="13000.00000" pt_clust_6="13000.00000" pt_clust_7="13000.00000" pt_clust_8="13000.00000" pt_clust_9="23.85471" pt_clust_10="36.75991"></scales>
<clustering>
<clus scale="   23.855">  1  9  2 -1</clus>
<clus scale="   36.760">  1 10  2 -1</clus>
<clus scale="   87.193">  7  8 -1 -1</clus>
<clus scale="   88.445">  5  6 -1 -1</clus>
<clus scale="   92.860">  2  7  1 -1</clus>
<clus scale="   23.855">  1  5  2 -1</clus>
</clustering>
</event>
<event>
10    2  0.1898324E-006  0.1005803E+03  0.7546771E-02  0.1280160E+00
         -1   -1    0    0    0  501 -0.00000000000E+00  0.00000000000E+00  0.16358744087E+03  0.16358744087E+03  0.00000000000E+00 0.  1.
          1   -1    0    0  502    0  0.00000000000E+00 -0.00000000000E+00 -0.21337353422E+03  0.21337353422E+03  0.00000000000E+00 0. -1.
         23    2    1    2    0    0  0.50287583631E+02  0.89635963008E+01  0.68915636304E+01  0.10696293551E+03  0.93725070273E+02 0.  0.
         23    2    1    2    0    0  0.39375023794E+02 -0.52492541063E+02 -0.10739170019E+01  0.11618500050E+03  0.95874614355E+02 0.  0.
        -13    1    4    4    0    0  0.24181135661E+02  0.26409448344E+02  0.68451235621E+00  0.35814170950E+02  0.00000000000E+00 0.  1.
         13    1    4    4    0    0  0.15193888132E+02 -0.78901989407E+02 -0.17584293581E+01  0.80370829551E+02  0.00000000000E+00 0. -1.
        -13    1    3    3    0    0  0.49105458820E+02  0.36189908331E+02 -0.24193907943E+02  0.65623172222E+02  0.00000000000E+00 0.  1.
         13    1    3    3    0    0  0.11821248115E+01 -0.27226312031E+02  0.31085471573E+02  0.41339763289E+02  0.00000000000E+00 0. -1.
         21    1    1    2  502  503 -0.63479866342E+02  0.36377426905E+02 -0.86100050328E+02  0.11298773954E+03  0.00000000000E+00 0.  1.
         21    1    1    2  503  501 -0.26182741082E+02  0.71515178575E+01  0.30496310351E+02  0.40825299549E+02  0.00000000000E+00 0.  1.
<scales pt_clust_5="13000.00000" pt_clust_6="13000.00000" pt_clust_7="13000.00000" pt_clust_8="13000.00000" pt_clust_9="75.92866" pt_clust_10="27.14185"></scales>
<clustering>
<clus scale="   27.142">  1 10  2 -1</clus>
<clus scale="   75.929">  2  9  1 -1</clus>
<clus scale="   93.725">  7  8 -1 -1</clus>
<clus scale="   95.875">  5  6 -1 -1</clus>
<clus scale="   98.533">  1  7  2 -1</clus>
<clus scale="   75.929">  2  5  1 -1</clus>
</clustering>
</event>
<event>
10    2  0.1898324E-006  0.1133620E+03  0.7546771E-02  0.1255457E+00
         -1   -1    0    0    0  501 -0.00000000000E+00  0.00000000000E+00  0.27208954988E+03  0.27208954988E+03  0.00000000000E+00 0.  1.
          1   -1    0    0  502    0  0.00000000000E+00 -0.00000000000E+00 -0.88843160922E+02  0.88843160922E+02  0.00000000000E+00 0. -1.
         23    2    1    2    0    0  0.63242988944E+02 -0.43523803121E+02  0.99724891272E+02  0.15541066232E+03  0.91177973950E+02 0.  0.
         23    2    1    2    0    0 -0.42751233068E+02  0.10971839732E+02  0.25926681507E+02  0.10690096702E+03  0.93848680012E+02 0.  0.
        -11    1    3    3    0    0  0.59719542913E+02 -0.66571667573E+02  0.96999922589E+02  0.13193633204E+03  0.00000000000E+00 0.  1.
         11    1    3    3    0    0  0.35234460310E+01  0.23047864451E+02  0.27249686823E+01  0.23474330279E+02  0.00000000000E+00 0. -1.
        -11    1    4    4    0    0 -0.21011775633E+02  0.77296327607E+01 -0.35326547590E+02  0.41823520924E+02  0.00000000000E+00 0. -1.
         11    1    4    4    0    0 -0.21739457435E+02  0.32422069712E+01  0.61253229097E+02  0.65077446096E+02  0.00000000000E+00 0.  1.
         21    1    1    2  502  503 -0.36840658246E+02  0.17852081820E+02  0.45373777964E+01  0.41188817932E+02  0.00000000000E+00 0. -1.
         21    1    1    2  503  501  0.16348902370E+02  0.14699881569E+02  0.53057438387E+02  0.57432263537E+02  0.00000000000E+00 0. -1.
<scales pt_clust_5="13000.00000" pt_clust_6="13000.00000" pt_clust_7="13000.00000" pt_clust_8="13000.00000" pt_clust_9="40.12024" pt_clust_10="21.98575"></scales>
<clustering>
<clus scale="   21.986">  1 10  2 -1</clus>
<clus scale="   40.120">  2  9  1 -1</clus>
<clus scale="   91.178">  5  6 -1 -1</clus>
<clus scale="   93.849">  7  8 -1 -1</clus>
<clus scale="  111.161">  1  5  2 -1</clus>
<clus scale="   40.120">  2  5  1 -1</clus>
</clustering>
</event>
<event>
10    2  0.1898324E-006  0.1191273E+03  0.7546771E-02  0.1246327E+00
          2   -1    0    0  502    0  0.00000000000E+00  0.00000000000E+00  0.33018183248E+03  0.33018183248E+03  0.00000000000E+00 0. -1.
         -2   -1    0    0    0  501 -0.00000000000E+00 -0.00000000000E+00 -0.15472019369E+03  0.15472019369E+03  0.00000000000E+00 0.  1.
         23    2    1    2    0    0 -0.19842608602E+02  0.90868372629E+02 -0.77931355837E+02  0.15182006968E+03  0.91242791901E+02 0.  0.
         23    2    1    2    0    0 -0.39190522777E+02 -0.66793652445E+02  0.21741217232E+03  0.24618579175E+03  0.85686068317E+02 0.  0.
        -11    1    4    4    0    0 -0.11392957365E+02 -0.73672181018E+02  0.19805695527E+03  0.21162218046E+03  0.00000000000E+00 0. -1.
         11    1    4    4    0    0 -0.27797565412E+02  0.68785285723E+01  0.19355217056E+02  0.34563611291E+02  0.00000000000E+00 0.  1.
        -13    1    3    3    0    0  0.26030328723E+02  0.40857591144E+02 -0.67612748253E+02  0.83176946889E+02  0.00000000000E+00 0.  1.
         13    1    3    3    0    0 -0.45872937326E+02  0.50010781486E+02 -0.10318607585E+02  0.68643122788E+02  0.00000000000E+00 0. -1.
         21    1    1    2  502  503  0.35839902722E+02 -0.86270487963E+01  0.44472398733E+02  0.57764338888E+02  0.00000000000E+00 0. -1.
         21    1    1    2  503  501  0.23193228657E+02 -0.15447671387E+02 -0.84915764283E+01  0.29131825845E+02  0.00000000000E+00 0.  1.
<scales pt_clust_5="13000.00000" pt_clust_6="13000.00000" pt_clust_7="13000.00000" pt_clust_8="13000.00000" pt_clust_9="38.14592" pt_clust_10="27.86676"></scales>
<clustering>
<clus scale="   27.867">  2 10  1 -1</clus>
<clus scale="   38.146">  1  9  2 -1</clus>
<clus scale="   85.686">  5  6 -1 -1</clus>
<clus scale="   91.243">  7  8 -1 -1</clus>
<clus scale="  114.927">  1  5  2 -1</clus>
<clus scale="   38.146">  1  5  2 -1</clus>
</clustering>
</event>
<event>
10    2  0.1898324E-006  0.1018273E+03  0.7546771E-02  0.1276511E+00
          1   -1    0    0  502    0  0.00000000000E+00  0.00000000000E+00  0.18739267245E+03  0.18739267245E+03  0.00000000000E+00 0. -1.
         -1   -1    0    0    0  501 -0.00000000000E+00 -0.00000000000E+00 -0.16196826139E+03  0.16196826139E+03  0.00000000000E+00 0.  1.
         23    2    1    2    0    0  0.14355768399E+02 -0.43722618094E+02  0.18592772397E+02  0.10536169241E+03  0.92938902633E+02 0.  0.
         23    2    1    2    0    0  0.59242721311E+02  0.26107046764E+02  0.45455403975E+02  0.12206363475E+03  0.92962676697E+02 0.  0.
        -13    1    4    4    0    0  0.82617992144E+02  0.24516484057E+02  0.47748030763E+02  0.98522408914E+02  0.00000000000E+00 0. -1.
         13    1    4    4    0    0 -0.23375270833E+02  0.15905627072E+01 -0.22926267879E+01  0.23541225836E+02  0.00000000000E+00 0.  1.
        -13    1    3    3    0    0  0.40140380620E+02 -0.37242237113E+02 -0.20173913382E+02  0.58354272874E+02  0.00000000000E+00 0.  1.
         13    1    3    3    0    0 -0.25784612221E+02 -0.64803809813E+01  0.38766685780E+02  0.47007419536E+02  0.00000000000E+00 0. -1.
         21    1    1    2  502  503 -0.51304018598E+02  0.25476020828E+02  0.18434292727E+02  0.60174355916E+02  0.00000000000E+00 0.  1.
         21    1    1    2  503  501 -0.22294471111E+02 -0.78604494976E+01 -0.57058058039E+02  0.61761250761E+02  0.00000000000E+00 0.  1.
<scales pt_clust_5="13000.00000" pt_clust_6="13000.00000" pt_clust_7="13000.00000" pt_clust_8="13000.00000" pt_clust_9="60.73122" pt_clust_10="23.63959"></scales>
<clustering>
<clus scale="   23.640">  2 10  1 -1</clus>
<clus scale="   60.731">  1  9  2 -1</clus>
<clus scale="   92.939">  7  8 -1 -1</clus>
<clus scale="   92.963">  5  6 -1 -1</clus>
<clus scale="  101.806">  2  7  1 -1</clus>
<clus scale="   60.731">  1  5  2 -1</clus>
</clustering>
</event>
<event>
10    2  0.1898324E-006  0.9704946E+02  0.7546771E-02  0.1288464E+00
          2   -1    0    0  502    0  0.00000000000E+00  0.00000000000E+00  0.34571292644E+03  0.34571292644E+03  0.00000000000E+00 0. -1.
         -2   -1    0    0    0  501 -0.00000000000E+00 -0.00000000000E+00 -0.62782903810E+02  0.62782903810E+02  0.00000000000E+00 0.  1.
         23    2    1    2    0    0  0.42572516659E+01 -0.45355089413E+02  0.46511201696E+02  0.10931391296E+03  0.87812478366E+02 0.  0.
         23    2    1    2    0    0  0.16536324285E+02  0.38490641865E+02  0.21725494463E+03  0.23936309734E+03  0.91323610682E+02 0.  0.
        -11    1    3    3    0    0  0.13033227879E+02 -0.66482811448E+02  0.13388821206E+02  0.69058596715E+02  0.00000000000E+00 0.  1.
         11    1    3    3    0    0 -0.87759762135E+01  0.21127722035E+02  0.33122380490E+02  0.40255316248E+02  0.00000000000E+00 0. -1.
        -13    1    4    4    0    0  0.44511640964E+02  0.45325191573E+02  0.18743365265E+03  0.19790662777E+03  0.00000000000E+00 0. -1.
         13    1    4    4    0    0 -0.27975316679E+02 -0.68345497080E+01  0.29821291983E+02  0.41456469562E+02  0.00000000000E+00 0.  1.
         21    1    1    2  502  503 -0.54044762903E+01 -0.19448599224E+02  0.21194063004E+02  0.29268492997E+02  0.00000000000E+00 0.  1.
         21    1    1    2  503  501 -0.15389099661E+02  0.26313046771E+02 -0.20301867012E+01  0.30550326951E+02  0.00000000000E+00 0.  1.
<scales pt_clust_5="13000.00000" pt_clust_6="13000.00000" pt_clust_7="13000.00000" pt_clust_8="13000.00000" pt_clust_9="20.18555" pt_clust_10="29.86415"></scales>
<clustering>
<clus scale="   20.186">  1  9  2 -1</clus>
<clus scale="   29.864">  2 10  1 -1</clus>
<clus scale="   87.812">  5  6 -1 -1</clus>
<clus scale="   91.324">  7  8 -1 -1</clus>
<clus scale="   93.753">  2  5  1 -1</clus>
<clus scale="   20.186">  1  5  2 -1</clus>
</clustering>
</event>
<event>
10    2  0.1898324E-006  0.1637284E+03  0.7546771E-02  0.1185281E+00
         -1   -1    0    0    0  501 -0.00000000000E+00  0.00000000000E+00  0.71846769285E+02  0.71846769285E+02  0.00000000000E+00 0.  1.
          1   -1    0    0  502    0  0.00000000000E+00 -0.00000000000E+00 -0.11365694083E+04  0.11365694083E+04  0.00000000000E+00 0. -1.
         23    2    1    2    0    0  0.89115441090E+02 -0.70447202395E+02 -0.20167961225E+03  0.24776214781E+03  0.88357488198E+02 0.  0.
         23    2    1    2    0    0 -0.14180971710E+03  0.26341585341E+02 -0.78207409468E+03  0.80069286020E+03  0.93087549218E+02 0.  0.
        -13    1    3    3    0    0  0.14706956481E+02 -0.44493866298E+02 -0.22426618420E+02  0.51951438102E+02  0.00000000000E+00 0.  1.
         13    1    3    3    0    0  0.74408484609E+02 -0.25953336096E+02 -0.17925299383E+03  0.19581070970E+03  0.00000000000E+00 0. -1.
        -13    1    4    4    0    0 -0.84246548881E+02 -0.29676316043E+02 -0.35008451871E+03  0.36129950868E+03  0.00000000000E+00 0.  1.
         13    1    4    4    0    0 -0.57563168223E+02  0.56017901384E+02 -0.43198957598E+03  0.43939335152E+03  0.00000000000E+00 0. -1.
         21    1    1    2  502  503  0.16082504220E+01  0.27379100072E+02 -0.99415720328E+02  0.10312946736E+03  0.00000000000E+00 0.  1.
         21    1    1    2  503  501  0.51086025593E+02  0.16726516982E+02  0.18446788241E+02  0.56831702224E+02  0.00000000000E+00 0. -1.
<scales pt_clust_5="13000.00000" pt_clust_6="13000.00000" pt_clust_7="13000.00000" pt_clust_8="13000.00000" pt_clust_9="27.42629" pt_clust_10="53.94295"></scales>
<clustering>
<clus scale="   27.426">  2  9  1 -1</clus>
<clus scale="   53.943">  1 10  2 -1</clus>
<clus scale="   88.357">  5  6 -1 -1</clus>
<clus scale="   93.088">  7  8 -1 -1</clus>
<clus scale="  161.086">  1  5  2 -1</clus>
<clus scale="   27.426">  2  5  1 -1</clus>
</clustering>
</event>
<event>
10    2  0.1898324E-006  0.1996633E+03  0.7546771E-02  0.1150343E+00
          1   -1    0    0  503    0  0.00000000000E+00  0.00000000000E+00  0.10832609701E+03  0.10832609701E+03  0.00000000000E+00 0. -1.
         -1   -1    0    0    0  501 -0.00000000000E+00 -0.00000000000E+00 -0.73301219608E+03  0.73301219608E+03  0.00000000000E+00 0.  1.
         23    2    1    2    0    0 -0.66937986181E+02  0.16155199042E+03 -0.23024833247E+03  0.30300316397E+03  0.90647025173E+02 0.  0.
         23    2    1    2    0    0  0.14754287929E+03 -0.12022932457E+03 -0.16872579686E+03  0.26890426672E+03  0.87276104512E+02 0.  0.
        -13    1    4    4    0    0  0.13866187601E+03 -0.95286846630E+02 -0.17385632350E+03  0.24193536372E+03  0.00000000000E+00 0. -1.
         13    1    4    4    0    0  0.88810032800E+01 -0.24942477942E+02  0.51305266435E+01  0.26968902995E+02  0.00000000000E+00 0.  1.
        -13    1    3    3    0    0  0.86315530057E+01  0.90567929273E+02 -0.84698486127E+02  0.12430159722E+03  0.00000000000E+00 0.  1.
         13    1    3    3    0    0 -0.75569539187E+02  0.70984061142E+02 -0.14554984634E+03  0.17870156675E+03  0.00000000000E+00 0. -1.
         21    1    1    2  502  501  0.12027525955E+02 -0.52358925695E+02 -0.77306338878E+02  0.94140259779E+02  0.00000000000E+00 0. -1.
         21    1    1    2  503  502 -0.92632419066E+02  0.11036259852E+02 -0.14840563087E+03  0.17529060262E+03  0.00000000000E+00 0.  1.
<scales pt_clust_5="13000.00000" pt_clust_6="13000.00000" pt_clust_7="13000.00000" pt_clust_8="13000.00000" pt_clust_9="53.72261" pt_clust_10="89.64863"></scales>
<clustering>
<clus scale="   53.723">  2  9  1 -1</clus>
<clus scale="   87.276">  5  6 -1 -1</clus>
<clus scale="   89.649">  2 10  1 -1</clus>
<clus scale="   90.647">  7  8 -1 -1</clus>
<clus scale="  198.156">  1  5  2 -1</clus>
<clus scale="  198.156">  1  5  2 -1</clus>
</clustering>
</event>
<event>
10    2  0.1898324E-006  0.1798567E+03  0.7546771E-02  0.1168076E+00
          1   -1    0    0  502    0  0.00000000000E+00  0.00000000000E+00  0.28019982059E+03  0.28019982059E+03  0.00000000000E+00 0. -1.
         -1   -1    0    0    0  501 -0.00000000000E+00 -0.00000000000E+00 -0.26160202351E+03  0.26160202351E+03  0.00000000000E+00 0.  1.
         23    2    1    2    0    0  0.16581949982E+03  0.32837364621E+02 -0.49480792640E+02  0.19831940623E+03  0.91147347802E+02 0.  0.
         23    2    1    2    0    0 -0.13411872617E+03 -0.54289487428E+02 -0.24788733700E+02  0.17221908779E+03  0.90054159967E+02 0.  0.
        -11    1    4    4    0    0 -0.42631973784E+02  0.24944598819E+02 -0.66584510615E+01  0.49840276579E+02  0.00000000000E+00 0.  1.
         11    1    4    4    0    0 -0.91486752386E+02 -0.79234086247E+02 -0.18130282639E+02  0.12237881121E+03  0.00000000000E+00 0. -1.
        -13    1    3    3    0    0  0.13604618024E+03  0.52722566389E+02 -0.11861916679E+02  0.14638626039E+03  0.00000000000E+00 0.  1.
         13    1    3    3    0    0  0.29773319586E+02 -0.19885201768E+02 -0.37618875961E+02  0.51933145843E+02  0.00000000000E+00 0. -1.
         21    1    1    2  502  503 -0.87179604079E+01  0.20788030587E+02  0.12761871603E+03  0.12959429667E+03  0.00000000000E+00 0. -1.
         21    1    1    2  503  501 -0.22982813246E+02  0.66409222031E+00 -0.34751392605E+02  0.41669053399E+02  0.00000000000E+00 0.  1.
<scales pt_clust_5="13000.00000" pt_clust_6="13000.00000" pt_clust_7="13000.00000" pt_clust_8="13000.00000" pt_clust_9="22.54207" pt_clust_10="23.20966"></scales>
<clustering>
<clus scale="   22.542">  1  9  2 -1</clus>
<clus scale="   23.210">  2 10  1 -1</clus>
<clus scale="   90.054">  5  6 -1 -1</clus>
<clus scale="   91.147">  7  8 -1 -1</clus>
<clus scale="  179.305">  1  5  2 -1</clus>
<clus scale="   22.542">  1  5  2 -1</clus>
</clustering>
</event>
<event>
10    2  0.1898324E-006  0.3120882E+03  0.7546771E-02  0.1126810E+00
          2   -1    0    0  502    0  0.00000000000E+00  0.00000000000E+00  0.10121166407E+03  0.10121166407E+03  0.00000000000E+00 0. -1.
         -2   -1    0    0    0  501 -0.00000000000E+00 -0.00000000000E+00 -0.21734816203E+04  0.21734816203E+04  0.00000000000E+00 0.  1.
         23    2    1    2    0    0  0.11435109812E+02 -0.33084464563E+03 -0.12163782365E+04  0.12638520114E+04  0.90315841353E+02 0.  0.
         23    2    1    2    0    0  0.10736205892E+02 -0.11049772357E+02 -0.39838925422E+02  0.99957291501E+02  0.90371215325E+02 0.  0.
        -13    1    3    3    0    0 -0.30131508400E+02 -0.54389357897E+02 -0.18033634432E+03  0.19075457304E+03  0.00000000000E+00 0. -1.
         13    1    3    3    0    0  0.41566618212E+02 -0.27645528773E+03 -0.10360418922E+04  0.10730974384E+04  0.00000000000E+00 0.  1.
        -13    1    4    4    0    0  0.38553776358E+02 -0.30460466948E+02 -0.43778701840E+02  0.65808878223E+02  0.00000000000E+00 0. -1.
         13    1    4    4    0    0 -0.27817570466E+02  0.19410694591E+02  0.39397764188E+01  0.34148413278E+02  0.00000000000E+00 0.  1.
         21    1    1    2  502  503 -0.58122361811E+02  0.75472374848E+02 -0.70985534501E+02  0.11879913474E+03  0.00000000000E+00 0.  1.
         21    1    1    2  503  501  0.35951046107E+02  0.26642204314E+03 -0.74506725981E+03  0.79208484673E+03  0.00000000000E+00 0. -1.
<scales pt_clust_5="13000.00000" pt_clust_6="13000.00000" pt_clust_7="13000.00000" pt_clust_8="13000.00000" pt_clust_9="90.11853" pt_clust_10="298.73415"></scales>
<clustering>
<clus scale="   90.316">  5  6 -1 -1</clus>
<clus scale="   90.371">  7  8 -1 -1</clus>
<clus scale="   91.675">  1  7  2 -1</clus>
<clus scale="   90.119">  1  9  2 -1</clus>
<clus scale="  298.734">  1 10  2 -1</clus>
<clus scale="   91.675">  1  5  2 -1</clus>
</clustering>
</event>
<event>
10    2  0.1898324E-006  0.2399827E+03  0.7546771E-02  0.1143900E+00
         -1   -1    0    0    0  501 -0.00000000000E+00  0.00000000000E+00  0.20916917723E+03  0.20916917723E+03  0.00000000000E+00 0.  1.
          1   -1    0    0  502    0  0.00000000000E+00 -0.00000000000E+00 -0.75785295077E+03  0.75785295077E+03  0.00000000000E+00 0. -1.
         23    2    1    2    0    0  0.82531331735E+02 -0.49048577496E+02  0.27802344589E+02  0.13483384211E+03  0.90498679229E+02 0.  0.
         23    2    1    2    0    0 -0.25396211104E+03  0.30502025946E+02 -0.56899504004E+03  0.63047336201E+03  0.91182109988E+02 0.  0.
        -11    1    3    3    0    0  0.55889726728E+01  0.24688014052E+02  0.38325202551E+01  0.25601227800E+02  0.00000000000E+00 0.  1.
         11    1    3    3    0    0  0.76942359062E+02 -0.73736591548E+02  0.23969824334E+02  0.10923261431E+03  0.00000000000E+00 0. -1.
        -11    1    4    4    0    0 -0.58837438078E+02  0.47471579787E+02 -0.15118687661E+03  0.16903510484E+03  0.00000000000E+00 0.  1.
         11    1    4    4    0    0 -0.19512467296E+03 -0.16969553841E+02 -0.41780816343E+03  0.46143825717E+03  0.00000000000E+00 0. -1.
         21    1    1    2  502  503  0.14216274539E+02 -0.16294490209E+02 -0.32214341120E+02  0.38799183583E+02  0.00000000000E+00 0. -1.
         21    1    1    2  503  501  0.15721450476E+03  0.34841041759E+02  0.24723263038E+02  0.16291574029E+03  0.00000000000E+00 0.  1.
<scales pt_clust_5="13000.00000" pt_clust_6="13000.00000" pt_clust_7="13000.00000" pt_clust_8="13000.00000" pt_clust_9="21.62436" pt_clust_10="221.98536"></scales>
<clustering>
<clus scale="   21.624">  2  9  1 -1</clus>
<clus scale="   90.499">  5  6 -1 -1</clus>
<clus scale="   91.182">  7  8 -1 -1</clus>
<clus scale="  133.049">  1  5  2 -1</clus>
<clus scale="  221.985">  1 10  2 -1</clus>
<clus scale="   21.624">  2  5  1 -1</clus>
</clustering>
</event>
<event>
10    2  0.1898324E-006  0.1634856E+03  0.7546771E-02  0.1185452E+00
          1   -1    0    0  502    0  0.00000000000E+00  0.00000000000E+00  0.70259321827E+03  0.70259321827E+03  0.00000000000E+00 0. -1.
         -1   -1    0    0    0  501 -0.00000000000E+00 -0.00000000000E+00 -0.54682230257E+03  0.54682230257E+03  0.00000000000E+00 0.  1.
         23    2    1    2    0    0  0.85787341327E+02  0.52224284636E+02 -0.13145339632E+03  0.19078839116E+03  0.95044047463E+02 0.  0.
         23    2    1    2    0    0 -0.55458568980E+02 -0.13909792780E+03  0.37903684246E+03  0.41758829141E+03  0.91033877139E+02 0.  0.
        -11    1    3    3    0    0  0.10281657760E+03  0.30025079024E+02 -0.85776885645E+02  0.13722400705E+03  0.00000000000E+00 0.  1.
         11    1    3    3    0    0 -0.17029236268E+02  0.22199205612E+02 -0.45676510674E+02  0.53564384109E+02  0.00000000000E+00 0. -1.
        -11    1    4    4    0    0 -0.16879622627E+02 -0.13523312403E+03  0.30295619478E+03  0.33219779568E+03  0.00000000000E+00 0. -1.
         11    1    4    4    0    0 -0.38578946353E+02 -0.38648037637E+01  0.76080647677E+02  0.85390495729E+02  0.00000000000E+00 0.  1.
         21    1    1    2  502  503 -0.22230069698E+02  0.26168545464E+02  0.27096316401E+03  0.27313001486E+03  0.00000000000E+00 0. -1.
         21    1    1    2  503  501 -0.80987026485E+01  0.60705097695E+02 -0.36277569444E+03  0.36790882342E+03  0.00000000000E+00 0.  1.
<scales pt_clust_5="13000.00000" pt_clust_6="13000.00000" pt_clust_7="13000.00000" pt_clust_8="13000.00000" pt_clust_9="34.33611" pt_clust_10="61.41519"></scales>
<clustering>
<clus scale="   34.336">  1  9  2 -1</clus>
<clus scale="   61.415">  2 10  1 -1</clus>
<clus scale="   91.034">  7  8 -1 -1</clus>
<clus scale="   95.044">  5  6 -1 -1</clus>
<clus scale="  161.187">  1  7  2 -1</clus>
<clus scale="   34.336">  1  5  2 -1</clus>
</clustering>
</event>
<event>
10    2  0.1898324E-006  0.1272838E+03  0.7546771E-02  0.1234863E+00
          1   -1    0    0  502    0  0.00000000000E+00  0.00000000000E+00  0.42203605561E+03  0.42203605561E+03  0.00000000000E+00 0. -1.
         -1   -1    0    0    0  501 -0.00000000000E+00 -0.00000000000E+00 -0.10170511811E+03  0.10170511811E+03  0.00000000000E+00 0.  1.
         23    2    1    2    0    0  0.79743890938E+02  0.25010444881E+01  0.40239261103E+02  0.12017585793E+03  0.80359786777E+02 0.  0.
         23    2    1    2    0    0 -0.78817613945E+02 -0.31240770165E+02  0.13307858726E+03  0.18281621299E+03  0.92323644616E+02 0.  0.
        -11    1    3    3    0    0  0.60749330639E+02  0.18265621797E+02  0.60936739402E+02  0.87962493835E+02  0.00000000000E+00 0.  1.
         11    1    3    3    0    0  0.18994560299E+02 -0.15764577309E+02 -0.20697478299E+02  0.32213364100E+02  0.00000000000E+00 0. -1.
        -13    1    4    4    0    0 -0.19216307394E+02  0.26872870079E+02  0.73089905816E+02  0.80209425557E+02  0.00000000000E+00 0. -1.
         13    1    4    4    0    0 -0.59601306551E+02 -0.58113640244E+02  0.59988681444E+02  0.10260678743E+03  0.00000000000E+00 0.  1.
         21    1    1    2  502  503 -0.42664062017E+02  0.68608180672E+01  0.16480626430E+03  0.17037722196E+03  0.00000000000E+00 0. -1.
         21    1    1    2  503  501  0.41737785025E+02  0.21878907610E+02 -0.17793175157E+02  0.50371880838E+02  0.00000000000E+00 0.  1.
<scales pt_clust_5="13000.00000" pt_clust_6="13000.00000" pt_clust_7="13000.00000" pt_clust_8="13000.00000" pt_clust_9="43.21219" pt_clust_10="44.93999"></scales>
<clustering>
<clus scale="   43.212">  1  9  2 -1</clus>
<clus scale="   44.940">  2 10  1 -1</clus>
<clus scale="   80.360">  5  6 -1 -1</clus>
<clus scale="   92.324">  7  8 -1 -1</clus>
<clus scale="  118.892">  2  5  1 -1</clus>
<clus scale="   43.212">  1  5  2 -1</clus>
</clustering>
</event>
<event>
10    2  0.1898324E-006  0.1225889E+03  0.7546771E-02  0.1239129E+00
         -1   -1    0    0    0  501 -0.00000000000E+00  0.00000000000E+00  0.36994942313E+03  0.36994942313E+03  0.00000000000E+00 0.  1.
          1   -1    0    0  502    0  0.00000000000E+00 -0.00000000000E+00 -0.94016735143E+02  0.94016735143E+02  0.00000000000E+00 0. -1.
         23    2    1    2    0    0 -0.63290029351E+02  0.98421050389E+01  0.84600433528E+02  0.14031131771E+03  0.91801621322E+02 0.  0.
         23    2    1    2    0    0  0.96671053404E+02  0.40172422365E+02  0.13376819663E+03  0.19346423325E+03  0.92603256051E+02 0.  0.
        -11    1    4    4    0    0  0.91406675775E+02  0.16881276984E+02  0.14067131664E+03  0.16860776143E+03  0.00000000000E+00 0.  1.
         11    1    4    4    0    0  0.52643776291E+01  0.23291145381E+02 -0.69031200177E+01  0.24856471812E+02  0.00000000000E+00 0. -1.
        -13    1    3    3    0    0 -0.21438698797E+02  0.47926612291E+02  0.25080844637E+02  0.58186138723E+02  0.00000000000E+00 0.  1.
         13    1    3    3    0    0 -0.41851330554E+02 -0.38084507252E+02  0.59519588891E+02  0.82125178986E+02  0.00000000000E+00 0. -1.
         21    1    1    2  502  503 -0.41510881881E+02 -0.71659720105E+02  0.18592248149E+02  0.84876030134E+02  0.00000000000E+00 0. -1.
         21    1    1    2  503  501  0.81298578281E+01  0.21645192702E+02  0.38971809686E+02  0.45314577187E+02  0.00000000000E+00 0. -1.
<scales pt_clust_5="13000.00000" pt_clust_6="13000.00000" pt_clust_7="13000.00000" pt_clust_8="13000.00000" pt_clust_9="79.21793" pt_clust_10="23.12161"></scales>
<clustering>
<clus scale="   23.122">  1 10  2 -1</clus>
<clus scale="   79.218">  2  9  1 -1</clus>
<clus scale="   91.802">  7  8 -1 -1</clus>
<clus scale="   92.603">  5  6 -1 -1</clus>
<clus scale="  121.984">  1  7  2 -1</clus>
<clus scale="   79.218">  2  5  1 -1</clus>
</clustering>
</event>
<event>
10    2  0.1898324E-006  0.9823317E+02  0.7546771E-02  0.1287575E+00
          2   -1    0    0  502    0  0.00000000000E+00  0.00000000000E+00  0.15346256318E+03  0.15346256318E+03  0.00000000000E+00 0. -1.
         -2   -1    0    0    0  501 -0.00000000000E+00 -0.00000000000E+00 -0.22649276364E+03  0.22649276364E+03  0.00000000000E+00 0.  1.
         23    2    1    2    0    0  0.37407809080E+02  0.17583320830E+02 -0.68275999880E+02  0.12100265305E+03  0.90947856126E+02 0.  0.
         23    2    1    2    0    0  0.31866896238E+02 -0.39610942458E+01 -0.24146183690E+02  0.99532808369E+02  0.91063452667E+02 0.  0.
        -13    1    3    3    0    0 -0.25691231994E+02  0.10211396758E+02  0.13113561948E+00  0.27646504692E+02  0.00000000000E+00 0.  1.
         13    1    3    3    0    0  0.63099041074E+02  0.73719240723E+01 -0.68407135499E+02  0.93356148358E+02  0.00000000000E+00 0. -1.
        -13    1    4    4    0    0  0.21531877628E+02  0.39583246106E+02 -0.30382195937E+02  0.54346416224E+02  0.00000000000E+00 0.  1.
         13    1    4    4    0    0  0.10335018610E+02 -0.43544340351E+02  0.62360122477E+01  0.45186392145E+02  0.00000000000E+00 0. -1.
         21    1    1    2  502  503 -0.10479521418E+03  0.18005948331E+02  0.30420765743E+02  0.11059689905E+03  0.00000000000E+00 0.  1.
         21    1    1    2  503  501  0.35520508860E+02 -0.31628174916E+02 -0.11028782633E+02  0.48822966363E+02  0.00000000000E+00 0. -1.
<scales pt_clust_5="13000.00000" pt_clust_6="13000.00000" pt_clust_7="13000.00000" pt_clust_8="13000.00000" pt_clust_9="98.23317" pt_clust_10="47.56099"></scales>
<clustering>
<clus scale="   47.561">  2 10  1 -1</clus>
<clus scale="   90.948">  5  6 -1 -1</clus>
<clus scale="   91.063">  7  8 -1 -1</clus>
<clus scale="   98.233">  1  9  2 -1</clus>
<clus scale="   91.927">  2  5  1 -1</clus>
<clus scale="   98.233">  1  5  2 -1</clus>
</clustering>
</event>
<event>
10    2  0.1898324E-006  0.1375618E+03  0.7546771E-02  0.1217497E+00
         -3   -1    0    0    0  501 -0.00000000000E+00  0.00000000000E+00  0.58885847636E+02  0.58885847636E+02  0.00000000000E+00 0.  1.
          3   -1    0    0  502    0  0.00000000000E+00 -0.00000000000E+00 -0.93085261091E+03  0.93085261091E+03  0.00000000000E+00 0. -1.
         23    2    1    2    0    0 -0.38918139339E+02 -0.95223158956E+02 -0.42131879886E+03  0.44398122323E+03  0.95014339650E+02 0.  0.
         23    2    1    2    0    0  0.35839653926E+02  0.80658889485E+02 -0.31158992351E+03  0.33848594351E+03  0.98458703384E+02 0.  0.
        -11    1    3    3    0    0 -0.63809830984E+02 -0.30914256412E+02 -0.22460473007E+03  0.23553061489E+03  0.00000000000E+00 0.  1.
         11    1    3    3    0    0  0.24891691645E+02 -0.64308902544E+02 -0.19671406879E+03  0.20845060834E+03  0.00000000000E+00 0. -1.
        -11    1    4    4    0    0 -0.26716374997E+01  0.85923533611E+02 -0.15603819080E+03  0.17815136335E+03  0.00000000000E+00 0.  1.
         11    1    4    4    0    0  0.38511291426E+02 -0.52646441255E+01 -0.15555173272E+03  0.16033458016E+03  0.00000000000E+00 0. -1.
         21    1    1    2  502  503 -0.39822228397E+02 -0.28115182178E+02 -0.13842070798E+03  0.14675341816E+03  0.00000000000E+00 0. -1.
         21    1    1    2  503  501  0.42900713809E+02  0.42679451649E+02 -0.63733293013E+00  0.60517873654E+02  0.00000000000E+00 0.  1.
<scales pt_clust_5="13000.00000" pt_clust_6="13000.00000" pt_clust_7="13000.00000" pt_clust_8="13000.00000" pt_clust_9="48.74703" pt_clust_10="58.65107"></scales>
<clustering>
<clus scale="   48.747">  2  9  1 -1</clus>
<clus scale="   58.651">  1 10  2 -1</clus>
<clus scale="   95.014">  5  6 -1 -1</clus>
<clus scale="   98.459">  7  8 -1 -1</clus>
<clus scale="  135.118">  1  5  2 -1</clus>
<clus scale="   48.747">  2  5  1 -1</clus>
</clustering>
</event>
<event>
10    2  0.1898324E-006  0.1383270E+03  0.7546771E-02  0.1217445E+00
         -1   -1    0    0    0  501 -0.00000000000E+00  0.00000000000E+00  0.20024087971E+03  0.20024087971E+03  0.00000000000E+00 0.  1.
          1   -1    0    0  502    0  0.00000000000E+00 -0.00000000000E+00 -0.55365390676E+03  0.55365390676E+03  0.00000000000E+00 0. -1.
         23    2    1    2    0    0  0.13392085235E+03  0.23492085472E+02  0.75423452127E+02  0.17587211285E+03  0.82192640625E+02 0.  0.
         23    2    1    2    0    0 -0.94941133840E+02 -0.55571769458E+02 -0.45863607320E+03  0.47725117100E+03  0.72935534068E+02 0.  0.
        -11    1    4    4    0    0 -0.17407623880E+02  0.17997372545E+02 -0.81104797517E+02  0.84881794090E+02  0.00000000000E+00 0.  1.
         11    1    4    4    0    0 -0.77533509960E+02 -0.73569142003E+02 -0.37753127568E+03  0.39236937691E+03  0.00000000000E+00 0. -1.
        -13    1    3    3    0    0  0.73513742433E+02  0.53014786316E+02  0.53008264308E+02  0.10499863799E+03  0.00000000000E+00 0.  1.
         13    1    3    3    0    0  0.60407109919E+02 -0.29522700844E+02  0.22415187819E+02  0.70873474861E+02  0.00000000000E+00 0. -1.
         21    1    1    2  502  503 -0.23846767262E+02  0.45268151921E+02 -0.13610898987E+02  0.52944598010E+02  0.00000000000E+00 0.  1.
         21    1    1    2  503  501 -0.15132951251E+02 -0.13188467936E+02  0.43410493016E+02  0.47826904604E+02  0.00000000000E+00 0.  1.
<scales pt_clust_5="13000.00000" pt_clust_6="13000.00000" pt_clust_7="13000.00000" pt_clust_8="13000.00000" pt_clust_9="50.63912" pt_clust_10="20.07341"></scales>
<clustering>
<clus scale="   20.073">  1 10  2 -1</clus>
<clus scale="   50.639">  1  9  2 -1</clus>
<clus scale="   72.936">  5  6 -1 -1</clus>
<clus scale="   82.193">  7  8 -1 -1</clus>
<clus scale="  133.035">  2  5  1 -1</clus>
<clus scale="  133.035">  2  5  1 -1</clus>
</clustering>
</event>
<event>
10    2  0.1898324E-006  0.1243806E+03  0.7546771E-02  0.1236350E+00
          2   -1    0    0  502    0  0.00000000000E+00  0.00000000000E+00  0.51998411547E+03  0.51998411547E+03  0.00000000000E+00 0. -1.
         -2   -1    0    0    0  501 -0.00000000000E+00 -0.00000000000E+00 -0.11874314987E+03  0.11874314987E+03  0.00000000000E+00 0.  1.
         23    2    1    2    0    0 -0.81086457445E+01  0.22422840566E+02  0.22280865594E+02  0.98962784398E+02  0.93427307621E+02 0.  0.
         23    2    1    2    0    0  0.45962338383E+02 -0.12309580565E+03  0.23861460257E+03  0.28763927188E+03  0.92381319813E+02 0.  0.
        -11    1    4    4    0    0  0.24070936786E+02 -0.21735134134E+01  0.65420573515E+01  0.25038623619E+02  0.00000000000E+00 0.  1.
         11    1    4    4    0    0  0.21891401597E+02 -0.12092229223E+03  0.23207254522E+03  0.26260064826E+03  0.00000000000E+00 0. -1.
        -13    1    3    3    0    0 -0.33184356146E+02  0.13226688315E+02 -0.25728643328E+02  0.44023969200E+02  0.00000000000E+00 0. -1.
         13    1    3    3    0    0  0.25075710402E+02  0.91961522501E+01  0.48009508922E+02  0.54938815197E+02  0.00000000000E+00 0.  1.
         21    1    1    2  502  503 -0.43867089356E+02  0.14925654571E+02  0.15775725103E+03  0.16442155256E+03  0.00000000000E+00 0. -1.
         21    1    1    2  503  501  0.60133967170E+01  0.85747310511E+02 -0.17411753597E+02  0.87703656499E+02  0.00000000000E+00 0.  1.
<scales pt_clust_5="13000.00000" pt_clust_6="13000.00000" pt_clust_7="13000.00000" pt_clust_8="13000.00000" pt_clust_9="46.33677" pt_clust_10="87.22587"></scales>
<clustering>
<clus scale="   46.337">  1  9  2 -1</clus>
<clus scale="   87.226">  2 10  1 -1</clus>
<clus scale="   92.381">  5  6 -1 -1</clus>
<clus scale="   93.427">  7  8 -1 -1</clus>
<clus scale="  123.597">  1  5  2 -1</clus>
<clus scale="   46.337">  1  5  2 -1</clus>
</clustering>
</event>
<event>
10    2  0.1898324E-006  0.9355782E+02  0.7546771E-02  0.1296668E+00
          2   -1    0    0  502    0  0.00000000000E+00  0.00000000000E+00  0.47097282367E+03  0.47097282367E+03  0.00000000000E+00 0. -1.
         -2   -1    0    0    0  501 -0.00000000000E+00 -0.00000000000E+00 -0.74224348500E+02  0.74224348500E+02  0.00000000000E+00 0.  1.
         23    2    1    2    0    0 -0.78417657622E+01  0.25904899483E+02  0.25925340311E+02  0.95432503346E+02  0.87764926463E+02 0.  0.
         23    2    1    2    0    0 -0.42959862983E+02  0.25631232949E+02  0.28063960496E+03  0.29942206195E+03  0.91610443622E+02 0.  0.
        -11    1    3    3    0    0 -0.42890779569E+02  0.60099546302E+01 -0.63849389245E+01  0.43777916485E+02  0.00000000000E+00 0.  1.
         11    1    3    3    0    0  0.35049013807E+02  0.19894944853E+02  0.32310279236E+02  0.51654586861E+02  0.00000000000E+00 0. -1.
        -13    1    4    4    0    0  0.92098755587E+01 -0.22257334241E+02  0.27472494807E+02  0.36536949876E+02  0.00000000000E+00 0.  1.
         13    1    4    4    0    0 -0.52169738542E+02  0.47888567191E+02  0.25316711016E+03  0.26288511208E+03  0.00000000000E+00 0. -1.
         21    1    1    2  502  503  0.39002518717E+02  0.74574593016E+01  0.80016263934E+02  0.89327558230E+02  0.00000000000E+00 0. -1.
         21    1    1    2  503  501  0.11799110028E+02 -0.58993591734E+02  0.10167265959E+02  0.61015048638E+02  0.00000000000E+00 0. -1.
<scales pt_clust_5="13000.00000" pt_clust_6="13000.00000" pt_clust_7="13000.00000" pt_clust_8="13000.00000" pt_clust_9="39.70907" pt_clust_10="60.30406"></scales>
<clustering>
<clus scale="   39.709">  1  9  2 -1</clus>
<clus scale="   60.304">  2 10  1 -1</clus>
<clus scale="   87.765">  5  6 -1 -1</clus>
<clus scale="   89.796">  2  5  1 -1</clus>
<clus scale="   91.610">  7  8 -1 -1</clus>
<clus scale="   39.709">  1  5  2 -1</clus>
</clustering>
</event>
<event>
10    2  0.1898324E-006  0.1347032E+03  0.7546771E-02  0.1251683E+00
          1   -1    0    0  502    0  0.00000000000E+00  0.00000000000E+00  0.52816564350E+03  0.52816564350E+03  0.00000000000E+00 0. -1.
         -1   -1    0    0    0  501 -0.00000000000E+00 -0.00000000000E+00 -0.10098089055E+03  0.10098089055E+03  0.00000000000E+00 0.  1.
         23    2    1    2    0    0  0.32025637904E+01 -0.11149897490E+03  0.14988080535E+02  0.14440278831E+03  0.90472343270E+02 0.  0.
         23    2    1    2    0    0  0.32752226548E+02 -0.22714378091E+02  0.88317000648E+02  0.11410528138E+03  0.60261690307E+02 0.  0.
        -11    1    4    4    0    0  0.49065843601E+02 -0.70873731518E+01  0.63193518105E+02  0.80318793548E+02  0.00000000000E+00 0.  1.
         11    1    4    4    0    0 -0.16313617053E+02 -0.15627004939E+02  0.25123482543E+02  0.33786487829E+02  0.00000000000E+00 0. -1.
        -13    1    3    3    0    0 -0.28590619224E+02 -0.86120012914E+01 -0.13858607140E+02  0.32918855778E+02  0.00000000000E+00 0. -1.
         13    1    3    3    0    0  0.31793183015E+02 -0.10288697361E+03  0.28846687674E+02  0.11148393254E+03  0.00000000000E+00 0.  1.
         21    1    1    2  502  503 -0.37133672770E+02  0.11296342194E+03  0.32806320176E+03  0.34894857601E+03  0.00000000000E+00 0. -1.
         21    1    1    2  503  501  0.11788824315E+01  0.21249931052E+02 -0.41835300000E+01  0.21689888353E+02  0.00000000000E+00 0. -1.
<scales pt_clust_5="13000.00000" pt_clust_6="13000.00000" pt_clust_7="13000.00000" pt_clust_8="13000.00000" pt_clust_9="99.79834" pt_clust_10="21.28261"></scales>
<clustering>
<clus scale="   21.283">  2 10  1 -1</clus>
<clus scale="   60.262">  5  6 -1 -1</clus>
<clus scale="   71.413">  1  5  2 -1</clus>
<clus scale="   90.472">  7  8 -1 -1</clus>
<clus scale="   99.798">  1  9  2 -1</clus>
<clus scale="   71.413">  1  5  2 -1</clus>
</clustering>
</event>
<event>
10    2  0.1898324E-006  0.1787995E+03  0.7546771E-02  0.1192767E+00
          2   -1    0    0  502    0  0.00000000000E+00  0.00000000000E+00  0.43348921155E+03  0.43348921155E+03  0.00000000000E+00 0. -1.
         -2   -1    0    0    0  501 -0.00000000000E+00 -0.00000000000E+00 -0.18791722434E+03  0.18791722434E+03  0.00000000000E+00 0.  1.
         23    2    1    2    0    0 -0.24945910293E+02  0.44832456914E+02  0.80388913323E+01  0.10594322281E+03  0.92342271212E+02 0.  0.
         23    2    1    2    0    0  0.52236860576E+02 -0.17738871805E+03  0.11357416146E+03  0.23290210928E+03  0.84550904560E+02 0.  0.
        -11    1    3    3    0    0 -0.12354708059E+02 -0.21751621209E+02 -0.20570791115E+02  0.32387177765E+02  0.00000000000E+00 0. -1.
         11    1    3    3    0    0 -0.12591202234E+02  0.66584078123E+02  0.28609682447E+02  0.73556045047E+02  0.00000000000E+00 0.  1.
        -13    1    4    4    0    0  0.20977885051E+02 -0.96774393971E-01  0.23824389726E+02  0.31744016323E+02  0.00000000000E+00 0. -1.
         13    1    4    4    0    0  0.31258975525E+02 -0.17729194365E+03  0.89749771732E+02  0.20115809296E+03  0.00000000000E+00 0.  1.
         21    1    1    2  502  503 -0.85741114441E+02  0.11973249762E+03  0.15612654224E+03  0.21462270822E+03  0.00000000000E+00 0. -1.
         21    1    1    2  503  501  0.58450164158E+02  0.12823763516E+02 -0.32167607821E+02  0.67938395578E+02  0.00000000000E+00 0.  1.
<scales pt_clust_5="13000.00000" pt_clust_6="13000.00000" pt_clust_7="13000.00000" pt_clust_8="13000.00000" pt_clust_9="157.54490" pt_clust_10="59.84038"></scales>
<clustering>
<clus scale="   59.840">  2 10  1 -1</clus>
<clus scale="   84.551">  7  8 -1 -1</clus>
<clus scale="   92.342">  5  6 -1 -1</clus>
<clus scale="  104.803">  2  5  1 -1</clus>
<clus scale="  157.545">  1  9  2 -1</clus>
<clus scale="  157.545">  1  5  2 -1</clus>
</clustering>
</event>
<event>
10    2  0.1898324E-006  0.2392443E+03  0.7546771E-02  0.1143104E+00
          3   -1    0    0  502    0  0.00000000000E+00  0.00000000000E+00  0.12720359722E+04  0.12720359722E+04  0.00000000000E+00 0. -1.
         -3   -1    0    0    0  501 -0.00000000000E+00 -0.00000000000E+00 -0.19085022353E+03  0.19085022353E+03  0.00000000000E+00 0.  1.
         23    2    1    2    0    0  0.11395427946E+03  0.20481218702E+03  0.79939237405E+03  0.83791750219E+03  0.90243908552E+02 0.  0.
         23    2    1    2    0    0  0.70292266144E+02 -0.79617459227E+02  0.29690611221E+03  0.32875111315E+03  0.92973719075E+02 0.  0.
        -13    1    3    3    0    0  0.92705992821E+01  0.38472442231E+02  0.53374918875E+02  0.66445126136E+02  0.00000000000E+00 0.  1.
         13    1    3    3    0    0  0.10468368018E+03  0.16633974479E+03  0.74601745517E+03  0.77147237605E+03  0.00000000000E+00 0. -1.
        -13    1    4    4    0    0  0.84293327890E+02 -0.33260200396E+02  0.16514892578E+03  0.18837668047E+03  0.00000000000E+00 0.  1.
         13    1    4    4    0    0 -0.14001061747E+02 -0.46357258830E+02  0.13175718643E+03  0.14037443269E+03  0.00000000000E+00 0. -1.
         21    1    1    2  502  503 -0.14283171055E+02  0.17150930232E+02  0.58503998683E+02  0.62616940560E+02  0.00000000000E+00 0. -1.
         21    1    1    2  503  501 -0.16996337455E+03 -0.14234565802E+03 -0.73616736298E+02  0.23360063979E+03  0.00000000000E+00 0.  1.
<scales pt_clust_5="13000.00000" pt_clust_6="13000.00000" pt_clust_7="13000.00000" pt_clust_8="13000.00000" pt_clust_9="22.31957" pt_clust_10="221.57136"></scales>
<clustering>
<clus scale="   22.320">  1  9  2 -1</clus>
<clus scale="   90.244">  5  6 -1 -1</clus>
<clus scale="   92.974">  7  8 -1 -1</clus>
<clus scale="  136.871">  1  7  2 -1</clus>
<clus scale="  221.571">  2 10  1 -1</clus>
<clus scale="   22.320">  1  5  2 -1</clus>
</clustering>
</event>
<event>
10    2  0.1898324E-006  0.9741946E+02  0.7546771E-02  0.1286466E+00
          1   -1    0    0  503    0  0.00000000000E+00  0.00000000000E+00  0.12383222613E+03  0.12383222613E+03  0.00000000000E+00 0. -1.
         -1   -1    0    0    0  501 -0.00000000000E+00 -0.00000000000E+00 -0.20367686504E+03  0.20367686504E+03  0.00000000000E+00 0.  1.
         23    2    1    2    0    0 -0.27511007438E+02 -0.32713615036E+01 -0.80491407657E+01  0.96531934268E+02  0.92119858501E+02 0.  0.
         23    2    1    2    0    0  0.31105878870E+02 -0.21109587685E+02  0.31840310196E+02  0.10336367672E+03  0.90868332879E+02 0.  0.
        -13    1    4    4    0    0  0.34792422228E+02  0.24754632836E+02 -0.68506540056E+01  0.43246224710E+02  0.00000000000E+00 0. -1.
         13    1    4    4    0    0 -0.36865433579E+01 -0.45864220521E+02  0.38690964202E+02  0.60117452015E+02  0.00000000000E+00 0.  1.
        -13    1    3    3    0    0 -0.60312718985E+02  0.47017155365E+01 -0.14392733200E+02  0.62184250171E+02  0.00000000000E+00 0.  1.
         13    1    3    3    0    0  0.32801711547E+02 -0.79730770400E+01  0.63435924347E+01  0.34347684098E+02  0.00000000000E+00 0. -1.
         21    1    1    2  502  501  0.27486409450E+02  0.10485691309E+02 -0.15762532249E+02  0.33375288008E+02  0.00000000000E+00 0. -1.
         21    1    1    2  503  502 -0.31081280883E+02  0.13895257880E+02 -0.87873276089E+02  0.94238192170E+02  0.00000000000E+00 0.  1.
<scales pt_clust_5="13000.00000" pt_clust_6="13000.00000" pt_clust_7="13000.00000" pt_clust_8="13000.00000" pt_clust_9="29.41857" pt_clust_10="25.73539"></scales>
<clustering>
<clus scale="   29.419">  2  9  1 -1</clus>
<clus scale="   25.735">  2 10  1 -1</clus>
<clus scale="   90.868">  5  6 -1 -1</clus>
<clus scale="   92.120">  7  8 -1 -1</clus>
<clus scale="   96.237">  1  5  2 -1</clus>
<clus scale="   96.237">  1  5  2 -1</clus>
</clustering>
</event>
<event>
10    2  0.1898324E-006  0.1652980E+03  0.7546771E-02  0.1182904E+00
          1   -1    0    0  502    0  0.00000000000E+00  0.00000000000E+00  0.10170438219E+03  0.10170438219E+03  0.00000000000E+00 0. -1.
         -1   -1    0    0    0  501 -0.00000000000E+00 -0.00000000000E+00 -0.84474591918E+03  0.84474591918E+03  0.00000000000E+00 0.  1.
         23    2    1    2    0    0 -0.91940427094E+02  0.88017076117E+02 -0.63441887901E+03  0.65343318382E+03  0.91036057944E+02 0.  0.
         23    2    1    2    0    0  0.10882475365E+03 -0.74200990317E+02  0.59292042886E+01  0.15998734292E+03  0.90621081756E+02 0.  0.
        -13    1    3    3    0    0 -0.49283782824E+02  0.92859740126E+02 -0.53355390116E+03  0.54381208890E+03  0.00000000000E+00 0. -1.
         13    1    3    3    0    0 -0.42656644270E+02 -0.48426640087E+01 -0.10086497785E+03  0.10962109492E+03  0.00000000000E+00 0.  1.
        -13    1    4    4    0    0  0.53282440582E+02 -0.54024382160E+02 -0.39411237757E+02  0.85503789411E+02  0.00000000000E+00 0.  1.
         13    1    4    4    0    0  0.55542313073E+02 -0.20176608157E+02  0.45340442046E+02  0.74483553508E+02  0.00000000000E+00 0. -1.
         21    1    1    2  502  503 -0.16659912864E+02 -0.33924222516E+02 -0.36915901775E+02  0.52831708034E+02  0.00000000000E+00 0.  1.
         21    1    1    2  503  501 -0.22441369688E+00  0.20108136716E+02 -0.77635960494E+02  0.80198066595E+02  0.00000000000E+00 0.  1.
<scales pt_clust_5="13000.00000" pt_clust_6="13000.00000" pt_clust_7="13000.00000" pt_clust_8="13000.00000" pt_clust_9="36.74630" pt_clust_10="20.10939"></scales>
<clustering>
<clus scale="   20.109">  2 10  1 -1</clus>
<clus scale="   36.746">  1  9  2 -1</clus>
<clus scale="   90.621">  7  8 -1 -1</clus>
<clus scale="   91.036">  5  6 -1 -1</clus>
<clus scale="  165.070">  1  7  2 -1</clus>
<clus scale="   36.746">  1  5  2 -1</clus>
</clustering>
</event>
<event>
10    2  0.1898324E-006  0.1632211E+03  0.7546771E-02  0.1208472E+00
         -2   -1    0    0    0  501 -0.00000000000E+00  0.00000000000E+00  0.15741781610E+03  0.15741781610E+03  0.00000000000E+00 0.  1.
          2   -1    0    0  502    0  0.00000000000E+00 -0.00000000000E+00 -0.11722995769E+04  0.11722995769E+04  0.00000000000E+00 0. -1.
         23    2    1    2    0    0 -0.85983808882E+01 -0.41365610067E+02  0.15338736025E+02  0.99177323475E+02  0.88407119729E+02 0.  0.
         23    2    1    2    0    0 -0.73932243179E+02  0.15783188547E+02 -0.12496102766E+03  0.17129733049E+03  0.89512185630E+02 0.  0.
        -11    1    4    4    0    0 -0.13706056469E+02 -0.35047238646E+02 -0.49552035495E+02  0.62221934575E+02  0.00000000000E+00 0.  1.
         11    1    4    4    0    0 -0.60226186709E+02  0.50830427193E+02 -0.75408992166E+02  0.10907539591E+03  0.00000000000E+00 0. -1.
        -11    1    3    3    0    0 -0.33835650660E+02 -0.44387241965E+02  0.36004810735E+02  0.66418558407E+02  0.00000000000E+00 0.  1.
         11    1    3    3    0    0  0.25237269772E+02  0.30216318977E+01 -0.20666074710E+02  0.32758765068E+02  0.00000000000E+00 0. -1.
         21    1    1    2  502  503  0.12768840202E+02  0.16572726265E+03 -0.88606683829E+03  0.90152260692E+03  0.00000000000E+00 0. -1.
         21    1    1    2  503  501  0.69761783864E+02 -0.14014484113E+03 -0.19192630821E+02  0.15772013207E+03  0.00000000000E+00 0. -1.
<scales pt_clust_5="13000.00000" pt_clust_6="13000.00000" pt_clust_7="13000.00000" pt_clust_8="13000.00000" pt_clust_9="13000.00000" pt_clust_10="163.22111"></scales>
<clustering>
<clus scale="   88.407">  7  8 -1 -1</clus>
<clus scale="   89.512">  5  6 -1 -1</clus>
<clus scale="   97.984">  1  7  2 -1</clus>
<clus scale="  117.538">  1  5  2 -1</clus>
<clus scale="  163.221">  1 10  2 -1</clus>
<clus scale="  163.221">  2  5  1 -1</clus>
</clustering>
</event>
<event>
10    2  0.1898324E-006  0.9628378E+02  0.7546771E-02  0.1289065E+00
         -1   -1    0    0    0  501 -0.00000000000E+00  0.00000000000E+00  0.46824118551E+02  0.46824118551E+02  0.00000000000E+00 0.  1.
          1   -1    0    0  502    0  0.00000000000E+00 -0.00000000000E+00 -0.74764561728E+03  0.74764561728E+03  0.00000000000E+00 0. -1.
         23    2    1    2    0    0 -0.23842285546E+02 -0.12015429601E+02 -0.13337222579E+03  0.16623907137E+03  0.95574332897E+02 0.  0.
         23    2    1    2    0    0 -0.14654252098E+02 -0.94613844955E+01 -0.44985075793E+03  0.45994066555E+03  0.94209588234E+02 0.  0.
        -11    1    3    3    0    0  0.22987009880E+01  0.37089802551E+02 -0.84027472393E+02  0.91877927688E+02  0.00000000000E+00 0.  1.
         11    1    3    3    0    0 -0.26140986534E+02 -0.49105232152E+02 -0.49344753402E+02  0.74361143684E+02  0.00000000000E+00 0. -1.
        -11    1    4    4    0    0  0.39295408328E+02 -0.13006082917E+02 -0.17573323973E+03  0.18054212487E+03  0.00000000000E+00 0.  1.
         11    1    4    4    0    0 -0.53949660426E+02  0.35446984215E+01 -0.27411751820E+03  0.27939854068E+03  0.00000000000E+00 0. -1.
         21    1    1    2  502  503  0.18202614861E+02 -0.15253682091E+02 -0.12363394918E+03  0.12589425481E+03  0.00000000000E+00 0.  1.
         21    1    1    2  503  501  0.20293922783E+02  0.36730496188E+02  0.60354341711E+01  0.42395744100E+02  0.00000000000E+00 0.  1.
<scales pt_clust_5="13000.00000" pt_clust_6="13000.00000" pt_clust_7="13000.00000" pt_clust_8="13000.00000" pt_clust_9="23.74889" pt_clust_10="41.83672"></scales>
<clustering>
<clus scale="   23.749">  2  9  1 -1</clus>
<clus scale="   41.837">  1 10  2 -1</clus>
<clus scale="   94.210">  7  8 -1 -1</clus>
<clus scale="   94.929">  2  7  1 -1</clus>
<clus scale="   95.574">  5  6 -1 -1</clus>
<clus scale="   23.749">  2  5  1 -1</clus>
</clustering>
</event>
<event>
10    2  0.1898324E-006  0.1101572E+03  0.7546771E-02  0.1260733E+00
         -1   -1    0    0    0  501 -0.00000000000E+00  0.00000000000E+00  0.84120592795E+03  0.84120592795E+03  0.00000000000E+00 0.  1.
          1   -1    0    0  502    0  0.00000000000E+00 -0.00000000000E+00 -0.11755640673E+03  0.11755640673E+03  0.00000000000E+00 0. -1.
         23    2    1    2    0    0 -0.30839670537E+02  0.74599929617E+02  0.67776482415E+03  0.68844958499E+03  0.89896826669E+02 0.  0.
         23    2    1    2    0    0  0.64530576027E+02  0.46145997480E+01  0.37731316939E+01  0.11178305039E+03  0.91080865489E+02 0.  0.
        -11    1    3    3    0    0 -0.91075736167E+01  0.92202164023E+02  0.53687282381E+03  0.54480878838E+03  0.00000000000E+00 0.  1.
         11    1    3    3    0    0 -0.21732096920E+02 -0.17602234407E+02  0.14089200033E+03  0.14364079661E+03  0.00000000000E+00 0. -1.
        -13    1    4    4    0    0 -0.18222629902E+02  0.13147243453E+02 -0.14321262359E+02  0.26646065498E+02  0.00000000000E+00 0.  1.
         13    1    4    4    0    0  0.82753205929E+02 -0.85326437051E+01  0.18094394053E+02  0.85136984890E+02  0.00000000000E+00 0. -1.
         21    1    1    2  502  503 -0.28520438664E+02 -0.56814739939E+02 -0.38758894483E+02  0.74455234856E+02  0.00000000000E+00 0.  1.
         21    1    1    2  503  501 -0.51704668263E+01 -0.22399789426E+02  0.80870459865E+02  0.84074464448E+02  0.00000000000E+00 0. -1.
<scales pt_clust_5="13000.00000" pt_clust_6="13000.00000" pt_clust_7="13000.00000" pt_clust_8="13000.00000" pt_clust_9="64.09707" pt_clust_10="22.98879"></scales>
<clustering>
<clus scale="   22.989">  1 10  2 -1</clus>
<clus scale="   64.097">  2  9  1 -1</clus>
<clus scale="   89.897">  5  6 -1 -1</clus>
<clus scale="   91.081">  7  8 -1 -1</clus>
<clus scale="  109.180">  1  5  2 -1</clus>
<clus scale="   64.097">  2  5  1 -1</clus>
</clustering>
</event>
<event>
10    2  0.1898324E-006  0.2108430E+03  0.7546771E-02  0.1141282E+00
          1   -1    0    0  503    0  0.00000000000E+00  0.00000000000E+00  0.87598792825E+03  0.87598792825E+03  0.00000000000E+00 0. -1.
         -1   -1    0    0    0  501 -0.00000000000E+00 -0.00000000000E+00 -0.15532965171E+03  0.15532965171E+03  0.00000000000E+00 0.  1.
         23    2    1    2    0    0  0.16287232050E+03 -0.69928991743E+02 -0.15236777953E+02  0.19834241198E+03  0.87693194251E+02 0.  0.
         23    2    1    2    0    0 -0.23189846595E+03  0.81593673411E+02  0.37123788996E+03  0.45469954066E+03  0.92193683548E+02 0.  0.
        -13    1    3    3    0    0  0.96626158317E+02 -0.86257156139E+02 -0.95747083836E+01  0.12987912264E+03  0.00000000000E+00 0.  1.
         13    1    3    3    0    0  0.66246162180E+02  0.16328164395E+02 -0.56620695693E+01  0.68463289344E+02  0.00000000000E+00 0. -1.
        -13    1    4    4    0    0 -0.91456157511E+02  0.42806381462E+02  0.79195819230E+02  0.12833001529E+03  0.00000000000E+00 0.  1.
         13    1    4    4    0    0 -0.14044230844E+03  0.38787291949E+02  0.29204207073E+03  0.32636952537E+03  0.00000000000E+00 0. -1.
         21    1    1    2  502  501  0.47271446874E+02 -0.28862023963E+02  0.32616709095E+03  0.33083617901E+03  0.00000000000E+00 0. -1.
         21    1    1    2  503  502  0.21754698578E+02  0.17197342296E+02  0.38490073578E+02  0.47439448313E+02  0.00000000000E+00 0. -1.
<scales pt_clust_5="13000.00000" pt_clust_6="13000.00000" pt_clust_7="13000.00000" pt_clust_8="13000.00000" pt_clust_9="60.05667" pt_clust_10="27.73113"></scales>
<clustering>
<clus scale="   27.731">  1 10  2 -1</clus>
<clus scale="   60.057">  1  9  2 -1</clus>
<clus scale="   87.693">  5  6 -1 -1</clus>
<clus scale="   92.194">  7  8 -1 -1</clus>
<clus scale="  208.914">  2  5  1 -1</clus>
<clus scale="   27.731">  1  5  2 -1</clus>
</clustering>
</event>
<event>
10    2  0.1898324E-006  0.9986542E+02  0.7546771E-02  0.1281188E+00
          1   -1    0    0  502    0  0.00000000000E+00  0.00000000000E+00  0.29930470397E+03  0.29930470397E+03  0.00000000000E+00 0. -1.
         -1   -1    0    0    0  501 -0.00000000000E+00 -0.00000000000E+00 -0.22142870005E+03  0.22142870005E+03  0.00000000000E+00 0.  1.
         23    2    1    2    0    0 -0.26864606232E+02  0.25330778337E+02 -0.25365373030E+02  0.10121865209E+03  0.90765951677E+02 0.  0.
         23    2    1    2    0    0 -0.13771024729E+02 -0.64377490380E+02  0.11732559791E+03  0.16299098631E+03  0.92014473345E+02 0.  0.
        -11    1    4    4    0    0  0.13310829845E+02  0.19088999815E+02  0.38756112604E+02  0.45206242591E+02  0.00000000000E+00 0. -1.
         11    1    4    4    0    0 -0.27081854573E+02 -0.83466490194E+02  0.78569485306E+02  0.11778474372E+03  0.00000000000E+00 0.  1.
        -11    1    3    3    0    0 -0.56126034914E+01 -0.34239795121E+02 -0.10442209468E+02  0.36234025811E+02  0.00000000000E+00 0.  1.
         11    1    3    3    0    0 -0.21252002741E+02  0.59570573458E+02 -0.14923163562E+02  0.64984626284E+02  0.00000000000E+00 0. -1.
         21    1    1    2  502  503  0.80693055529E+02  0.73948550507E+02  0.88659916204E+02  0.14085573497E+03  0.00000000000E+00 0. -1.
         21    1    1    2  503  501 -0.40057424568E+02 -0.34901838464E+02 -0.10274413716E+03  0.11566803064E+03  0.00000000000E+00 0.  1.
<scales pt_clust_5="13000.00000" pt_clust_6="13000.00000" pt_clust_7="13000.00000" pt_clust_8="13000.00000" pt_clust_9="97.10096" pt_clust_10="53.12942"></scales>
<clustering>
<clus scale="   53.129">  2 10  1 -1</clus>
<clus scale="   90.766">  7  8 -1 -1</clus>
<clus scale="   92.014">  5  6 -1 -1</clus>
<clus scale="   97.101">  1  9  2 -1</clus>
<clus scale="   98.716">  2  7  1 -1</clus>
<clus scale="   97.101">  1  5  2 -1</clus>
</clustering>
</event>
<event>
10    2  0.1898324E-006  0.9242452E+02  0.7546771E-02  0.1297209E+00
          1   -1    0    0  502    0  0.00000000000E+00  0.00000000000E+00  0.26013196587E+03  0.26013196587E+03  0.00000000000E+00 0. -1.
         -1   -1    0    0    0  501 -0.00000000000E+00 -0.00000000000E+00 -0.30799694957E+03  0.30799694957E+03  0.00000000000E+00 0.  1.
         23    2    1    2    0    0  0.37558330154E+02 -0.34327648458E+02 -0.42997028742E+02  0.11231223801E+03  0.90422777625E+02 0.  0.
         23    2    1    2    0    0  0.24051197307E+01 -0.34143325332E+02  0.22555622249E+02  0.10097094997E+03  0.92275811444E+02 0.  0.
        -13    1    4    4    0    0 -0.57360738283E+01 -0.59206587788E+02  0.37847065508E+02  0.70503354162E+02  0.00000000000E+00 0.  1.
         13    1    4    4    0    0  0.81411935591E+01  0.25063262457E+02 -0.15291443259E+02  0.30467595811E+02  0.00000000000E+00 0. -1.
        -13    1    3    3    0    0  0.41562082218E+02 -0.53939794805E+02 -0.36812838649E+01  0.68194281232E+02  0.00000000000E+00 0. -1.
         13    1    3    3    0    0 -0.40037520647E+01  0.19612146347E+02 -0.39315744877E+02  0.44117956777E+02  0.00000000000E+00 0.  1.
         21    1    1    2  502  503  0.42472002828E+02  0.21199125483E+02  0.14795144274E+03  0.15537986792E+03  0.00000000000E+00 0.  1.
         21    1    1    2  503  501 -0.82435452713E+02  0.47271848307E+02 -0.17537501994E+03  0.19946585955E+03  0.00000000000E+00 0.  1.
<scales pt_clust_5="13000.00000" pt_clust_6="13000.00000" pt_clust_7="13000.00000" pt_clust_8="13000.00000" pt_clust_9="47.46866" pt_clust_10="92.21152"></scales>
<clustering>
<clus scale="   47.469">  1  9  2 -1</clus>
<clus scale="   90.423">  7  8 -1 -1</clus>
<clus scale="   92.212">  2 10  1 -1</clus>
<clus scale="   92.212">  2  7  1 -1</clus>
<clus scale="   92.276">  5  6 -1 -1</clus>
<clus scale="   47.469">  1  5  2 -1</clus>
</clustering>
</event>
<event>
10    2  0.1898324E-006  0.9836418E+02  0.7546771E-02  0.1289276E+00
          1   -1    0    0  502    0  0.00000000000E+00  0.00000000000E+00  0.27296730826E+03  0.27296730826E+03  0.00000000000E+00 0. -1.
         -1   -1    0    0    0  501 -0.00000000000E+00 -0.00000000000E+00 -0.81037425978E+02  0.81037425978E+02  0.00000000000E+00 0.  1.
         23    2    1    2    0    0  0.27115912138E+02 -0.20653977289E+02  0.90360937287E+02  0.13368390235E+03  0.92436071377E+02 0.  0.
         23    2    1    2    0    0 -0.16366979784E+02  0.30513042464E+02  0.10702921295E+03  0.13923884052E+03  0.82056556689E+02 0.  0.
        -11    1    4    4    0    0  0.25137414024E+02  0.38240967173E+02  0.44808091644E+02  0.64047062625E+02  0.00000000000E+00 0.  1.
         11    1    4    4    0    0 -0.41504393808E+02 -0.77279247091E+01  0.62221121306E+02  0.75191777890E+02  0.00000000000E+00 0. -1.
        -13    1    3    3    0    0  0.53593236168E+02 -0.14643282161E+02  0.21340790613E+02  0.59515460339E+02  0.00000000000E+00 0.  1.
         13    1    3    3    0    0 -0.26477324029E+02 -0.60106951279E+01  0.69020146673E+02  0.74168442012E+02  0.00000000000E+00 0. -1.
         21    1    1    2  502  503  0.78683632461E+01 -0.24352518765E+02  0.29406075758E+02  0.38982991187E+02  0.00000000000E+00 0.  1.
         21    1    1    2  503  501 -0.18617295600E+02  0.14493453590E+02 -0.34866343714E+02  0.42099000183E+02  0.00000000000E+00 0.  1.
<scales pt_clust_5="13000.00000" pt_clust_6="13000.00000" pt_clust_7="13000.00000" pt_clust_8="13000.00000" pt_clust_9="23.44368" pt_clust_10="23.59373"></scales>
<clustering>
<clus scale="   23.594">  2 10  1 -1</clus>
<clus scale="   23.444">  2  9  1 -1</clus>
<clus scale="   82.057">  5  6 -1 -1</clus>
<clus scale="   88.681">  1  5  2 -1</clus>
<clus scale="   92.436">  7  8 -1 -1</clus>
<clus scale="   88.681">  1  5  2 -1</clus>
</clustering>
</event>
<event>
10    2  0.1898324E-006  0.1004152E+03  0.7546771E-02  0.1282905E+00
         -1   -1    0    0    0  501 -0.00000000000E+00  0.00000000000E+00  0.19201811178E+03  0.19201811178E+03  0.00000000000E+00 0.  1.
          1   -1    0    0  502    0  0.00000000000E+00 -0.00000000000E+00 -0.23536822798E+03  0.23536822798E+03  0.00000000000E+00 0. -1.
         23    2    1    2    0    0  0.17225529645E+01 -0.42673430350E+02 -0.28021953916E+02  0.11243883825E+03  0.10016622984E+03 0.  0.
         23    2    1    2    0    0  0.55262257914E+01 -0.29796855292E+02 -0.86719717364E+02  0.13123724423E+03  0.93725733595E+02 0.  0.
        -11    1    4    4    0    0  0.19442034474E+02 -0.61126555029E+02 -0.58985295842E+02  0.87141916204E+02  0.00000000000E+00 0. -1.
         11    1    4    4    0    0 -0.13915808682E+02  0.31329699738E+02 -0.27734421522E+02  0.44095328030E+02  0.00000000000E+00 0.  1.
        -11    1    3    3    0    0 -0.39760169595E+02  0.21066119980E+01  0.93053879080E+01  0.40888863331E+02  0.00000000000E+00 0.  1.
         11    1    3    3    0    0  0.41482722560E+02 -0.44780042348E+02 -0.37327341824E+02  0.71549974921E+02  0.00000000000E+00 0. -1.
         21    1    1    2  502  503 -0.24153147119E+02 -0.15722212682E+02 -0.34445266569E+02  0.44911455959E+02  0.00000000000E+00 0. -1.
         21    1    1    2  503  501  0.16904368364E+02  0.88192498323E+02  0.10583682165E+03  0.13879880132E+03  0.00000000000E+00 0.  1.
<scales pt_clust_5="13000.00000" pt_clust_6="13000.00000" pt_clust_7="13000.00000" pt_clust_8="13000.00000" pt_clust_9="28.81948" pt_clust_10="88.13193"></scales>
<clustering>
<clus scale="   28.819">  2  9  1 -1</clus>
<clus scale="   88.132">  1 10  2 -1</clus>
<clus scale="   93.726">  5  6 -1 -1</clus>
<clus scale="   93.992">  2  5  1 -1</clus>
<clus scale="  100.166">  7  8 -1 -1</clus>
<clus scale="   28.819">  2  5  1 -1</clus>
</clustering>
</event>
<event>
10    2  0.1898324E-006  0.1670070E+03  0.7546771E-02  0.1182392E+00
         -1   -1    0    0    0  501 -0.00000000000E+00  0.00000000000E+00  0.23630815416E+03  0.23630815416E+03  0.00000000000E+00 0.  1.
          1   -1    0    0  502    0  0.00000000000E+00 -0.00000000000E+00 -0.33567558156E+03  0.33567558156E+03  0.00000000000E+00 0. -1.
         23    2    1    2    0    0  0.56559175094E+02 -0.96642540814E+02  0.90600221872E+02  0.17093422300E+03  0.92040140190E+02 0.  0.
         23    2    1    2    0    0 -0.32181461333E+02  0.11027342293E+03 -0.22421153572E+03  0.26506086130E+03  0.82404934217E+02 0.  0.
        -11    1    4    4    0    0 -0.58070454147E+02  0.82382727178E+02 -0.13861218925E+03  0.17138386852E+03  0.00000000000E+00 0.  1.
         11    1    4    4    0    0  0.25888992815E+02  0.27890695751E+02 -0.85599346474E+02  0.93676992774E+02  0.00000000000E+00 0. -1.
        -11    1    3    3    0    0  0.77814439353E+02 -0.95869802214E+02  0.80412858588E+02  0.14735105624E+03  0.00000000000E+00 0. -1.
         11    1    3    3    0    0 -0.21255264260E+02 -0.77273860072E+00  0.10187363284E+02  0.23583166759E+02  0.00000000000E+00 0.  1.
         21    1    1    2  502  503 -0.39731246037E+02  0.30997772334E+02 -0.28175785260E+02  0.57734813383E+02  0.00000000000E+00 0. -1.
         21    1    1    2  503  501  0.15353532276E+02 -0.44628654450E+02  0.62419671709E+02  0.78253838038E+02  0.00000000000E+00 0.  1.
<scales pt_clust_5="13000.00000" pt_clust_6="13000.00000" pt_clust_7="13000.00000" pt_clust_8="13000.00000" pt_clust_9="46.92630" pt_clust_10="47.19584"></scales>
<clustering>
<clus scale="   47.196">  1 10  2 -1</clus>
<clus scale="   46.926">  2  9  1 -1</clus>
<clus scale="   82.405">  5  6 -1 -1</clus>
<clus scale="   92.040">  7  8 -1 -1</clus>
<clus scale="  161.897">  2  5  1 -1</clus>
<clus scale="   46.926">  2  5  1 -1</clus>
</clustering>
</event>
<event>
10    2  0.1898324E-006  0.1772003E+03  0.7546771E-02  0.1173769E+00
         -4   -1    0    0    0  501 -0.00000000000E+00  0.00000000000E+00  0.40900604734E+02  0.40900604734E+02  0.00000000000E+00 0.  1.
          4   -1    0    0  502    0  0.00000000000E+00 -0.00000000000E+00 -0.15065956100E+04  0.15065956100E+04  0.00000000000E+00 0. -1.
         23    2    1    2    0    0 -0.13333441382E+03 -0.17205903541E+02 -0.36239912311E+03  0.39742248034E+03  0.92398021771E+02 0.  0.
         23    2    1    2    0    0  0.13021015813E+03  0.14797687033E+01 -0.74226141746E+03  0.76206508377E+03  0.11328859190E+03 0.  0.
        -11    1    3    3    0    0 -0.96580795791E+02  0.69871802158E+01 -0.13698848623E+03  0.16775731329E+03  0.00000000000E+00 0.  1.
         11    1    3    3    0    0 -0.36753618033E+02 -0.24193083757E+02 -0.22541063687E+03  0.22966516705E+03  0.00000000000E+00 0. -1.
        -11    1    4    4    0    0 -0.12715304956E+02 -0.17962212676E+02 -0.45661851734E+02  0.50688507259E+02  0.00000000000E+00 0.  1.
         11    1    4    4    0    0  0.14292546309E+03  0.19441981379E+02 -0.69659956573E+03  0.71137657651E+03  0.00000000000E+00 0. -1.
         21    1    1    2  502  503  0.13681521339E+02  0.49569362320E+02 -0.34549493598E+03  0.34930081090E+03  0.00000000000E+00 0.  1.
         21    1    1    2  503  501 -0.10557265646E+02 -0.33843227482E+02 -0.15539528744E+02  0.38707839747E+02  0.00000000000E+00 0. -1.
<scales pt_clust_5="13000.00000" pt_clust_6="13000.00000" pt_clust_7="13000.00000" pt_clust_8="13000.00000" pt_clust_9="49.12296" pt_clust_10="35.45166"></scales>
<clustering>
<clus scale="   35.452">  1 10  2 -1</clus>
<clus scale="   49.123">  2  9  1 -1</clus>
<clus scale="   92.398">  5  6 -1 -1</clus>
<clus scale="  113.289">  7  8 -1 -1</clus>
<clus scale="  164.630">  1  5  2 -1</clus>
<clus scale="   49.123">  2  5  1 -1</clus>
</clustering>
</event>
<event>
10    2  0.1898324E-006  0.1795690E+03  0.7546771E-02  0.1193655E+00
          2   -1    0    0  502    0  0.00000000000E+00  0.00000000000E+00  0.18135911385E+04  0.18135911385E+04  0.00000000000E+00 0. -1.
         -2   -1    0    0    0  501 -0.00000000000E+00 -0.00000000000E+00 -0.49740647249E+02  0.49740647249E+02  0.00000000000E+00 0.  1.
         23    2    1    2    0    0 -0.70981205560E+02  0.14964131259E+03  0.31120234236E+03  0.36375894704E+03  0.89681768961E+02 0.  0.
         23    2    1    2    0    0 -0.34728790184E+02 -0.19896938914E+02  0.32494205449E+03  0.33991610384E+03  0.91398259411E+02 0.  0.
        -11    1    4    4    0    0 -0.45452358840E+02  0.26160734127E+02  0.16576455785E+03  0.17386255944E+03  0.00000000000E+00 0.  1.
         11    1    4    4    0    0  0.10723568656E+02 -0.46057673041E+02  0.15917749664E+03  0.16605354440E+03  0.00000000000E+00 0. -1.
        -13    1    3    3    0    0  0.21560483160E+02  0.31333490982E+02  0.58048726959E+02  0.69399544615E+02  0.00000000000E+00 0. -1.
         13    1    3    3    0    0 -0.92541688720E+02  0.11830782160E+03  0.25315361540E+03  0.29435940242E+03  0.00000000000E+00 0.  1.
         21    1    1    2  502  503  0.11678129703E+03 -0.10728413311E+03  0.11230449424E+04  0.11341859191E+04  0.00000000000E+00 0. -1.
         21    1    1    2  503  501 -0.11071301284E+02 -0.22460240560E+02  0.46611520568E+01  0.25470815782E+02  0.00000000000E+00 0. -1.
<scales pt_clust_5="13000.00000" pt_clust_6="13000.00000" pt_clust_7="13000.00000" pt_clust_8="13000.00000" pt_clust_9="155.57059" pt_clust_10="25.04069"></scales>
<clustering>
<clus scale="   25.041">  2 10  1 -1</clus>
<clus scale="   89.682">  7  8 -1 -1</clus>
<clus scale="   91.398">  5  6 -1 -1</clus>
<clus scale="  101.463">  1  5  2 -1</clus>
<clus scale="  155.571">  1  9  2 -1</clus>
<clus scale="  101.463">  1  5  2 -1</clus>
</clustering>
</event>
<event>
10    2  0.1898324E-006  0.1139766E+03  0.7546771E-02  0.1254011E+00
         -2   -1    0    0    0  501 -0.00000000000E+00  0.00000000000E+00  0.97383290022E+02  0.97383290022E+02  0.00000000000E+00 0.  1.
          2   -1    0    0  502    0  0.00000000000E+00 -0.00000000000E+00 -0.48500742375E+03  0.48500742375E+03  0.00000000000E+00 0. -1.
         23    2    1    2    0    0  0.87942894264E+02 -0.33815713718E+02 -0.13198508473E+03  0.18675590456E+03  0.92629639692E+02 0.  0.
         23    2    1    2    0    0 -0.43906831382E+02  0.12493310023E+01 -0.10116594166E+03  0.14290513588E+03  0.90873315339E+02 0.  0.
        -11    1    3    3    0    0  0.92131154889E+02  0.52430077190E+01 -0.10024982505E+03  0.13625588520E+03  0.00000000000E+00 0. -1.
         11    1    3    3    0    0 -0.41882606245E+01 -0.39058721437E+02 -0.31735259689E+02  0.50500019355E+02  0.00000000000E+00 0.  1.
        -13    1    4    4    0    0 -0.40295611070E+02 -0.20730507662E+02 -0.66510210087E+01  0.45800942129E+02  0.00000000000E+00 0.  1.
         13    1    4    4    0    0 -0.36112203126E+01  0.21979838664E+02 -0.94514920646E+02  0.97104193754E+02  0.00000000000E+00 0. -1.
         21    1    1    2  502  503 -0.22948995966E+02  0.10097947489E+02 -0.19789965529E+03  0.19948157440E+03  0.00000000000E+00 0. -1.
         21    1    1    2  503  501 -0.21087066916E+02  0.22468435227E+02  0.43426547954E+02  0.53248098932E+02  0.00000000000E+00 0.  1.
<scales pt_clust_5="13000.00000" pt_clust_6="13000.00000" pt_clust_7="13000.00000" pt_clust_8="13000.00000" pt_clust_9="25.07239" pt_clust_10="31.20998"></scales>
<clustering>
<clus scale="   25.072">  2  9  1 -1</clus>
<clus scale="   31.210">  1 10  2 -1</clus>
<clus scale="   90.873">  7  8 -1 -1</clus>
<clus scale="   92.630">  5  6 -1 -1</clus>
<clus scale="  112.554">  2  7  1 -1</clus>
<clus scale="   25.072">  2  5  1 -1</clus>
</clustering>
</event>
<event>
10    2  0.1898324E-006  0.1463759E+03  0.7546771E-02  0.1206215E+00
         -2   -1    0    0    0  501 -0.00000000000E+00  0.00000000000E+00  0.27626217766E+02  0.27626217766E+02  0.00000000000E+00 0.  1.
          2   -1    0    0  502    0  0.00000000000E+00 -0.00000000000E+00 -0.19058121141E+04  0.19058121141E+04  0.00000000000E+00 0. -1.
         23    2    1    2    0    0 -0.62019588544E+02  0.15781247096E+03 -0.76686740656E+03  0.78982544682E+03  0.83590740165E+02 0.  0.
         23    2    1    2    0    0  0.54357700741E+02 -0.55795226248E+02 -0.61870667571E+03  0.63003645563E+03  0.89889476319E+02 0.  0.
        -13    1    4    4    0    0  0.59782288610E+02  0.29567042980E+01 -0.29944851681E+03  0.30537203269E+03  0.00000000000E+00 0.  1.
         13    1    4    4    0    0 -0.54245878694E+01 -0.58751930546E+02 -0.31925815890E+03  0.32466442294E+03  0.00000000000E+00 0. -1.
        -13    1    3    3    0    0 -0.39380290041E+02  0.17968652425E+02 -0.25803953260E+03  0.26164495045E+03  0.00000000000E+00 0. -1.
         13    1    3    3    0    0 -0.22639298502E+02  0.13984381853E+03 -0.50882787396E+03  0.52818049637E+03  0.00000000000E+00 0.  1.
         21    1    1    2  502  503 -0.35669542898E+02 -0.56579891785E+02 -0.36812803778E+03  0.37415485116E+03  0.00000000000E+00 0. -1.
         21    1    1    2  503  501  0.43331430701E+02 -0.45437352926E+02 -0.12448377629E+03  0.13942157827E+03  0.00000000000E+00 0. -1.
<scales pt_clust_5="13000.00000" pt_clust_6="13000.00000" pt_clust_7="13000.00000" pt_clust_8="13000.00000" pt_clust_9="69.77273" pt_clust_10="62.78667"></scales>
<clustering>
<clus scale="   62.787">  1 10  2 -1</clus>
<clus scale="   69.773">  2  9  1 -1</clus>
<clus scale="   83.591">  7  8 -1 -1</clus>
<clus scale="   89.889">  5  6 -1 -1</clus>
<clus scale="  142.595">  1  7  2 -1</clus>
<clus scale="   69.773">  2  5  1 -1</clus>
</clustering>
</event>
<event>
10    2  0.1898324E-006  0.1157380E+03  0.7546771E-02  0.1250862E+00
         -1   -1    0    0    0  501 -0.00000000000E+00  0.00000000000E+00  0.56098386484E+02  0.56098386484E+02  0.00000000000E+00 0.  1.
          1   -1    0    0  502    0  0.00000000000E+00 -0.00000000000E+00 -0.81800026490E+03  0.81800026490E+03  0.00000000000E+00 0. -1.
         23    2    1    2    0    0  0.27624169734E+02  0.16456492315E+02 -0.84630975312E+02  0.13038020305E+03  0.93822622386E+02 0.  0.
         23    2    1    2    0    0 -0.62768556857E+02 -0.92583368731E+02 -0.36284703410E+03  0.39149740814E+03  0.95397476519E+02 0.  0.
        -11    1    4    4    0    0 -0.46162743967E+02 -0.44596629047E+02 -0.72868763470E+02  0.97106719348E+02  0.00000000000E+00 0.  1.
         11    1    4    4    0    0 -0.16605812890E+02 -0.47986739685E+02 -0.28997827063E+03  0.29439068879E+03  0.00000000000E+00 0. -1.
        -13    1    3    3    0    0  0.12922511170E+02  0.55517835007E+02 -0.42730213126E+02  0.71239682850E+02  0.00000000000E+00 0.  1.
         13    1    3    3    0    0  0.14701658564E+02 -0.39061342691E+02 -0.41900762186E+02  0.59140520197E+02  0.00000000000E+00 0. -1.
         21    1    1    2  502  503  0.63054099352E+01  0.53740826139E+02 -0.31086625969E+03  0.31554027636E+03  0.00000000000E+00 0. -1.
         21    1    1    2  503  501  0.28838977188E+02  0.22386050277E+02 -0.35576093130E+01  0.36680763845E+02  0.00000000000E+00 0.  1.
<scales pt_clust_5="13000.00000" pt_clust_6="13000.00000" pt_clust_7="13000.00000" pt_clust_8="13000.00000" pt_clust_9="55.64361" pt_clust_10="36.50783"></scales>
<clustering>
<clus scale="   36.508">  1 10  2 -1</clus>
<clus scale="   55.644">  2  9  1 -1</clus>
<clus scale="   93.823">  7  8 -1 -1</clus>
<clus scale="   95.397">  5  6 -1 -1</clus>
<clus scale="  114.443">  1  7  2 -1</clus>
<clus scale="   55.644">  2  5  1 -1</clus>
</clustering>
</event>
<event>
10    2  0.1898324E-006  0.1463900E+03  0.7546771E-02  0.1205286E+00
         -2   -1    0    0    0  501 -0.00000000000E+00  0.00000000000E+00  0.14446772546E+03  0.14446772546E+03  0.00000000000E+00 0.  1.
          2   -1    0    0  502    0  0.00000000000E+00 -0.00000000000E+00 -0.24103545902E+03  0.24103545902E+03  0.00000000000E+00 0. -1.
         23    2    1    2    0    0 -0.14389012610E+03 -0.14082242678E+02 -0.30482553344E+02  0.17259662885E+03  0.89206122462E+02 0.  0.
         23    2    1    2    0    0  0.88237205730E+02  0.31603905872E+02 -0.64584847464E+02  0.14557994510E+03  0.90761812190E+02 0.  0.
        -13    1    4    4    0    0  0.41985229495E+00  0.38758138663E+02 -0.46939237784E+01  0.39043597542E+02  0.00000000000E+00 0.  1.
         13    1    4    4    0    0  0.87817353435E+02 -0.71542327916E+01 -0.59890923686E+02  0.10653634756E+03  0.00000000000E+00 0. -1.
        -13    1    3    3    0    0 -0.70198638544E+02  0.37239918202E+02 -0.69844002795E+01  0.79771186580E+02  0.00000000000E+00 0.  1.
         13    1    3    3    0    0 -0.73691487559E+02 -0.51322160880E+02 -0.23498153065E+02  0.92825442275E+02  0.00000000000E+00 0. -1.
         21    1    1    2  502  503  0.17452499450E+02 -0.19967656460E+02 -0.95937153786E+01  0.28201709457E+02  0.00000000000E+00 0. -1.
         21    1    1    2  503  501  0.38200420923E+02  0.24459932659E+01  0.80933826253E+01  0.39124901075E+02  0.00000000000E+00 0. -1.
<scales pt_clust_5="13000.00000" pt_clust_6="13000.00000" pt_clust_7="13000.00000" pt_clust_8="13000.00000" pt_clust_9="26.51975" pt_clust_10="39.43345"></scales>
<clustering>
<clus scale="   26.520">  2  9  1 -1</clus>
<clus scale="   39.433">  1 10  2 -1</clus>
<clus scale="   89.206">  7  8 -1 -1</clus>
<clus scale="   90.762">  5  6 -1 -1</clus>
<clus scale="  145.431">  1  7  2 -1</clus>
<clus scale="   26.520">  2  5  1 -1</clus>
</clustering>
</event>
<event>
10    2  0.1898324E-006  0.1097180E+03  0.7546771E-02  0.1263372E+00
         -2   -1    0    0    0  501 -0.00000000000E+00  0.00000000000E+00  0.47687374133E+02  0.47687374133E+02  0.00000000000E+00 0.  1.
          2   -1    0    0  503    0  0.00000000000E+00 -0.00000000000E+00 -0.42385307286E+03  0.42385307286E+03  0.00000000000E+00 0. -1.
         23    2    1    2    0    0  0.35045521802E+02 -0.46653526724E+02 -0.65600780983E+02  0.12248094170E+03  0.85401279033E+02 0.  0.
         23    2    1    2    0    0 -0.12715686288E+02  0.71598880569E+02 -0.21827028555E+03  0.24748987486E+03  0.91220788359E+02 0.  0.
        -11    1    3    3    0    0 -0.40377240509E+01 -0.30820169498E+02  0.12675606736E+02  0.33568691805E+02  0.00000000000E+00 0.  1.
         11    1    3    3    0    0  0.39083245852E+02 -0.15833357226E+02 -0.78276387719E+02  0.88912249897E+02  0.00000000000E+00 0. -1.
        -13    1    4    4    0    0 -0.27183746660E+02 -0.34127527537E+01 -0.17082959954E+02  0.32286692067E+02  0.00000000000E+00 0. -1.
         13    1    4    4    0    0  0.14468060372E+02  0.75011633322E+02 -0.20118732560E+03  0.21520318280E+03  0.00000000000E+00 0.  1.
         21    1    1    2  502  501 -0.21339500724E+02 -0.47864274922E+01 -0.54482655428E+02  0.58708124836E+02  0.00000000000E+00 0.  1.
         21    1    1    2  503  502 -0.99033478877E+00 -0.20158926352E+02 -0.37811976768E+02  0.42861505594E+02  0.00000000000E+00 0.  1.
<scales pt_clust_5="13000.00000" pt_clust_6="13000.00000" pt_clust_7="13000.00000" pt_clust_8="13000.00000" pt_clust_9="22.84448" pt_clust_10="20.18324"></scales>
<clustering>
<clus scale="   20.183">  2 10  1 -1</clus>
<clus scale="   22.844">  2  9  1 -1</clus>
<clus scale="   85.401">  5  6 -1 -1</clus>
<clus scale="   91.221">  7  8 -1 -1</clus>
<clus scale="  104.929">  1  5  2 -1</clus>
<clus scale="   20.183">  2  5  1 -1</clus>
</clustering>
</event>
<event>
10    2  0.1898324E-006  0.1533231E+03  0.7546771E-02  0.1202079E+00
         -2   -1    0    0    0  501 -0.00000000000E+00  0.00000000000E+00  0.61910557680E+03  0.61910557680E+03  0.00000000000E+00 0.  1.
          2   -1    0    0  502    0  0.00000000000E+00 -0.00000000000E+00 -0.54128322401E+03  0.54128322401E+03  0.00000000000E+00 0. -1.
         23    2    1    2    0    0 -0.11682368311E+03 -0.17882128946E+02 -0.73767654607E+02  0.17503124200E+03  0.10595624257E+03 0.  0.
         23    2    1    2    0    0  0.49070666474E+02 -0.15631930321E+03 -0.42375672205E+02  0.18734396101E+03  0.80364216334E+02 0.  0.
        -11    1    3    3    0    0 -0.75092875444E+02 -0.30844796157E+02  0.87564547507E+01  0.81651802750E+02  0.00000000000E+00 0.  1.
         11    1    3    3    0    0 -0.41730807666E+02  0.12962667212E+02 -0.82524109358E+02  0.93379439252E+02  0.00000000000E+00 0. -1.
        -13    1    4    4    0    0  0.14397966897E+02 -0.13500747526E+03 -0.52224144202E+02  0.14547055050E+03  0.00000000000E+00 0. -1.
         13    1    4    4    0    0  0.34672699577E+02 -0.21311827955E+02  0.98484719962E+01  0.41873410506E+02  0.00000000000E+00 0.  1.
         21    1    1    2  502  503 -0.36886321076E+02  0.63528637004E+02 -0.28557201159E+03  0.29486922900E+03  0.00000000000E+00 0. -1.
         21    1    1    2  503  501  0.10463933771E+03  0.11067279515E+03  0.47953769120E+03  0.50314436881E+03  0.00000000000E+00 0.  1.
<scales pt_clust_5="13000.00000" pt_clust_6="13000.00000" pt_clust_7="13000.00000" pt_clust_8="13000.00000" pt_clust_9="73.46080" pt_clust_10="153.32305"></scales>
<clustering>
<clus scale="   73.461">  2  9  1 -1</clus>
<clus scale="   80.364">  7  8 -1 -1</clus>
<clus scale="  105.956">  5  6 -1 -1</clus>
<clus scale="  153.323">  1 10  2 -1</clus>
<clus scale="  135.653">  2  7  1 -1</clus>
<clus scale="   73.461">  2  5  1 -1</clus>
</clustering>
</event>
<event>
10    2  0.1898324E-006  0.9727928E+02  0.7546771E-02  0.1288231E+00
          2   -1    0    0  502    0  0.00000000000E+00  0.00000000000E+00  0.47812168897E+03  0.47812168897E+03  0.00000000000E+00 0. -1.
         -2   -1    0    0    0  501 -0.00000000000E+00 -0.00000000000E+00 -0.63003883557E+02  0.63003883557E+02  0.00000000000E+00 0.  1.
         23    2    1    2    0    0 -0.46492262793E+01  0.21925761766E+02  0.35685581143E+01  0.93546382082E+02  0.90751510508E+02 0.  0.
         23    2    1    2    0    0 -0.20668180185E+02 -0.21837434654E+02  0.25113234081E+03  0.27005313060E+03  0.94642450955E+02 0.  0.
        -11    1    3    3    0    0  0.24173028607E+02  0.48283794673E+02  0.64618187775E+01  0.54382122448E+02  0.00000000000E+00 0.  1.
         11    1    3    3    0    0 -0.28822254886E+02 -0.26358032906E+02 -0.28932606632E+01  0.39164259634E+02  0.00000000000E+00 0. -1.
        -13    1    4    4    0    0 -0.44040263615E+01  0.30667067507E+02  0.16495136730E+03  0.16783568766E+03  0.00000000000E+00 0.  1.
         13    1    4    4    0    0 -0.16264153823E+02 -0.52504502161E+02  0.86180973507E+02  0.10221744294E+03  0.00000000000E+00 0. -1.
         21    1    1    2  502  503  0.47466583383E+02  0.48286201606E+01  0.13632267694E+03  0.14443082897E+03  0.00000000000E+00 0.  1.
         21    1    1    2  503  501 -0.22149176919E+02 -0.49169472730E+01  0.24094229552E+02  0.33095230871E+02  0.00000000000E+00 0.  1.
<scales pt_clust_5="13000.00000" pt_clust_6="13000.00000" pt_clust_7="13000.00000" pt_clust_8="13000.00000" pt_clust_9="46.15045" pt_clust_10="22.68838"></scales>
<clustering>
<clus scale="   22.688">  2 10  1 -1</clus>
<clus scale="   46.150">  1  9  2 -1</clus>
<clus scale="   90.752">  5  6 -1 -1</clus>
<clus scale="   93.498">  2  5  1 -1</clus>
<clus scale="   94.642">  7  8 -1 -1</clus>
<clus scale="   46.150">  1  5  2 -1</clus>
</clustering>
</event>
<event>
10    2  0.1898324E-006  0.1116498E+03  0.7546771E-02  0.1258565E+00
         -3   -1    0    0    0  501 -0.00000000000E+00  0.00000000000E+00  0.60989654139E+02  0.60989654139E+02  0.00000000000E+00 0.  1.
          3   -1    0    0  502    0  0.00000000000E+00 -0.00000000000E+00 -0.47380352011E+03  0.47380352011E+03  0.00000000000E+00 0. -1.
         23    2    1    2    0    0  0.36826283534E+02  0.79793778860E+02 -0.12863740080E+03  0.18176492696E+03  0.93635919848E+02 0.  0.
         23    2    1    2    0    0 -0.17407749937E+02 -0.36196837928E+02 -0.20155951489E+03  0.22475645326E+03  0.90972437619E+02 0.  0.
        -13    1    3    3    0    0  0.51730298561E+02  0.43453499384E+02 -0.26915569525E+02  0.72723299435E+02  0.00000000000E+00 0. -1.
         13    1    3    3    0    0 -0.14904015027E+02  0.36340279477E+02 -0.10172183127E+03  0.10904162753E+03  0.00000000000E+00 0.  1.
        -13    1    4    4    0    0 -0.20577096849E+02 -0.65908441260E+02 -0.15079887728E+03  0.16585427620E+03  0.00000000000E+00 0.  1.
         13    1    4    4    0    0  0.31693469121E+01  0.29711603332E+02 -0.50760637612E+02  0.58902177066E+02  0.00000000000E+00 0. -1.
         21    1    1    2  502  503  0.16974962210E+02 -0.25176642920E+02 -0.82039015293E+02  0.87478069943E+02  0.00000000000E+00 0. -1.
         21    1    1    2  503  501 -0.36393495808E+02 -0.18420298013E+02 -0.57793499444E+00  0.40793724086E+02  0.00000000000E+00 0.  1.
<scales pt_clust_5="13000.00000" pt_clust_6="13000.00000" pt_clust_7="13000.00000" pt_clust_8="13000.00000" pt_clust_9="30.36466" pt_clust_10="40.62046"></scales>
<clustering>
<clus scale="   30.365">  2  9  1 -1</clus>
<clus scale="   40.620">  1 10  2 -1</clus>
<clus scale="   90.972">  7  8 -1 -1</clus>
<clus scale="   93.636">  5  6 -1 -1</clus>
<clus scale="  109.426">  2  7  1 -1</clus>
<clus scale="   30.365">  2  5  1 -1</clus>
</clustering>
</event>
<event>
10    2  0.1898324E-006  0.1144378E+03  0.7546771E-02  0.1253476E+00
          2   -1    0    0  502    0  0.00000000000E+00  0.00000000000E+00  0.72233336024E+02  0.72233336024E+02  0.00000000000E+00 0. -1.
         -2   -1    0    0    0  501 -0.00000000000E+00 -0.00000000000E+00 -0.66023206397E+03  0.66023206397E+03  0.00000000000E+00 0.  1.
         23    2    1    2    0    0  0.57077957098E+02  0.45305845574E+02 -0.44041438056E+03  0.45449266860E+03  0.85371226894E+02 0.  0.
         23    2    1    2    0    0 -0.49894778089E+02 -0.55730429893E+02 -0.91317935255E+02  0.14726954265E+03  0.88056704433E+02 0.  0.
        -11    1    4    4    0    0  0.68184444535E+01 -0.46225321481E+02 -0.73451021950E+02  0.87053570612E+02  0.00000000000E+00 0.  1.
         11    1    4    4    0    0 -0.56713222543E+02 -0.95051084123E+01 -0.17866913306E+02  0.60215972036E+02  0.00000000000E+00 0. -1.
        -13    1    3    3    0    0 -0.19952719617E+02  0.24019108152E+02 -0.97009346842E+02  0.10191095109E+03  0.00000000000E+00 0. -1.
         13    1    3    3    0    0  0.77030676716E+02  0.21286737422E+02 -0.34340503372E+03  0.35258171752E+03  0.00000000000E+00 0.  1.
         21    1    1    2  502  503 -0.30708059768E+02 -0.32529578436E+02  0.12344650127E+02  0.46406344336E+02  0.00000000000E+00 0. -1.
         21    1    1    2  503  501  0.23524880759E+02  0.42954162755E+02 -0.68611062262E+02  0.84296844409E+02  0.00000000000E+00 0.  1.
<scales pt_clust_5="13000.00000" pt_clust_6="13000.00000" pt_clust_7="13000.00000" pt_clust_8="13000.00000" pt_clust_9="44.73431" pt_clust_10="41.10596"></scales>
<clustering>
<clus scale="   44.734">  1  9  2 -1</clus>
<clus scale="   41.106">  1 10  2 -1</clus>
<clus scale="   85.371">  7  8 -1 -1</clus>
<clus scale="   88.057">  5  6 -1 -1</clus>
<clus scale="  112.385">  2  7  1 -1</clus>
<clus scale="   44.734">  1  5  2 -1</clus>
</clustering>
</event>
<event>
10    2  0.1898324E-006  0.2235928E+03  0.7546771E-02  0.1162919E+00
         -2   -1    0    0    0  501 -0.00000000000E+00  0.00000000000E+00  0.95273318049E+02  0.95273318049E+02  0.00000000000E+00 0.  1.
          2   -1    0    0  502    0  0.00000000000E+00 -0.00000000000E+00 -0.92776894412E+03  0.92776894412E+03  0.00000000000E+00 0. -1.
         23    2    1    2    0    0  0.53864920917E+02  0.18950823771E+02 -0.14414344793E+03  0.18090981256E+03  0.93222654279E+02 0.  0.
         23    2    1    2    0    0 -0.31291417915E+02 -0.20730953899E+03 -0.44990472658E+03  0.50607500496E+03  0.98697770275E+02 0.  0.
        -11    1    4    4    0    0  0.10300475539E+02 -0.38434245185E+02 -0.18463190014E+03  0.18887093357E+03  0.00000000000E+00 0.  1.
         11    1    4    4    0    0 -0.41591893455E+02 -0.16887529381E+03 -0.26527282644E+03  0.31720407139E+03  0.00000000000E+00 0. -1.
        -13    1    3    3    0    0 -0.25488217201E+02  0.57527072286E+01 -0.54655507737E+02  0.60580255716E+02  0.00000000000E+00 0. -1.
         13    1    3    3    0    0  0.79353138118E+02  0.13198116543E+02 -0.89487940197E+02  0.12032955684E+03  0.00000000000E+00 0.  1.
         21    1    1    2  502  503  0.17804579077E+02  0.18876956130E+03 -0.22327490428E+03  0.29292086507E+03  0.00000000000E+00 0.  1.
         21    1    1    2  503  501 -0.40378082079E+02 -0.41084608500E+00 -0.15172547273E+02  0.43136579577E+02  0.00000000000E+00 0. -1.
<scales pt_clust_5="13000.00000" pt_clust_6="13000.00000" pt_clust_7="13000.00000" pt_clust_8="13000.00000" pt_clust_9="200.63023" pt_clust_10="40.38017"></scales>
<clustering>
<clus scale="   40.380">  1 10  2 -1</clus>
<clus scale="   93.223">  7  8 -1 -1</clus>
<clus scale="   98.698">  5  6 -1 -1</clus>
<clus scale="  105.106">  1  7  2 -1</clus>
<clus scale="  200.630">  1  9  2 -1</clus>
<clus scale="  223.593">  2  5  1 -1</clus>
</clustering>
</event>
<event>
10    2  0.1898324E-006  0.1298048E+03  0.7546771E-02  0.1228473E+00
         -1   -1    0    0    0  501 -0.00000000000E+00  0.00000000000E+00  0.10217436048E+03  0.10217436048E+03  0.00000000000E+00 0.  1.
          1   -1    0    0  502    0  0.00000000000E+00 -0.00000000000E+00 -0.62468163560E+03  0.62468163560E+03  0.00000000000E+00 0. -1.
         23    2    1    2    0    0  0.63473723530E+02  0.86291140228E+02 -0.43057850007E+02  0.14707149520E+03  0.91109669035E+02 0.  0.
         23    2    1    2    0    0 -0.70581347952E+02 -0.48478558457E+01 -0.20817417090E+03  0.23694400628E+03  0.88321844956E+02 0.  0.
        -11    1    3    3    0    0  0.56716118188E+02  0.46847799428E+01 -0.61109093406E+01  0.57236425800E+02  0.00000000000E+00 0.  1.
         11    1    3    3    0    0  0.67576053424E+01  0.81606360285E+02 -0.36946940666E+02  0.89835069397E+02  0.00000000000E+00 0. -1.
        -13    1    4    4    0    0  0.19531057297E+02  0.49121115420E+01 -0.21683067996E+02  0.29593013984E+02  0.00000000000E+00 0.  1.
         13    1    4    4    0    0 -0.90112405249E+02 -0.97599673877E+01 -0.18649110291E+03  0.20735099230E+03  0.00000000000E+00 0. -1.
         21    1    1    2  502  503 -0.14137651843E+02 -0.67809607744E+02 -0.29807872030E+03  0.30602114240E+03  0.00000000000E+00 0. -1.
         21    1    1    2  503  501  0.21245276265E+02 -0.13633676638E+02  0.26803466090E+02  0.36819352204E+02  0.00000000000E+00 0.  1.
<scales pt_clust_5="13000.00000" pt_clust_6="13000.00000" pt_clust_7="13000.00000" pt_clust_8="13000.00000" pt_clust_9="69.78895" pt_clust_10="25.24359"></scales>
<clustering>
<clus scale="   25.244">  1 10  2 -1</clus>
<clus scale="   69.789">  2  9  1 -1</clus>
<clus scale="   88.322">  7  8 -1 -1</clus>
<clus scale="   91.110">  5  6 -1 -1</clus>
<clus scale="  127.863">  2  7  1 -1</clus>
<clus scale="   69.789">  2  5  1 -1</clus>
</clustering>
</event>
<event>
10    2  0.1898324E-006  0.9950043E+02  0.7546771E-02  0.1283827E+00
         -1   -1    0    0    0  501 -0.00000000000E+00  0.00000000000E+00  0.23116384957E+03  0.23116384957E+03  0.00000000000E+00 0.  1.
          1   -1    0    0  502    0  0.00000000000E+00 -0.00000000000E+00 -0.78423914356E+02  0.78423914356E+02  0.00000000000E+00 0. -1.
         23    2    1    2    0    0 -0.19000050039E+02  0.31293850097E+02  0.78978158832E+02  0.12988454938E+03  0.96395744922E+02 0.  0.
         23    2    1    2    0    0  0.14591921016E+02 -0.11318290027E+02  0.38383938234E+02  0.10109081074E+03  0.91678773185E+02 0.  0.
        -13    1    3    3    0    0  0.30091738705E+02  0.42358703359E+02  0.48338383714E+02  0.70967399760E+02  0.00000000000E+00 0.  1.
         13    1    3    3    0    0 -0.49091788744E+02 -0.11064853262E+02  0.30639775118E+02  0.58917149618E+02  0.00000000000E+00 0. -1.
        -13    1    4    4    0    0  0.34137541029E+02 -0.38697489683E+02  0.42954998961E+02  0.67141636494E+02  0.00000000000E+00 0.  1.
         13    1    4    4    0    0 -0.19545620014E+02  0.27379199656E+02 -0.45710607275E+01  0.33949174242E+02  0.00000000000E+00 0. -1.
         21    1    1    2  502  503 -0.18475727267E+02 -0.80199740535E+01 -0.12862012806E+02  0.23897779296E+02  0.00000000000E+00 0. -1.
         21    1    1    2  503  501  0.22883856290E+02 -0.11955586016E+02  0.48239850954E+02  0.54714624514E+02  0.00000000000E+00 0.  1.
<scales pt_clust_5="13000.00000" pt_clust_6="13000.00000" pt_clust_7="13000.00000" pt_clust_8="13000.00000" pt_clust_9="20.14131" pt_clust_10="25.15023"></scales>
<clustering>
<clus scale="   20.141">  2  9  1 -1</clus>
<clus scale="   25.150">  1 10  2 -1</clus>
<clus scale="   91.679">  7  8 -1 -1</clus>
<clus scale="   94.938">  2  7  1 -1</clus>
<clus scale="   96.396">  5  6 -1 -1</clus>
<clus scale="   20.141">  2  5  1 -1</clus>
</clustering>
</event>
<event>
10    2  0.1898324E-006  0.1292744E+03  0.7546771E-02  0.1229597E+00
         -1   -1    0    0    0  501 -0.00000000000E+00  0.00000000000E+00  0.17678787641E+03  0.17678787641E+03  0.00000000000E+00 0.  1.
          1   -1    0    0  502    0  0.00000000000E+00 -0.00000000000E+00 -0.27023998726E+03  0.27023998726E+03  0.00000000000E+00 0. -1.
         23    2    1    2    0    0 -0.11456359625E+02  0.68639332110E+02  0.29759300427E-01  0.11075532156E+03  0.86163416138E+02 0.  0.
         23    2    1    2    0    0 -0.38319586414E+02 -0.10862322959E+03 -0.72806981600E+02  0.16343178811E+03  0.90231347573E+02 0.  0.
        -13    1    4    4    0    0 -0.37232474050E+02 -0.29858074081E+02 -0.69857449075E+02  0.84603929595E+02  0.00000000000E+00 0. -1.
         13    1    4    4    0    0 -0.10871123640E+01 -0.78765155506E+02 -0.29495325250E+01  0.78827858510E+02  0.00000000000E+00 0.  1.
        -13    1    3    3    0    0 -0.33638280314E+02  0.31576524249E+02 -0.32710081475E+02  0.56555815052E+02  0.00000000000E+00 0. -1.
         13    1    3    3    0    0  0.22181920690E+02  0.37062807861E+02  0.32739840775E+02  0.54199506511E+02  0.00000000000E+00 0.  1.
         21    1    1    2  502  503 -0.20178801516E+02 -0.45064476118E+01 -0.72285711857E+02  0.75184547877E+02  0.00000000000E+00 0. -1.
         21    1    1    2  503  501  0.69954747554E+02  0.44490345089E+02  0.51610823303E+02  0.97656206119E+02  0.00000000000E+00 0.  1.
<scales pt_clust_5="13000.00000" pt_clust_6="13000.00000" pt_clust_7="13000.00000" pt_clust_8="13000.00000" pt_clust_9="20.67588" pt_clust_10="80.62987"></scales>
<clustering>
<clus scale="   20.676">  2  9  1 -1</clus>
<clus scale="   80.630">  1 10  2 -1</clus>
<clus scale="   86.163">  7  8 -1 -1</clus>
<clus scale="   90.231">  5  6 -1 -1</clus>
<clus scale="  126.469">  1  7  2 -1</clus>
<clus scale="   20.676">  2  5  1 -1</clus>
</clustering>
</event>
<event>
10    2  0.1898324E-006  0.1203845E+03  0.7546771E-02  0.1246531E+00
         -2   -1    0    0    0  501 -0.00000000000E+00  0.00000000000E+00  0.42709274324E+02  0.42709274324E+02  0.00000000000E+00 0.  1.
          2   -1    0    0  502    0  0.00000000000E+00 -0.00000000000E+00 -0.69302113355E+03  0.69302113355E+03  0.00000000000E+00 0. -1.
         23    2    1    2    0    0  0.70924726520E+02  0.79121257745E+01 -0.10563555161E+03  0.15457791117E+03  0.87421635153E+02 0.  0.
         23    2    1    2    0    0 -0.66991727685E+02  0.38693848771E+02 -0.46371216601E+03  0.48046682390E+03  0.99167991062E+02 0.  0.
        -11    1    3    3    0    0 -0.10989358760E+02 -0.18618607550E+02 -0.42912479028E+02  0.48051008412E+02  0.00000000000E+00 0. -1.
         11    1    3    3    0    0  0.81914085280E+02  0.26530733324E+02 -0.62723072581E+02  0.10652690276E+03  0.00000000000E+00 0.  1.
        -13    1    4    4    0    0 -0.14157667555E+02  0.64603934646E+02 -0.27209896806E+03  0.28002134980E+03  0.00000000000E+00 0.  1.
         13    1    4    4    0    0 -0.52834060130E+02 -0.25910085875E+02 -0.19161319795E+03  0.20044547410E+03  0.00000000000E+00 0. -1.
         21    1    1    2  502  503  0.21149689234E+01 -0.26212867361E+02 -0.73630494791E+02  0.78185914793E+02  0.00000000000E+00 0. -1.
         21    1    1    2  503  501 -0.60479677583E+01 -0.20393107184E+02 -0.73336468112E+01  0.22499758003E+02  0.00000000000E+00 0. -1.
<scales pt_clust_5="13000.00000" pt_clust_6="13000.00000" pt_clust_7="13000.00000" pt_clust_8="13000.00000" pt_clust_9="27.58907" pt_clust_10="21.27103"></scales>
<clustering>
<clus scale="   21.271">  1 10  2 -1</clus>
<clus scale="   27.589">  2  9  1 -1</clus>
<clus scale="   87.422">  5  6 -1 -1</clus>
<clus scale="   99.168">  7  8 -1 -1</clus>
<clus scale="  110.908">  1  5  2 -1</clus>
<clus scale="   27.589">  2  5  1 -1</clus>
</clustering>
</event>
<event>
10    2  0.1898324E-006  0.2205439E+03  0.7546771E-02  0.1152272E+00
          1   -1    0    0  502    0  0.00000000000E+00  0.00000000000E+00  0.19916728793E+04  0.19916728793E+04  0.00000000000E+00 0. -1.
         -1   -1    0    0    0  501 -0.00000000000E+00 -0.00000000000E+00 -0.17488528811E+03  0.17488528811E+03  0.00000000000E+00 0.  1.
         23    2    1    2    0    0  0.19301266296E+03  0.55388888234E+02 -0.31737915883E+02  0.22748103529E+03  0.10207109831E+03 0.  0.
         23    2    1    2    0    0  0.93917770418E+01 -0.10303033401E+03  0.40517202046E+03  0.42832779241E+03  0.92719341998E+02 0.  0.
        -11    1    3    3    0    0  0.68795619226E+02 -0.11746469126E+02 -0.48937128204E+02  0.85238836679E+02  0.00000000000E+00 0. -1.
         11    1    3    3    0    0  0.12421704373E+03  0.67135357359E+02  0.17199212321E+02  0.14224219861E+03  0.00000000000E+00 0.  1.
        -13    1    4    4    0    0  0.43536029444E+02 -0.89828228637E+02  0.32909667234E+03  0.34390277153E+03  0.00000000000E+00 0.  1.
         13    1    4    4    0    0 -0.34144252403E+02 -0.13202105377E+02  0.76075348121E+02  0.84425020878E+02  0.00000000000E+00 0. -1.
         21    1    1    2  502  503 -0.20268149568E+03  0.74472900802E+02  0.14621369207E+04  0.14779953913E+04  0.00000000000E+00 0. -1.
         21    1    1    2  503  501  0.27705567554E+00 -0.26831455023E+02 -0.18783434146E+02  0.32753948416E+02  0.00000000000E+00 0. -1.
<scales pt_clust_5="13000.00000" pt_clust_6="13000.00000" pt_clust_7="13000.00000" pt_clust_8="13000.00000" pt_clust_9="195.50219" pt_clust_10="26.83289"></scales>
<clustering>
<clus scale="   26.833">  2 10  1 -1</clus>
<clus scale="   92.719">  7  8 -1 -1</clus>
<clus scale="  102.071">  5  6 -1 -1</clus>
<clus scale="  140.479">  1  7  2 -1</clus>
<clus scale="  195.502">  1  9  2 -1</clus>
<clus scale="  140.479">  1  5  2 -1</clus>
</clustering>
</event>
<event>
10    2  0.1898324E-006  0.9931609E+02  0.7546771E-02  0.1284623E+00
         -1   -1    0    0    0  501 -0.00000000000E+00  0.00000000000E+00  0.19056844773E+03  0.19056844773E+03  0.00000000000E+00 0.  1.
          1   -1    0    0  502    0  0.00000000000E+00 -0.00000000000E+00 -0.12285953216E+03  0.12285953216E+03  0.00000000000E+00 0. -1.
         23    2    1    2    0    0 -0.51517941060E+01 -0.50641865325E+02  0.10035807713E+03  0.14308443985E+03  0.88375753327E+02 0.  0.
         23    2    1    2    0    0 -0.31805435892E+02  0.14332877626E+02 -0.12151675328E+02  0.10096955041E+03  0.93968982985E+02 0.  0.
        -11    1    3    3    0    0 -0.45871364493E+01  0.21814870807E+02  0.42029930428E+01  0.22684698800E+02  0.00000000000E+00 0.  1.
         11    1    3    3    0    0 -0.56465765670E+00 -0.72456736132E+02  0.96155084092E+02  0.12039974105E+03  0.00000000000E+00 0. -1.
        -13    1    4    4    0    0 -0.39606511805E+02 -0.12912550812E+02  0.29175355514E+02  0.50858736862E+02  0.00000000000E+00 0.  1.
         13    1    4    4    0    0  0.78010759127E+01  0.27245428438E+02 -0.41327030842E+02  0.50110813547E+02  0.00000000000E+00 0. -1.
         21    1    1    2  502  503  0.20645569340E+02  0.12069133086E+02 -0.30259958942E+02  0.38569011162E+02  0.00000000000E+00 0.  1.
         21    1    1    2  503  501  0.16311660658E+02  0.24239854613E+02  0.97624727086E+01  0.30804978469E+02  0.00000000000E+00 0.  1.
<scales pt_clust_5="13000.00000" pt_clust_6="13000.00000" pt_clust_7="13000.00000" pt_clust_8="13000.00000" pt_clust_9="23.91450" pt_clust_10="31.80344"></scales>
<clustering>
<clus scale="   23.915">  2  9  1 -1</clus>
<clus scale="   31.803">  1 10  2 -1</clus>
<clus scale="   88.376">  5  6 -1 -1</clus>
<clus scale="   93.969">  7  8 -1 -1</clus>
<clus scale="   94.041">  1  5  2 -1</clus>
<clus scale="   23.915">  2  5  1 -1</clus>
</clustering>
</event>
<event>
10    2  0.1898324E-006  0.9429843E+02  0.7546771E-02  0.1294206E+00
         -1   -1    0    0    0  501 -0.00000000000E+00  0.00000000000E+00  0.22526721594E+03  0.22526721594E+03  0.00000000000E+00 0.  1.
          1   -1    0    0  502    0  0.00000000000E+00 -0.00000000000E+00 -0.12018095360E+03  0.12018095360E+03  0.00000000000E+00 0. -1.
         23    2    1    2    0    0 -0.43609223561E+02  0.25566836872E+02  0.87781622085E+02  0.13604858670E+03  0.90819476097E+02 0.  0.
         23    2    1    2    0    0  0.74719749940E+01  0.11197785798E+02 -0.32925223734E+02  0.95122735830E+02  0.88221560272E+02 0.  0.
        -11    1    4    4    0    0  0.24603225158E+02 -0.33752221137E+01  0.23617548382E+02  0.34270970282E+02  0.00000000000E+00 0.  1.
         11    1    4    4    0    0 -0.17131250164E+02  0.14573007912E+02 -0.56542772116E+02  0.60851765548E+02  0.00000000000E+00 0. -1.
        -13    1    3    3    0    0 -0.41630029349E+02 -0.27963831499E+02  0.37999629777E+02  0.62920641119E+02  0.00000000000E+00 0. -1.
         13    1    3    3    0    0 -0.19791942124E+01  0.53530668371E+02  0.49781992308E+02  0.73127945576E+02  0.00000000000E+00 0.  1.
         21    1    1    2  502  503  0.18987923859E+02  0.68851822476E+01 -0.20908485030E+02  0.29070805515E+02  0.00000000000E+00 0.  1.
         21    1    1    2  503  501  0.17149324709E+02 -0.43649804918E+02  0.71138349014E+02  0.85206041498E+02  0.00000000000E+00 0.  1.
<scales pt_clust_5="13000.00000" pt_clust_6="13000.00000" pt_clust_7="13000.00000" pt_clust_8="13000.00000" pt_clust_9="20.19770" pt_clust_10="46.96105"></scales>
<clustering>
<clus scale="   20.198">  2  9  1 -1</clus>
<clus scale="   46.961">  1 10  2 -1</clus>
<clus scale="   88.222">  5  6 -1 -1</clus>
<clus scale="   90.819">  7  8 -1 -1</clus>
<clus scale="   91.799">  2  5  1 -1</clus>
<clus scale="   20.198">  2  5  1 -1</clus>
</clustering>
</event>
<event>
10    2  0.1898324E-006  0.1690184E+03  0.7546771E-02  0.1178880E+00
          2   -1    0    0  502    0  0.00000000000E+00  0.00000000000E+00  0.11724277967E+04  0.11724277967E+04  0.00000000000E+00 0. -1.
         -2   -1    0    0    0  501 -0.00000000000E+00 -0.00000000000E+00 -0.40916223622E+02  0.40916223622E+02  0.00000000000E+00 0.  1.
         23    2    1    2    0    0 -0.10538724681E+03  0.10035147852E+03  0.33195679094E+03  0.37382105366E+03  0.91487584299E+02 0.  0.
         23    2    1    2    0    0  0.87955485656E+02 -0.12173834189E+03  0.61117187581E+03  0.63596482723E+03  0.91453859107E+02 0.  0.
        -11    1    4    4    0    0  0.80055622877E+02 -0.71290736683E+02  0.52473003793E+03  0.53556781513E+03  0.00000000000E+00 0.  1.
         11    1    4    4    0    0  0.78998627792E+01 -0.50447605206E+02  0.86441837878E+02  0.10039701210E+03  0.00000000000E+00 0. -1.
        -11    1    3    3    0    0 -0.38973203435E+02  0.44640446230E+02  0.46012095673E+02  0.75025282230E+02  0.00000000000E+00 0.  1.
         11    1    3    3    0    0 -0.66414043380E+02  0.55711032293E+02  0.28594469526E+03  0.29879577143E+03  0.00000000000E+00 0. -1.
         21    1    1    2  502  503 -0.16917115472E+02  0.12791427423E+02  0.14938895300E+03  0.15088694009E+03  0.00000000000E+00 0. -1.
         21    1    1    2  503  501  0.34348876631E+02  0.85954359433E+01  0.38993953377E+02  0.52671199387E+02  0.00000000000E+00 0.  1.
<scales pt_clust_5="13000.00000" pt_clust_6="13000.00000" pt_clust_7="13000.00000" pt_clust_8="13000.00000" pt_clust_9="21.20871" pt_clust_10="34.81933"></scales>
<clustering>
<clus scale="   21.209">  1  9  2 -1</clus>
<clus scale="   34.819">  2 10  1 -1</clus>
<clus scale="   91.454">  5  6 -1 -1</clus>
<clus scale="   91.488">  7  8 -1 -1</clus>
<clus scale="  169.000">  1  5  2 -1</clus>
<clus scale="   21.209">  1  5  2 -1</clus>
</clustering>
</event>
<event>
10    2  0.1898324E-006  0.1433985E+03  0.7546771E-02  0.1226106E+00
         -1   -1    0    0    0  501 -0.00000000000E+00  0.00000000000E+00  0.45534734268E+02  0.45534734268E+02  0.00000000000E+00 0.  1.
          1   -1    0    0  502    0  0.00000000000E+00 -0.00000000000E+00 -0.11939872636E+04  0.11939872636E+04  0.00000000000E+00 0. -1.
         23    2    1    2    0    0  0.25832323197E+02  0.42028135117E+02 -0.24626338766E+03  0.26687407383E+03  0.90235481476E+02 0.  0.
         23    2    1    2    0    0  0.47439728358E+02  0.72883095166E+02 -0.25170633980E+03  0.28245362207E+03  0.94135507301E+02 0.  0.
        -11    1    4    4    0    0  0.36143424139E+02  0.37579862338E+02 -0.35464837792E+02  0.63058289554E+02  0.00000000000E+00 0.  1.
         11    1    4    4    0    0  0.11296304219E+02  0.35303232828E+02 -0.21624150201E+03  0.21939533251E+03  0.00000000000E+00 0. -1.
        -13    1    3    3    0    0 -0.25343994917E+02  0.22065452969E+02 -0.34734730237E+02  0.48329119356E+02  0.00000000000E+00 0.  1.
         13    1    3    3    0    0  0.51176318114E+02  0.19962682148E+02 -0.21152865743E+03  0.21854495448E+03  0.00000000000E+00 0. -1.
         21    1    1    2  502  503 -0.76785497176E+02 -0.86200041096E+02 -0.65110768908E+03  0.66126218888E+03  0.00000000000E+00 0. -1.
         21    1    1    2  503  501  0.35134456215E+01 -0.28711189187E+02  0.62488719787E+00  0.28932113105E+02  0.00000000000E+00 0. -1.
<scales pt_clust_5="13000.00000" pt_clust_6="13000.00000" pt_clust_7="13000.00000" pt_clust_8="13000.00000" pt_clust_9="108.17413" pt_clust_10="28.92536"></scales>
<clustering>
<clus scale="   28.925">  1 10  2 -1</clus>
<clus scale="   90.235">  7  8 -1 -1</clus>
<clus scale="   94.136">  5  6 -1 -1</clus>
<clus scale="   99.610">  1  7  2 -1</clus>
<clus scale="  108.174">  2  9  1 -1</clus>
<clus scale="  108.174">  2  5  1 -1</clus>
</clustering>
</event>
<event>
10    2  0.1898324E-006  0.2023055E+03  0.7546771E-02  0.1176680E+00
         -1   -1    0    0    0  501 -0.00000000000E+00  0.00000000000E+00  0.31574417609E+03  0.31574417609E+03  0.00000000000E+00 0.  1.
          1   -1    0    0  502    0  0.00000000000E+00 -0.00000000000E+00 -0.41162127687E+03  0.41162127687E+03  0.00000000000E+00 0. -1.
         23    2    1    2    0    0 -0.37467526220E+02  0.24703023387E+02  0.10916984307E+03  0.14996152836E+03  0.92500543053E+02 0.  0.
         23    2    1    2    0    0  0.10745601267E+02 -0.20713830159E+03 -0.19303714507E+03  0.29806572442E+03  0.92509960353E+02 0.  0.
        -11    1    3    3    0    0 -0.60718352594E+02 -0.59337991158E+01  0.47659385407E+02  0.77416699303E+02  0.00000000000E+00 0.  1.
         11    1    3    3    0    0  0.23250826374E+02  0.30636822503E+02  0.61510457665E+02  0.72544829053E+02  0.00000000000E+00 0. -1.
        -13    1    4    4    0    0 -0.23054740074E+02 -0.24384568193E+02 -0.54441679212E+01  0.33996575860E+02  0.00000000000E+00 0.  1.
         13    1    4    4    0    0  0.33800341341E+02 -0.18275373340E+03 -0.18759297715E+03  0.26406914856E+03  0.00000000000E+00 0. -1.
         21    1    1    2  502  503 -0.13748931546E+02  0.26737555639E+02 -0.94061632535E+02  0.98749788432E+02  0.00000000000E+00 0.  1.
         21    1    1    2  503  501  0.40470856499E+02  0.15569772257E+03  0.82051833749E+02  0.18058841175E+03  0.00000000000E+00 0.  1.
<scales pt_clust_5="13000.00000" pt_clust_6="13000.00000" pt_clust_7="13000.00000" pt_clust_8="13000.00000" pt_clust_9="30.06543" pt_clust_10="179.91505"></scales>
<clustering>
<clus scale="   30.065">  2  9  1 -1</clus>
<clus scale="   92.501">  5  6 -1 -1</clus>
<clus scale="   92.510">  7  8 -1 -1</clus>
<clus scale="  103.568">  1  5  2 -1</clus>
<clus scale="  179.915">  1 10  2 -1</clus>
<clus scale="   30.065">  2  5  1 -1</clus>
</clustering>
</event>
<event>
10    2  0.1898324E-006  0.1121218E+03  0.7546771E-02  0.1259277E+00
          1   -1    0    0  502    0  0.00000000000E+00  0.00000000000E+00  0.21862795647E+03  0.21862795647E+03  0.00000000000E+00 0. -1.
         -1   -1    0    0    0  501 -0.00000000000E+00 -0.00000000000E+00 -0.11265231292E+03  0.11265231292E+03  0.00000000000E+00 0.  1.
         23    2    1    2    0    0  0.43910741103E+02  0.54337537310E+02 -0.30387867584E+02  0.11820188491E+03  0.90374454110E+02 0.  0.
         23    2    1    2    0    0 -0.27540163245E+01 -0.50636702348E+02  0.12276593733E+03  0.16440784513E+03  0.96885519763E+02 0.  0.
        -11    1    3    3    0    0  0.59402070579E+02  0.26079488251E+02  0.10944302089E+02  0.65791514991E+02  0.00000000000E+00 0. -1.
         11    1    3    3    0    0 -0.15491329476E+02  0.28258049059E+02 -0.41332169673E+02  0.52410369923E+02  0.00000000000E+00 0.  1.
        -13    1    4    4    0    0 -0.32964066802E+02  0.11752824581E+02  0.19584530566E+02  0.40103770687E+02  0.00000000000E+00 0.  1.
         13    1    4    4    0    0  0.30210050478E+02 -0.62389526930E+02  0.10318140676E+03  0.12430407444E+03  0.00000000000E+00 0. -1.
         21    1    1    2  502  503 -0.21619581917E+02  0.98077113441E+00  0.17946660138E+02  0.28114957663E+02  0.00000000000E+00 0.  1.
         21    1    1    2  503  501 -0.19537142862E+02 -0.46816060963E+01 -0.43490863307E+01  0.20555581693E+02  0.00000000000E+00 0. -1.
<scales pt_clust_5="13000.00000" pt_clust_6="13000.00000" pt_clust_7="13000.00000" pt_clust_8="13000.00000" pt_clust_9="22.62311" pt_clust_10="20.09023"></scales>
<clustering>
<clus scale="   20.090">  2 10  1 -1</clus>
<clus scale="   22.623">  1  9  2 -1</clus>
<clus scale="   90.374">  5  6 -1 -1</clus>
<clus scale="   96.886">  7  8 -1 -1</clus>
<clus scale="  106.546">  2  5  1 -1</clus>
<clus scale="   22.623">  1  5  2 -1</clus>
</clustering>
</event>
<event>
10    2  0.1898324E-006  0.2613813E+03  0.7546771E-02  0.1106398E+00
         -1   -1    0    0    0  501 -0.00000000000E+00  0.00000000000E+00  0.10357080749E+04  0.10357080749E+04  0.00000000000E+00 0.  1.
          1   -1    0    0  502    0  0.00000000000E+00 -0.00000000000E+00 -0.13652361401E+03  0.13652361401E+03  0.00000000000E+00 0. -1.
         23    2    1    2    0    0  0.31997494243E+02  0.25232179578E+03  0.80697202068E+03  0.85095689730E+03  0.90739575918E+02 0.  0.
         23    2    1    2    0    0 -0.71795659297E+02 -0.19515160526E+03  0.48480053272E+02  0.23261653493E+03  0.92311272494E+02 0.  0.
        -11    1    3    3    0    0 -0.19447921667E+02  0.10970974756E+02  0.49556807935E+02  0.54354955221E+02  0.00000000000E+00 0. -1.
         11    1    3    3    0    0  0.51445415910E+02  0.24135082102E+03  0.75741521274E+03  0.79660194208E+03  0.00000000000E+00 0.  1.
        -13    1    4    4    0    0 -0.20019195632E+02 -0.69254183109E+02 -0.26979046322E+02  0.76972586109E+02  0.00000000000E+00 0. -1.
         13    1    4    4    0    0 -0.51776463665E+02 -0.12589742215E+03  0.75459099595E+02  0.15564394883E+03  0.00000000000E+00 0.  1.
         21    1    1    2  502  503  0.20335065126E+02 -0.22523984358E+02  0.10831030477E+01  0.30364746949E+02  0.00000000000E+00 0.  1.
         21    1    1    2  503  501  0.19463099928E+02 -0.34646206159E+02  0.42649283918E+02  0.58293509748E+02  0.00000000000E+00 0. -1.
<scales pt_clust_5="13000.00000" pt_clust_6="13000.00000" pt_clust_7="13000.00000" pt_clust_8="13000.00000" pt_clust_9="28.92235" pt_clust_10="77.12175"></scales>
<clustering>
<clus scale="   28.922">  9 10 -1 -1</clus>
<clus scale="   77.122">  2  9  1 -1</clus>
<clus scale="   90.740">  5  6 -1 -1</clus>
<clus scale="   92.311">  7  8 -1 -1</clus>
<clus scale="  260.830">  1  5  2 -1</clus>
<clus scale="   77.122">  2  5  1 -1</clus>
</clustering>
</event>
<event>
10    2  0.1898324E-006  0.1093187E+03  0.7546771E-02  0.1269719E+00
          2   -1    0    0  502    0  0.00000000000E+00  0.00000000000E+00  0.21730862574E+03  0.21730862574E+03  0.00000000000E+00 0. -1.
         -2   -1    0    0    0  501 -0.00000000000E+00 -0.00000000000E+00 -0.10981752700E+03  0.10981752700E+03  0.00000000000E+00 0.  1.
         23    2    1    2    0    0  0.60258832713E+01  0.42238989672E+01  0.33928611811E+01  0.92281469000E+02  0.91924998896E+02 0.  0.
         23    2    1    2    0    0  0.53067654149E+02  0.41849677612E+02  0.46509037130E+02  0.13542439933E+03  0.10774556124E+03 0.  0.
        -11    1    4    4    0    0  0.16152447550E+02  0.75129427399E+02  0.21566879829E+02  0.79815178561E+02  0.00000000000E+00 0. -1.
         11    1    4    4    0    0  0.36915206599E+02 -0.33279749787E+02  0.24942157301E+02  0.55609220773E+02  0.00000000000E+00 0.  1.
        -13    1    3    3    0    0  0.28431210429E+02 -0.35671357005E+02 -0.45465024897E+01  0.45841576346E+02  0.00000000000E+00 0.  1.
         13    1    3    3    0    0 -0.22405327158E+02  0.39895255972E+02  0.79393636708E+01  0.46439892653E+02  0.00000000000E+00 0. -1.
         21    1    1    2  502  503 -0.22525819829E+02 -0.80725300744E+01  0.34172672234E+02  0.41717500266E+02  0.00000000000E+00 0.  1.
         21    1    1    2  503  501 -0.36567717592E+02 -0.38001046505E+02  0.23416528194E+02  0.57702784144E+02  0.00000000000E+00 0.  1.
<scales pt_clust_5="13000.00000" pt_clust_6="13000.00000" pt_clust_7="13000.00000" pt_clust_8="13000.00000" pt_clust_9="20.79490" pt_clust_10="81.04244"></scales>
<clustering>
<clus scale="   20.795">  9 10 -1 -1</clus>
<clus scale="   81.042">  1  9  2 -1</clus>
<clus scale="   91.925">  7  8 -1 -1</clus>
<clus scale="   93.764">  2  7  1 -1</clus>
<clus scale="  107.746">  5  6 -1 -1</clus>
<clus scale="   81.042">  1  5  2 -1</clus>
</clustering>
</event>
<event>
10    2  0.1898324E-006  0.2753718E+03  0.7546771E-02  0.1098882E+00
         -1   -1    0    0    0  501 -0.00000000000E+00  0.00000000000E+00  0.58121865655E+02  0.58121865655E+02  0.00000000000E+00 0.  1.
          1   -1    0    0  502    0  0.00000000000E+00 -0.00000000000E+00 -0.16739113389E+04  0.16739113389E+04  0.00000000000E+00 0. -1.
         23    2    1    2    0    0 -0.11776133534E+03 -0.22751609715E+03 -0.53097559834E+03  0.59874154010E+03  0.10452291251E+03 0.  0.
         23    2    1    2    0    0  0.10740763940E+03  0.21810982686E+03 -0.87626221534E+03  0.91399903640E+03  0.91926443009E+02 0.  0.
        -11    1    4    4    0    0  0.47034550455E+02  0.17612439217E+03 -0.69189501399E+03  0.71550734507E+03  0.00000000000E+00 0. -1.
         11    1    4    4    0    0  0.60373088941E+02  0.41985434693E+02 -0.18436720135E+03  0.19849169133E+03  0.00000000000E+00 0.  1.
        -13    1    3    3    0    0 -0.11901131974E+03 -0.17594019046E+03 -0.33980564788E+03  0.40073248330E+03  0.00000000000E+00 0.  1.
         13    1    3    3    0    0  0.12499844014E+01 -0.51575906695E+02 -0.19116995047E+03  0.19800905680E+03  0.00000000000E+00 0. -1.
         21    1    1    2  502  503  0.10497193926E+02  0.30483183318E+02 -0.18457139986E+03  0.18736599796E+03  0.00000000000E+00 0.  1.
         21    1    1    2  503  501 -0.14349798669E+00 -0.21076913024E+02 -0.23980259704E+02  0.31926630103E+02  0.00000000000E+00 0. -1.
<scales pt_clust_5="13000.00000" pt_clust_6="13000.00000" pt_clust_7="13000.00000" pt_clust_8="13000.00000" pt_clust_9="31.72499" pt_clust_10="21.07740"></scales>
<clustering>
<clus scale="   21.077">  1 10  2 -1</clus>
<clus scale="   31.725">  2  9  1 -1</clus>
<clus scale="   91.926">  5  6 -1 -1</clus>
<clus scale="  104.523">  7  8 -1 -1</clus>
<clus scale="  270.841">  2  5  1 -1</clus>
<clus scale="   31.725">  2  5  1 -1</clus>
</clustering>
</event>
<event>
10    2  0.1898324E-006  0.1149497E+03  0.7546771E-02  0.1256154E+00
          3   -1    0    0  502    0  0.00000000000E+00  0.00000000000E+00  0.78676879902E+02  0.78676879902E+02  0.00000000000E+00 0. -1.
         -3   -1    0    0    0  501 -0.00000000000E+00 -0.00000000000E+00 -0.32476925011E+03  0.32476925011E+03  0.00000000000E+00 0.  1.
         23    2    1    2    0    0  0.73251355866E+01 -0.44007845843E+02 -0.96781200304E+02  0.13554745106E+03  0.83762537266E+02 0.  0.
         23    2    1    2    0    0 -0.25986329349E+02  0.80369117762E+02 -0.90262968950E+02  0.15637549306E+03  0.95767462443E+02 0.  0.
        -13    1    3    3    0    0  0.11778080614E+02  0.23950120897E+02 -0.30225132547E+02  0.40322327703E+02  0.00000000000E+00 0.  1.
         13    1    3    3    0    0 -0.44529450273E+01 -0.67957966740E+02 -0.66556067757E+02  0.95225123356E+02  0.00000000000E+00 0. -1.
        -13    1    4    4    0    0 -0.42657594620E+01  0.49611320281E+02 -0.10478785426E+03  0.11601712893E+03  0.00000000000E+00 0.  1.
         13    1    4    4    0    0 -0.21720569887E+02  0.30757797481E+02  0.14524885311E+02  0.40358364132E+02  0.00000000000E+00 0. -1.
         21    1    1    2  502  503  0.20159845757E+02 -0.14987143279E+01  0.17919785343E+02  0.27014518917E+02  0.00000000000E+00 0. -1.
         21    1    1    2  503  501 -0.14986519939E+01 -0.34862557591E+02 -0.76967986296E+02  0.84508666976E+02  0.00000000000E+00 0. -1.
<scales pt_clust_5="13000.00000" pt_clust_6="13000.00000" pt_clust_7="13000.00000" pt_clust_8="13000.00000" pt_clust_9="20.21548" pt_clust_10="34.96339"></scales>
<clustering>
<clus scale="   20.215">  1  9  2 -1</clus>
<clus scale="   34.963">  2 10  1 -1</clus>
<clus scale="   83.763">  5  6 -1 -1</clus>
<clus scale="   95.767">  7  8 -1 -1</clus>
<clus scale="  105.158">  2  5  1 -1</clus>
<clus scale="   20.215">  1  5  2 -1</clus>
</clustering>
</event>
<event>
10    2  0.1898324E-006  0.2607805E+03  0.7546771E-02  0.1106739E+00
          1   -1    0    0  503    0  0.00000000000E+00  0.00000000000E+00  0.10922983991E+04  0.10922983991E+04  0.00000000000E+00 0. -1.
         -1   -1    0    0    0  501 -0.00000000000E+00 -0.00000000000E+00 -0.16073227806E+03  0.16073227806E+03  0.00000000000E+00 0.  1.
         23    2    1    2    0    0 -0.55953568925E+02  0.21867972067E+03  0.67600902293E+02  0.25246009288E+03  0.90634399634E+02 0.  0.
         23    2    1    2    0    0  0.83825290625E+02 -0.27413964656E+03  0.30859252268E+03  0.43109664993E+03  0.91846346440E+02 0.  0.
        -13    1    4    4    0    0 -0.16251204572E+02 -0.35477268385E+02  0.21407428892E+02  0.44508608537E+02  0.00000000000E+00 0.  1.
         13    1    4    4    0    0  0.10007649520E+03 -0.23866237818E+03  0.28718509379E+03  0.38658804139E+03  0.00000000000E+00 0. -1.
        -13    1    3    3    0    0 -0.50212053513E+01  0.14376287883E+03  0.81038081438E+01  0.14407862277E+03  0.00000000000E+00 0.  1.
         13    1    3    3    0    0 -0.50932363574E+02  0.74916841840E+02  0.59497094149E+02  0.10838147011E+03  0.00000000000E+00 0. -1.
         21    1    1    2  502  501 -0.61655499565E+02  0.40653599552E+02  0.47900528622E+03  0.48466501835E+03  0.00000000000E+00 0. -1.
         21    1    1    2  503  502  0.33783777865E+02  0.14806326340E+02  0.76367409795E+02  0.84808915954E+02  0.00000000000E+00 0. -1.
<scales pt_clust_5="13000.00000" pt_clust_6="13000.00000" pt_clust_7="13000.00000" pt_clust_8="13000.00000" pt_clust_9="65.96986" pt_clust_10="36.88592"></scales>
<clustering>
<clus scale="   36.886">  1 10  2 -1</clus>
<clus scale="   65.970">  1  9  2 -1</clus>
<clus scale="   90.634">  7  8 -1 -1</clus>
<clus scale="   91.846">  5  6 -1 -1</clus>
<clus scale="  260.356">  2  7  1 -1</clus>
<clus scale="   36.886">  1  5  2 -1</clus>
</clustering>
</event>
<event>
10    2  0.1898324E-006  0.1421728E+03  0.7546771E-02  0.1228481E+00
          1   -1    0    0  502    0  0.00000000000E+00  0.00000000000E+00  0.10431011314E+04  0.10431011314E+04  0.00000000000E+00 0. -1.
         -1   -1    0    0    0  501 -0.00000000000E+00 -0.00000000000E+00 -0.78024087750E+02  0.78024087750E+02  0.00000000000E+00 0.  1.
         23    2    1    2    0    0 -0.26791037449E+02 -0.38997322594E+02  0.14442106250E+02  0.10455094826E+03  0.92107412796E+02 0.  0.
         23    2    1    2    0    0 -0.66576687005E+02 -0.63729445639E+02  0.39650526164E+03  0.41751433468E+03  0.92778767288E+02 0.  0.
        -11    1    3    3    0    0 -0.26617927936E+02  0.14318873265E+01 -0.32868310254E+02  0.42318910759E+02  0.00000000000E+00 0.  1.
         11    1    3    3    0    0 -0.17310951381E+00 -0.40429209921E+02  0.47310416504E+02  0.62232037501E+02  0.00000000000E+00 0. -1.
        -13    1    4    4    0    0 -0.70804350188E+02 -0.41078338606E+01  0.20791494687E+03  0.21967875508E+03  0.00000000000E+00 0.  1.
         13    1    4    4    0    0  0.42276631833E+01 -0.59621611779E+02  0.18859031478E+03  0.19783557960E+03  0.00000000000E+00 0. -1.
         21    1    1    2  502  503  0.95087623987E+02  0.68502573898E+02  0.55245847426E+03  0.56475182571E+03  0.00000000000E+00 0. -1.
         21    1    1    2  503  501 -0.17198995325E+01  0.34224194336E+02  0.16712015127E+01  0.34308110511E+02  0.00000000000E+00 0.  1.
<scales pt_clust_5="13000.00000" pt_clust_6="13000.00000" pt_clust_7="13000.00000" pt_clust_8="13000.00000" pt_clust_9="107.72749" pt_clust_10="34.26738"></scales>
<clustering>
<clus scale="   34.267">  2 10  1 -1</clus>
<clus scale="   92.107">  5  6 -1 -1</clus>
<clus scale="   92.779">  7  8 -1 -1</clus>
<clus scale="   97.297">  2  5  1 -1</clus>
<clus scale="  107.727">  1  9  2 -1</clus>
<clus scale="  107.727">  1  5  2 -1</clus>
</clustering>
</event>
<event>
10    2  0.1898324E-006  0.1274510E+03  0.7546771E-02  0.1231899E+00
         -2   -1    0    0    0  501 -0.00000000000E+00  0.00000000000E+00  0.92243273106E+03  0.92243273106E+03  0.00000000000E+00 0.  1.
          2   -1    0    0  502    0  0.00000000000E+00 -0.00000000000E+00 -0.41747632381E+02  0.41747632381E+02  0.00000000000E+00 0. -1.
         23    2    1    2    0    0  0.61232841243E+02  0.56917603535E+02  0.59536773342E+03  0.60821840178E+03  0.92075033726E+02 0.  0.
         23    2    1    2    0    0 -0.42229960554E+02 -0.88608964099E+02  0.19794825153E+03  0.24020890704E+03  0.94243783070E+02 0.  0.
        -13    1    4    4    0    0 -0.56360588343E+02 -0.19942181684E+02  0.12750683468E+03  0.14082684197E+03  0.00000000000E+00 0.  1.
         13    1    4    4    0    0  0.14130627789E+02 -0.68666782415E+02  0.70441416854E+02  0.99382065069E+02  0.00000000000E+00 0. -1.
        -13    1    3    3    0    0  0.72901174501E+02  0.71532605468E+01  0.35165094610E+03  0.35919930160E+03  0.00000000000E+00 0. -1.
         13    1    3    3    0    0 -0.11668333258E+02  0.49764342988E+02  0.24371678732E+03  0.24901910018E+03  0.00000000000E+00 0.  1.
         21    1    1    2  502  503 -0.19114583549E+02 -0.63911135812E+01 -0.31374175435E+00  0.20157184103E+02  0.00000000000E+00 0. -1.
         21    1    1    2  503  501  0.11170286045E+00  0.38082474145E+02  0.87682855489E+02  0.95595870524E+02  0.00000000000E+00 0.  1.
<scales pt_clust_5="13000.00000" pt_clust_6="13000.00000" pt_clust_7="13000.00000" pt_clust_8="13000.00000" pt_clust_9="20.15474" pt_clust_10="37.35020"></scales>
<clustering>
<clus scale="   20.155">  2  9  1 -1</clus>
<clus scale="   37.350">  2 10  1 -1</clus>
<clus scale="   92.075">  7  8 -1 -1</clus>
<clus scale="   94.244">  5  6 -1 -1</clus>
<clus scale="  125.856">  1  7  2 -1</clus>
<clus scale="   20.155">  2  5  1 -1</clus>
</clustering>
</event>
<event>
10    2  0.1898324E-006  0.3201385E+03  0.7546771E-02  0.1075591E+00
         -1   -1    0    0    0  501 -0.00000000000E+00  0.00000000000E+00  0.13906837898E+04  0.13906837898E+04  0.00000000000E+00 0.  1.
          1   -1    0    0  502    0  0.00000000000E+00 -0.00000000000E+00 -0.14399381933E+03  0.14399381933E+03  0.00000000000E+00 0. -1.
         23    2    1    2    0    0  0.11564813106E+03 -0.24578929146E+03  0.83969187957E+03  0.88725097316E+03  0.91350811402E+02 0.  0.
         23    2    1    2    0    0 -0.12651900882E+03  0.28180866880E+03  0.25325374564E+03  0.40972451313E+03  0.91178569725E+02 0.  0.
        -11    1    4    4    0    0 -0.18790150680E+01  0.49742602799E+02  0.91909600538E+01  0.50619472316E+02  0.00000000000E+00 0.  1.
         11    1    4    4    0    0 -0.12463999375E+03  0.23206606600E+03  0.24406278559E+03  0.35910504082E+03  0.00000000000E+00 0. -1.
        -13    1    3    3    0    0  0.39347506022E+02 -0.85811618701E+02  0.44015544265E+03  0.45016516283E+03  0.00000000000E+00 0. -1.
         13    1    3    3    0    0  0.76300625037E+02 -0.15997767276E+03  0.39953643692E+03  0.43708581033E+03  0.00000000000E+00 0.  1.
         21    1    1    2  502  503  0.49546401802E+01  0.25131515180E+02 -0.32618294248E+02  0.41474023608E+02  0.00000000000E+00 0. -1.
         21    1    1    2  503  501  0.59162375778E+01 -0.61150892524E+02  0.18636263955E+03  0.19622809927E+03  0.00000000000E+00 0.  1.
<scales pt_clust_5="13000.00000" pt_clust_6="13000.00000" pt_clust_7="13000.00000" pt_clust_8="13000.00000" pt_clust_9="25.61526" pt_clust_10="60.30563"></scales>
<clustering>
<clus scale="   25.615">  2  9  1 -1</clus>
<clus scale="   60.306">  1 10  2 -1</clus>
<clus scale="   91.179">  5  6 -1 -1</clus>
<clus scale="   91.351">  7  8 -1 -1</clus>
<clus scale="  320.089">  2  5  1 -1</clus>
<clus scale="   25.615">  2  5  1 -1</clus>
</clustering>
</event>
<event>
10    2  0.1898324E-006  0.1908619E+03  0.7546771E-02  0.1157723E+00
          2   -1    0    0  502    0  0.00000000000E+00  0.00000000000E+00  0.13624843770E+04  0.13624843770E+04  0.00000000000E+00 0. -1.
         -2   -1    0    0    0  501 -0.00000000000E+00 -0.00000000000E+00 -0.97311336436E+02  0.97311336436E+02  0.00000000000E+00 0.  1.
         23    2    1    2    0    0 -0.15765916212E+03  0.34752668599E+02  0.31706869397E+03  0.36728636874E+03  0.91118387764E+02 0.  0.
         23    2    1    2    0    0  0.17632305600E+03 -0.76916269503E+01  0.82926875324E+03  0.85276071187E+03  0.91461387477E+02 0.  0.
        -11    1    3    3    0    0 -0.13190488264E+02  0.37523869052E+02  0.86095255957E+02  0.94838930970E+02  0.00000000000E+00 0. -1.
         11    1    3    3    0    0 -0.14446867386E+03 -0.27712004525E+01  0.23097343801E+03  0.27244743777E+03  0.00000000000E+00 0.  1.
        -13    1    4    4    0    0  0.54496490124E+02  0.40359523452E+02  0.27949157095E+03  0.28760093324E+03  0.00000000000E+00 0. -1.
         13    1    4    4    0    0  0.12182656588E+03 -0.48051150402E+02  0.54977718230E+03  0.56515977863E+03  0.00000000000E+00 0.  1.
         21    1    1    2  502  503 -0.78041234726E+01  0.25515820410E+02  0.16609490282E+03  0.16822448744E+03  0.00000000000E+00 0. -1.
         21    1    1    2  503  501 -0.10859770404E+02 -0.52576862059E+02 -0.47259309485E+02  0.71524145365E+02  0.00000000000E+00 0.  1.
<scales pt_clust_5="13000.00000" pt_clust_6="13000.00000" pt_clust_7="13000.00000" pt_clust_8="13000.00000" pt_clust_9="26.68261" pt_clust_10="53.44925"></scales>
<clustering>
<clus scale="   26.683">  1  9  2 -1</clus>
<clus scale="   53.449">  2 10  1 -1</clus>
<clus scale="   91.118">  5  6 -1 -1</clus>
<clus scale="   91.461">  7  8 -1 -1</clus>
<clus scale="  190.698">  2  5  1 -1</clus>
<clus scale="   26.683">  1  5  2 -1</clus>
</clustering>
</event>
<event>
10    2  0.1898324E-006  0.1597363E+03  0.7546771E-02  0.1189319E+00
          1   -1    0    0  502    0  0.00000000000E+00  0.00000000000E+00  0.14312417038E+03  0.14312417038E+03  0.00000000000E+00 0. -1.
         -1   -1    0    0    0  501 -0.00000000000E+00 -0.00000000000E+00 -0.57288871846E+03  0.57288871846E+03  0.00000000000E+00 0.  1.
         23    2    1    2    0    0  0.95884368740E+02  0.57953318379E+02 -0.41957438469E+03  0.44402110410E+03  0.92518524171E+02 0.  0.
         23    2    1    2    0    0 -0.11351749043E+03 -0.35929998965E+02 -0.12668137076E+02  0.15011168973E+03  0.90530946298E+02 0.  0.
        -13    1    3    3    0    0  0.57217937422E+02  0.70263705291E+02 -0.18542445060E+03  0.20638097666E+03  0.00000000000E+00 0. -1.
         13    1    3    3    0    0  0.38666431318E+02 -0.12310386912E+02 -0.23414993409E+03  0.23764012744E+03  0.00000000000E+00 0.  1.
        -13    1    4    4    0    0 -0.10201343765E+02  0.26821253879E+02 -0.25897947296E+01  0.28812395093E+02  0.00000000000E+00 0. -1.
         13    1    4    4    0    0 -0.10331614666E+03 -0.62751252844E+02 -0.10078342346E+02  0.12129929464E+03  0.00000000000E+00 0.  1.
         21    1    1    2  502  503 -0.20717133506E+02 -0.61923482210E+01  0.52566482809E+02  0.56839949965E+02  0.00000000000E+00 0.  1.
         21    1    1    2  503  501  0.38350255193E+02 -0.15830971193E+02 -0.50088509122E+02  0.65040145052E+02  0.00000000000E+00 0. -1.
<scales pt_clust_5="13000.00000" pt_clust_6="13000.00000" pt_clust_7="13000.00000" pt_clust_8="13000.00000" pt_clust_9="21.62278" pt_clust_10="40.08656"></scales>
<clustering>
<clus scale="   21.623">  1  9  2 -1</clus>
<clus scale="   40.087">  2 10  1 -1</clus>
<clus scale="   90.531">  7  8 -1 -1</clus>
<clus scale="   92.519">  5  6 -1 -1</clus>
<clus scale="  158.593">  1  7  2 -1</clus>
<clus scale="   21.623">  1  5  2 -1</clus>
</clustering>
</event>
<event>
10    2  0.1898324E-006  0.2028769E+03  0.7546771E-02  0.1147576E+00
          2   -1    0    0  502    0  0.00000000000E+00  0.00000000000E+00  0.17097742133E+04  0.17097742133E+04  0.00000000000E+00 0. -1.
         -2   -1    0    0    0  501 -0.00000000000E+00 -0.00000000000E+00 -0.69005469309E+02  0.69005469309E+02  0.00000000000E+00 0.  1.
         23    2    1    2    0    0  0.12177963433E+03  0.52909069836E+02  0.82414078791E+02  0.18184005870E+03  0.92973531486E+02 0.  0.
         23    2    1    2    0    0 -0.18914957734E+03 -0.10541354434E+03  0.12096459979E+04  0.12321956910E+04  0.90405767092E+02 0.  0.
        -11    1    4    4    0    0 -0.52656626103E+02  0.11155505382E+02  0.22735510054E+03  0.23363969550E+03  0.00000000000E+00 0.  1.
         11    1    4    4    0    0 -0.13649295124E+03 -0.11656904972E+03  0.98229089732E+03  0.99855599545E+03  0.00000000000E+00 0. -1.
        -11    1    3    3    0    0  0.41128528158E+02  0.50647214807E+02  0.77074051587E+02  0.10098071907E+03  0.00000000000E+00 0. -1.
         11    1    3    3    0    0  0.80651106170E+02  0.22618550290E+01  0.53400272043E+01  0.80859339629E+02  0.00000000000E+00 0.  1.
         21    1    1    2  502  503  0.30179482996E+02  0.13179416379E+02  0.25008616427E+03  0.25224509463E+03  0.00000000000E+00 0.  1.
         21    1    1    2  503  501  0.37190460014E+02  0.39325058124E+02  0.98622503110E+02  0.11249883836E+03  0.00000000000E+00 0. -1.
<scales pt_clust_5="13000.00000" pt_clust_6="13000.00000" pt_clust_7="13000.00000" pt_clust_8="13000.00000" pt_clust_9="32.93172" pt_clust_10="56.32711"></scales>
<clustering>
<clus scale="   32.932">  1  9  2 -1</clus>
<clus scale="   56.327">  2 10  1 -1</clus>
<clus scale="   90.406">  5  6 -1 -1</clus>
<clus scale="   92.974">  7  8 -1 -1</clus>
<clus scale="  201.713">  1  5  2 -1</clus>
<clus scale="   32.932">  1  5  2 -1</clus>
</clustering>
</event>
<event>
10    2  0.1898324E-006  0.9272014E+02  0.7546771E-02  0.1297452E+00
          4   -1    0    0  502    0  0.00000000000E+00  0.00000000000E+00  0.27529166090E+03  0.27529166090E+03  0.00000000000E+00 0. -1.
         -4   -1    0    0    0  501 -0.00000000000E+00 -0.00000000000E+00 -0.17780016926E+03  0.17780016926E+03  0.00000000000E+00 0.  1.
         23    2    1    2    0    0 -0.12389219849E+02  0.20995417926E+02 -0.81077853269E+02  0.12308103443E+03  0.89336568124E+02 0.  0.
         23    2    1    2    0    0 -0.34271489042E+02 -0.18133709369E+02  0.44088339625E+02  0.10843620051E+03  0.91166120421E+02 0.  0.
        -11    1    3    3    0    0 -0.50638912424E+02  0.55612907174E+01 -0.50541918699E+02  0.71761500484E+02  0.00000000000E+00 0.  1.
         11    1    3    3    0    0  0.38249692575E+02  0.15434127209E+02 -0.30535934570E+02  0.51319533950E+02  0.00000000000E+00 0. -1.
        -13    1    4    4    0    0 -0.26336461579E+02  0.31849923321E+02  0.40236644367E+02  0.57680277166E+02  0.00000000000E+00 0.  1.
         13    1    4    4    0    0 -0.79350274631E+01 -0.49983632690E+02  0.38516952578E+01  0.50755923340E+02  0.00000000000E+00 0. -1.
         21    1    1    2  502  503  0.26260556138E+02  0.89231003679E+01  0.17365825709E+03  0.17585911630E+03  0.00000000000E+00 0.  1.
         21    1    1    2  503  501  0.20400152752E+02 -0.11784808925E+02 -0.39177251805E+02  0.45715478918E+02  0.00000000000E+00 0. -1.
<scales pt_clust_5="13000.00000" pt_clust_6="13000.00000" pt_clust_7="13000.00000" pt_clust_8="13000.00000" pt_clust_9="27.86173" pt_clust_10="23.55946"></scales>
<clustering>
<clus scale="   23.559">  2 10  1 -1</clus>
<clus scale="   27.862">  1  9  2 -1</clus>
<clus scale="   89.337">  5  6 -1 -1</clus>
<clus scale="   90.922">  2  5  1 -1</clus>
<clus scale="   91.166">  7  8 -1 -1</clus>
<clus scale="   27.862">  1  5  2 -1</clus>
</clustering>
</event>
<event>
10    2  0.1898324E-006  0.1003582E+03  0.7546771E-02  0.1280329E+00
          1   -1    0    0  502    0  0.00000000000E+00  0.00000000000E+00  0.23421805244E+03  0.23421805244E+03  0.00000000000E+00 0. -1.
         -1   -1    0    0    0  501 -0.00000000000E+00 -0.00000000000E+00 -0.12502835570E+03  0.12502835570E+03  0.00000000000E+00 0.  1.
         23    2    1    2    0    0  0.13149847009E+02  0.47147152274E+02  0.16687547009E+02  0.10565974648E+03  0.92139759913E+02 0.  0.
         23    2    1    2    0    0 -0.93394739824E+01 -0.29188941445E+02  0.10925807063E+03  0.14515476639E+03  0.90517181411E+02 0.  0.
        -11    1    4    4    0    0 -0.25168986166E+02 -0.56914183635E+02  0.59927342488E+02  0.86394377949E+02  0.00000000000E+00 0.  1.
         11    1    4    4    0    0  0.15829512184E+02  0.27725242191E+02  0.49330728147E+02  0.58760388443E+02  0.00000000000E+00 0. -1.
        -13    1    3    3    0    0 -0.38847214282E+02  0.91552160620E+01  0.74953534829E+01  0.40609165990E+02  0.00000000000E+00 0.  1.
         13    1    3    3    0    0  0.51997061291E+02  0.37991936212E+02  0.91921935258E+01  0.65050580488E+02  0.00000000000E+00 0. -1.
         21    1    1    2  502  503  0.22418516631E+02 -0.13394689111E+02  0.38832464106E+02  0.46797092355E+02  0.00000000000E+00 0. -1.
         21    1    1    2  503  501 -0.26228889658E+02 -0.45635217179E+01 -0.55588385010E+02  0.61634802921E+02  0.00000000000E+00 0.  1.
<scales pt_clust_5="13000.00000" pt_clust_6="13000.00000" pt_clust_7="13000.00000" pt_clust_8="13000.00000" pt_clust_9="26.11527" pt_clust_10="26.31171"></scales>
<clustering>
<clus scale="   26.115">  1  9  2 -1</clus>
<clus scale="   26.312">  2 10  1 -1</clus>
<clus scale="   90.517">  5  6 -1 -1</clus>
<clus scale="   92.140">  7  8 -1 -1</clus>
<clus scale="   98.871">  1  5  2 -1</clus>
<clus scale="   26.115">  1  5  2 -1</clus>
</clustering>
</event>
<event>
10    2  0.1898324E-006  0.9766757E+02  0.7546771E-02  0.1285886E+00
         -4   -1    0    0    0  501 -0.00000000000E+00  0.00000000000E+00  0.20063030676E+03  0.20063030676E+03  0.00000000000E+00 0.  1.
          4   -1    0    0  502    0  0.00000000000E+00 -0.00000000000E+00 -0.13191320463E+03  0.13191320463E+03  0.00000000000E+00 0. -1.
         23    2    1    2    0    0  0.33010305108E+02 -0.56151599646E+02  0.71606725832E+02  0.13251068713E+03  0.90492412027E+02 0.  0.
         23    2    1    2    0    0  0.22212814516E+02  0.10527791662E+02  0.16723368371E+02  0.96379029096E+02  0.91678801660E+02 0.  0.
        -11    1    4    4    0    0 -0.31365854771E+02  0.23128361079E+02  0.13504706786E+02  0.41244575851E+02  0.00000000000E+00 0. -1.
         11    1    4    4    0    0  0.53578669288E+02 -0.12600569416E+02  0.32186615850E+01  0.55134453245E+02  0.00000000000E+00 0.  1.
        -11    1    3    3    0    0  0.46896304893E+02  0.52891095873E+01  0.20754943889E+02  0.51555851158E+02  0.00000000000E+00 0. -1.
         11    1    3    3    0    0 -0.13885999785E+02 -0.61440709233E+02  0.50851781943E+02  0.80954835976E+02  0.00000000000E+00 0.  1.
         21    1    1    2  502  503 -0.40051257472E+02  0.25407241446E+02 -0.46730010319E+02  0.66583218662E+02  0.00000000000E+00 0. -1.
         21    1    1    2  503  501 -0.15171862151E+02  0.20216566537E+02  0.27117018239E+02  0.37070576498E+02  0.00000000000E+00 0. -1.
<scales pt_clust_5="13000.00000" pt_clust_6="13000.00000" pt_clust_7="13000.00000" pt_clust_8="13000.00000" pt_clust_9="48.82555" pt_clust_10="25.27637"></scales>
<clustering>
<clus scale="   25.276">  1 10  2 -1</clus>
<clus scale="   48.826">  2  9  1 -1</clus>
<clus scale="   90.492">  7  8 -1 -1</clus>
<clus scale="   91.679">  5  6 -1 -1</clus>
<clus scale="   96.555">  1  7  2 -1</clus>
<clus scale="   48.826">  2  5  1 -1</clus>
</clustering>
</event>
<event>
10    2  0.1898324E-006  0.1068331E+03  0.7546771E-02  0.1266783E+00
         -1   -1    0    0    0  501 -0.00000000000E+00  0.00000000000E+00  0.25853854175E+03  0.25853854175E+03  0.00000000000E+00 0.  1.
          1   -1    0    0  502    0  0.00000000000E+00 -0.00000000000E+00 -0.33548664625E+03  0.33548664625E+03  0.00000000000E+00 0. -1.
         23    2    1    2    0    0 -0.42965187615E+02 -0.34921590926E+02  0.72145151765E+02  0.12839029226E+03  0.90629020537E+02 0.  0.
         23    2    1    2    0    0  0.37391044279E+01  0.68422037808E+02 -0.18990329559E+03  0.22153006129E+03  0.91196218216E+02 0.  0.
        -11    1    3    3    0    0 -0.59130060617E+02 -0.52571915046E+02  0.67516680551E+02  0.10401284763E+03  0.00000000000E+00 0.  1.
         11    1    3    3    0    0  0.16164873002E+02  0.17650324119E+02  0.46284712132E+01  0.24377444625E+02  0.00000000000E+00 0. -1.
        -11    1    4    4    0    0  0.13791383981E+02  0.88491413448E+02 -0.13283653584E+03  0.16020760837E+03  0.00000000000E+00 0. -1.
         11    1    4    4    0    0 -0.10052279553E+02 -0.20069375641E+02 -0.57066759753E+02  0.61322452915E+02  0.00000000000E+00 0.  1.
         21    1    1    2  502  503  0.18903629607E+02 -0.17849379693E+02 -0.98797131990E+02  0.10216075987E+03  0.00000000000E+00 0.  1.
         21    1    1    2  503  501  0.20322453580E+02 -0.15651067188E+02  0.13960717132E+03  0.14194407458E+03  0.00000000000E+00 0. -1.
<scales pt_clust_5="13000.00000" pt_clust_6="13000.00000" pt_clust_7="13000.00000" pt_clust_8="13000.00000" pt_clust_9="26.36350" pt_clust_10="25.65069"></scales>
<clustering>
<clus scale="   25.651">  1 10  2 -1</clus>
<clus scale="   26.363">  2  9  1 -1</clus>
<clus scale="   90.629">  5  6 -1 -1</clus>
<clus scale="   91.196">  7  8 -1 -1</clus>
<clus scale="  106.349">  1  5  2 -1</clus>
<clus scale="   26.363">  2  5  1 -1</clus>
</clustering>
</event>
<event>
10    2  0.1898324E-006  0.1708213E+03  0.7546771E-02  0.1178772E+00
         -1   -1    0    0    0  501 -0.00000000000E+00  0.00000000000E+00  0.15679828941E+03  0.15679828941E+03  0.00000000000E+00 0.  1.
          1   -1    0    0  502    0  0.00000000000E+00 -0.00000000000E+00 -0.61757927316E+03  0.61757927316E+03  0.00000000000E+00 0. -1.
         23    2    1    2    0    0 -0.97912988030E+02 -0.70781118485E+02  0.88691787369E+01  0.15651132775E+03  0.99096989983E+02 0.  0.
         23    2    1    2    0    0  0.10882708075E+03  0.51241306193E+02 -0.37628504468E+03  0.40451285038E+03  0.87012678992E+02 0.  0.
        -13    1    4    4    0    0  0.82583713333E+02  0.60267183759E+02 -0.35530934730E+03  0.36972548658E+03  0.00000000000E+00 0. -1.
         13    1    4    4    0    0  0.26243367422E+02 -0.90258775664E+01 -0.20975697373E+02  0.34787363794E+02  0.00000000000E+00 0.  1.
        -13    1    3    3    0    0 -0.68377413585E+02 -0.40088594190E+01  0.37496632412E+02  0.78086740773E+02  0.00000000000E+00 0. -1.
         13    1    3    3    0    0 -0.29535574445E+02 -0.66772259066E+02 -0.28627453675E+02  0.78424586977E+02  0.00000000000E+00 0.  1.
         21    1    1    2  502  503  0.32584504783E+02  0.26976033492E+01 -0.14214724282E+03  0.14585906093E+03  0.00000000000E+00 0.  1.
         21    1    1    2  503  501 -0.43498597508E+02  0.16842208942E+02  0.48782124997E+02  0.67494323513E+02  0.00000000000E+00 0. -1.
<scales pt_clust_5="13000.00000" pt_clust_6="13000.00000" pt_clust_7="13000.00000" pt_clust_8="13000.00000" pt_clust_9="32.69598" pt_clust_10="46.06513"></scales>
<clustering>
<clus scale="   32.696">  2  9  1 -1</clus>
<clus scale="   46.065">  1 10  2 -1</clus>
<clus scale="   87.013">  5  6 -1 -1</clus>
<clus scale="   99.097">  7  8 -1 -1</clus>
<clus scale="  164.106">  2  5  1 -1</clus>
<clus scale="   32.696">  2  5  1 -1</clus>
</clustering>
</event>
<event>
10    2  0.1898324E-006  0.9543830E+02  0.7546771E-02  0.1291000E+00
          2   -1    0    0  502    0  0.00000000000E+00  0.00000000000E+00  0.96452819092E+03  0.96452819092E+03  0.00000000000E+00 0. -1.
         -2   -1    0    0    0  501 -0.00000000000E+00 -0.00000000000E+00 -0.16581622345E+03  0.16581622345E+03  0.00000000000E+00 0.  1.
         23    2    1    2    0    0  0.54255495758E+02 -0.58128565528E+01  0.93631238475E+00  0.10704820868E+03  0.92092313352E+02 0.  0.
         23    2    1    2    0    0  0.11803665251E+02 -0.34152572161E+02  0.42541981187E+03  0.43646021516E+03  0.90607827421E+02 0.  0.
        -13    1    3    3    0    0 -0.21253914008E+02  0.12536807575E+02 -0.13324292730E+02  0.28043487329E+02  0.00000000000E+00 0.  1.
         13    1    3    3    0    0  0.75509409766E+02 -0.18349664128E+02  0.14260605115E+02  0.79004721346E+02  0.00000000000E+00 0. -1.
        -13    1    4    4    0    0  0.48972269320E+02 -0.38465886265E+01  0.23655329309E+03  0.24159995836E+03  0.00000000000E+00 0. -1.
         13    1    4    4    0    0 -0.37168604069E+02 -0.30305983535E+02  0.18886651878E+03  0.19486025681E+03  0.00000000000E+00 0.  1.
         21    1    1    2  502  503 -0.63710539252E+01  0.73882919193E+02  0.46536371525E+03  0.47123525287E+03  0.00000000000E+00 0. -1.
         21    1    1    2  503  501 -0.59688107084E+02 -0.33917490479E+02 -0.93007872033E+02  0.11560073766E+03  0.00000000000E+00 0.  1.
<scales pt_clust_5="13000.00000" pt_clust_6="13000.00000" pt_clust_7="13000.00000" pt_clust_8="13000.00000" pt_clust_9="72.84992" pt_clust_10="68.65178"></scales>
<clustering>
<clus scale="   68.652">  2 10  1 -1</clus>
<clus scale="   72.850">  1  9  2 -1</clus>
<clus scale="   90.608">  7  8 -1 -1</clus>
<clus scale="   92.092">  5  6 -1 -1</clus>
<clus scale="   94.007">  1  7  2 -1</clus>
<clus scale="   72.850">  1  5  2 -1</clus>
</clustering>
</event>
<event>
10    2  0.1898324E-006  0.4072039E+03  0.7546771E-02  0.1057837E+00
          1   -1    0    0  502    0  0.00000000000E+00  0.00000000000E+00  0.73686351388E+03  0.73686351388E+03  0.00000000000E+00 0. -1.
         -1   -1    0    0    0  501 -0.00000000000E+00 -0.00000000000E+00 -0.60124792205E+03  0.60124792205E+03  0.00000000000E+00 0.  1.
         23    2    1    2    0    0  0.19660509909E+03  0.13098287720E+03 -0.20571590278E+03  0.32705421774E+03  0.93996540219E+02 0.  0.
         23    2    1    2    0    0 -0.47796229089E+02  0.30044293509E+03 -0.13213875881E+03  0.34383239935E+03  0.90607011344E+02 0.  0.
        -11    1    4    4    0    0 -0.24188752799E+02  0.26983132208E+03 -0.87303766238E+02  0.28463307210E+03  0.00000000000E+00 0.  1.
         11    1    4    4    0    0 -0.23607476290E+02  0.30611613012E+02 -0.44834992568E+02  0.59199327247E+02  0.00000000000E+00 0. -1.
        -13    1    3    3    0    0  0.11312822007E+03  0.11767125156E+03 -0.98970007930E+02  0.19089154012E+03  0.00000000000E+00 0.  1.
         13    1    3    3    0    0  0.83476879018E+02  0.13311625647E+02 -0.10674589485E+03  0.13616267762E+03  0.00000000000E+00 0. -1.
         21    1    1    2  502  503  0.13064540117E+02 -0.24798198791E+02  0.54822919696E+02  0.61572602639E+02  0.00000000000E+00 0.  1.
         21    1    1    2  503  501 -0.16187341012E+03 -0.40662761350E+03  0.41864733372E+03  0.60565221621E+03  0.00000000000E+00 0. -1.
<scales pt_clust_5="13000.00000" pt_clust_6="13000.00000" pt_clust_7="13000.00000" pt_clust_8="13000.00000" pt_clust_9="28.02914" pt_clust_10="396.99548"></scales>
<clustering>
<clus scale="   28.029">  1  9  2 -1</clus>
<clus scale="   90.607">  5  6 -1 -1</clus>
<clus scale="   93.997">  7  8 -1 -1</clus>
<clus scale="  254.028">  2  7  1 -1</clus>
<clus scale="  396.995">  1 10  2 -1</clus>
<clus scale="   28.029">  1  5  2 -1</clus>
</clustering>
</event>
<event>
10    2  0.1898324E-006  0.1211716E+03  0.7546771E-02  0.1241484E+00
          1   -1    0    0  503    0  0.00000000000E+00  0.00000000000E+00  0.70237955415E+03  0.70237955415E+03  0.00000000000E+00 0. -1.
         -1   -1    0    0    0  501 -0.00000000000E+00 -0.00000000000E+00 -0.30504594029E+02  0.30504594029E+02  0.00000000000E+00 0.  1.
         23    2    1    2    0    0  0.46564258098E+02 -0.71428721229E+02  0.31957638608E+03  0.34354458910E+03  0.92862941022E+02 0.  0.
         23    2    1    2    0    0 -0.50324216522E+02  0.50213723513E+02  0.26392280831E+03  0.28835940410E+03  0.91880097898E+02 0.  0.
        -11    1    3    3    0    0 -0.13221028923E+02 -0.50263220618E+02  0.77612789478E+02  0.93407344697E+02  0.00000000000E+00 0.  1.
         11    1    3    3    0    0  0.59785287020E+02 -0.21165500611E+02  0.24196359660E+03  0.25013724441E+03  0.00000000000E+00 0. -1.
        -13    1    4    4    0    0 -0.51917259689E+02 -0.20720296019E+01  0.19517710159E+03  0.20197474136E+03  0.00000000000E+00 0.  1.
         13    1    4    4    0    0  0.15930431670E+01  0.52285753115E+02  0.68745706718E+02  0.86384662744E+02  0.00000000000E+00 0. -1.
         21    1    1    2  502  501 -0.18444168393E+02  0.96709072364E+01  0.23259673242E+02  0.31220605276E+02  0.00000000000E+00 0.  1.
         21    1    1    2  503  502  0.22204126818E+02  0.11544090480E+02  0.65116092492E+02  0.69759549699E+02  0.00000000000E+00 0.  1.
<scales pt_clust_5="13000.00000" pt_clust_6="13000.00000" pt_clust_7="13000.00000" pt_clust_8="13000.00000" pt_clust_9="20.82580" pt_clust_10="24.03042"></scales>
<clustering>
<clus scale="   20.826">  2  9  1 -1</clus>
<clus scale="   24.030">  1 10  2 -1</clus>
<clus scale="   91.880">  7  8 -1 -1</clus>
<clus scale="   92.863">  5  6 -1 -1</clus>
<clus scale="  120.420">  1  7  2 -1</clus>
<clus scale="   24.030">  1  5  2 -1</clus>
</clustering>
</event>
<event>
10    2  0.1898324E-006  0.1580730E+03  0.7546771E-02  0.1191614E+00
          1   -1    0    0  502    0  0.00000000000E+00  0.00000000000E+00  0.35606510543E+03  0.35606510543E+03  0.00000000000E+00 0. -1.
         -1   -1    0    0    0  501 -0.00000000000E+00 -0.00000000000E+00 -0.10361662813E+03  0.10361662813E+03  0.00000000000E+00 0.  1.
         23    2    1    2    0    0  0.90976493262E+02  0.10263089001E+03  0.70614038755E+02  0.17713370516E+03  0.87064258590E+02 0.  0.
         23    2    1    2    0    0 -0.92418603369E+02 -0.77182534783E+02  0.98762409406E+02  0.18060417180E+03  0.91463169827E+02 0.  0.
        -11    1    3    3    0    0  0.75755532743E+01  0.55472992965E+02 -0.33610706847E+01  0.56088668660E+02  0.00000000000E+00 0.  1.
         11    1    3    3    0    0  0.83400939987E+02  0.47157897044E+02  0.73975109440E+02  0.12104503650E+03  0.00000000000E+00 0. -1.
        -13    1    4    4    0    0 -0.87185211627E+02 -0.35566708307E+02  0.10165115950E+03  0.13856121425E+03  0.00000000000E+00 0.  1.
         13    1    4    4    0    0 -0.52333917425E+01 -0.41615826476E+02 -0.28887500941E+01  0.42042957549E+02  0.00000000000E+00 0. -1.
         21    1    1    2  502  503  0.22855577610E+02 -0.85357561453E+01  0.64436426117E+02  0.68900577440E+02  0.00000000000E+00 0.  1.
         21    1    1    2  503  501 -0.21413467502E+02 -0.16912599081E+02  0.18635603025E+02  0.33043279169E+02  0.00000000000E+00 0. -1.
<scales pt_clust_5="13000.00000" pt_clust_6="13000.00000" pt_clust_7="13000.00000" pt_clust_8="13000.00000" pt_clust_9="24.39747" pt_clust_10="26.22403"></scales>
<clustering>
<clus scale="   24.397">  1  9  2 -1</clus>
<clus scale="   26.224">  1 10  2 -1</clus>
<clus scale="   87.064">  5  6 -1 -1</clus>
<clus scale="   91.463">  7  8 -1 -1</clus>
<clus scale="  155.569">  2  5  1 -1</clus>
<clus scale="   24.397">  1  5  2 -1</clus>
</clustering>
</event>
<event>
10    2  0.1898324E-006  0.2279861E+03  0.7546771E-02  0.1165895E+00
          2   -1    0    0  502    0  0.00000000000E+00  0.00000000000E+00  0.13156393270E+04  0.13156393270E+04  0.00000000000E+00 0. -1.
         -2   -1    0    0    0  501 -0.00000000000E+00 -0.00000000000E+00 -0.18734176760E+03  0.18734176760E+03  0.00000000000E+00 0.  1.
         23    2    1    2    0    0  0.83701494893E+01 -0.19829125749E+02 -0.78384055172E+02  0.12049546293E+03  0.88948540471E+02 0.  0.
         23    2    1    2    0    0  0.21383140952E+03  0.45997984074E+01  0.92780202298E+03  0.95639934085E+03  0.90211282507E+02 0.  0.
        -11    1    3    3    0    0  0.56034451665E+01 -0.50594875797E+02 -0.73220921750E+02  0.89177034244E+02  0.00000000000E+00 0. -1.
         11    1    3    3    0    0  0.27667043227E+01  0.30765750048E+02 -0.51631334215E+01  0.31318428689E+02  0.00000000000E+00 0.  1.
        -13    1    4    4    0    0  0.67892589125E+02  0.55197280777E+01  0.14620894898E+03  0.16129763736E+03  0.00000000000E+00 0.  1.
         13    1    4    4    0    0  0.14593882040E+03 -0.91992967025E+00  0.78159307400E+03  0.79510170349E+03  0.00000000000E+00 0. -1.
         21    1    1    2  502  503 -0.20021257185E+03  0.22135063910E+02  0.32048070602E+03  0.37852730141E+03  0.00000000000E+00 0.  1.
         21    1    1    2  503  501 -0.21988987164E+02 -0.69057365676E+01 -0.41601114419E+02  0.47558989423E+02  0.00000000000E+00 0. -1.
<scales pt_clust_5="13000.00000" pt_clust_6="13000.00000" pt_clust_7="13000.00000" pt_clust_8="13000.00000" pt_clust_9="209.37905" pt_clust_10="23.04788"></scales>
<clustering>
<clus scale="   23.048">  2 10  1 -1</clus>
<clus scale="   88.949">  5  6 -1 -1</clus>
<clus scale="   90.211">  7  8 -1 -1</clus>
<clus scale="   92.559">  2  5  1 -1</clus>
<clus scale="  209.379">  2  9  1 -1</clus>
<clus scale="  227.986">  1  5  2 -1</clus>
</clustering>
</event>
<event>
10    2  0.1898324E-006  0.1627212E+03  0.7546771E-02  0.1186305E+00
          3   -1    0    0  502    0  0.00000000000E+00  0.00000000000E+00  0.24578035366E+03  0.24578035366E+03  0.00000000000E+00 0. -1.
         -3   -1    0    0    0  501 -0.00000000000E+00 -0.00000000000E+00 -0.27152942227E+03  0.27152942227E+03  0.00000000000E+00 0.  1.
         23    2    1    2    0    0  0.86312340527E+02  0.10049530458E+03 -0.19931439954E+02  0.16324619294E+03  0.93289500167E+02 0.  0.
         23    2    1    2    0    0 -0.10356071501E+03 -0.86626092217E+02 -0.42417319140E+02  0.16727143775E+03  0.89171763333E+02 0.  0.
        -11    1    3    3    0    0  0.12750310156E+02  0.67624699493E+02 -0.40817840466E+02  0.80011039806E+02  0.00000000000E+00 0.  1.
         11    1    3    3    0    0  0.73562030370E+02  0.32870605083E+02  0.20886400512E+02  0.83235153133E+02  0.00000000000E+00 0. -1.
        -13    1    4    4    0    0 -0.77624758552E+02 -0.55822258785E+02  0.15367668633E+02  0.96839521660E+02  0.00000000000E+00 0.  1.
         13    1    4    4    0    0 -0.25935956460E+02 -0.30803833432E+02 -0.57784987773E+02  0.70431916086E+02  0.00000000000E+00 0. -1.
         21    1    1    2  502  503  0.42050653105E+02 -0.11442737489E+01  0.10490103544E+03  0.11302121051E+03  0.00000000000E+00 0. -1.
         21    1    1    2  503  501 -0.24802278619E+02 -0.12724938610E+02 -0.68301344962E+02  0.73770934730E+02  0.00000000000E+00 0.  1.
<scales pt_clust_5="13000.00000" pt_clust_6="13000.00000" pt_clust_7="13000.00000" pt_clust_8="13000.00000" pt_clust_9="41.57204" pt_clust_10="27.87610"></scales>
<clustering>
<clus scale="   27.876">  2 10  1 -1</clus>
<clus scale="   41.572">  1  9  2 -1</clus>
<clus scale="   89.172">  7  8 -1 -1</clus>
<clus scale="   93.290">  5  6 -1 -1</clus>
<clus scale="  160.396">  1  7  2 -1</clus>
<clus scale="   41.572">  1  5  2 -1</clus>
</clustering>
</event>
<event>
10    2  0.1898324E-006  0.9703948E+02  0.7546771E-02  0.1287062E+00
          1   -1    0    0  502    0  0.00000000000E+00  0.00000000000E+00  0.49187854530E+02  0.49187854530E+02  0.00000000000E+00 0. -1.
         -1   -1    0    0    0  501 -0.00000000000E+00 -0.00000000000E+00 -0.62979395899E+03  0.62979395899E+03  0.00000000000E+00 0.  1.
         23    2    1    2    0    0 -0.32420976115E+02 -0.48165819645E+02 -0.22027680657E+03  0.24595032831E+03  0.92728779835E+02 0.  0.
         23    2    1    2    0    0  0.15154517857E+02 -0.12133274324E+02 -0.39492974602E+02  0.10192846347E+03  0.91939332530E+02 0.  0.
        -11    1    4    4    0    0 -0.35840201342E+02  0.11495350985E+02 -0.13274197559E+02  0.39910743508E+02  0.00000000000E+00 0.  1.
         11    1    4    4    0    0  0.50994719199E+02 -0.23628625310E+02 -0.26218777043E+02  0.62017719966E+02  0.00000000000E+00 0. -1.
        -13    1    3    3    0    0  0.19810413294E+02  0.48593004759E+01 -0.11632475620E+03  0.11809959433E+03  0.00000000000E+00 0. -1.
         13    1    3    3    0    0 -0.52231389410E+02 -0.53025120121E+02 -0.10395205037E+03  0.12785073398E+03  0.00000000000E+00 0.  1.
         21    1    1    2  502  503  0.13379107884E+02  0.17255776890E+02 -0.30176130486E+02  0.37247298090E+02  0.00000000000E+00 0. -1.
         21    1    1    2  503  501  0.38873503747E+01  0.43043317080E+02 -0.29066019280E+03  0.29385572364E+03  0.00000000000E+00 0.  1.
<scales pt_clust_5="13000.00000" pt_clust_6="13000.00000" pt_clust_7="13000.00000" pt_clust_8="13000.00000" pt_clust_9="21.83489" pt_clust_10="43.86403"></scales>
<clustering>
<clus scale="   21.835">  1  9  2 -1</clus>
<clus scale="   43.864">  2 10  1 -1</clus>
<clus scale="   91.939">  5  6 -1 -1</clus>
<clus scale="   92.729">  7  8 -1 -1</clus>
<clus scale="   96.285">  1  5  2 -1</clus>
<clus scale="   21.835">  1  5  2 -1</clus>
</clustering>
</event>
<event>
10    2  0.1898324E-006  0.9990808E+02  0.7546771E-02  0.1281349E+00
         -1   -1    0    0    0  501 -0.00000000000E+00  0.00000000000E+00  0.61661187638E+02  0.61661187638E+02  0.00000000000E+00 0.  1.
          1   -1    0    0  502    0  0.00000000000E+00 -0.00000000000E+00 -0.66336022371E+03  0.66336022371E+03  0.00000000000E+00 0. -1.
         23    2    1    2    0    0  0.40979997659E+02 -0.54876867252E+01 -0.12375802876E+02  0.97580555802E+02  0.87517595146E+02 0.  0.
         23    2    1    2    0    0 -0.50887939362E+02  0.70830819869E+02 -0.33442254528E+03  0.35696653396E+03  0.89331294413E+02 0.  0.
        -13    1    3    3    0    0 -0.26830921816E+02  0.59165287873E+01  0.11506299158E+01  0.27499593226E+02  0.00000000000E+00 0.  1.
         13    1    3    3    0    0  0.67810919475E+02 -0.11404215513E+02 -0.13526432792E+02  0.70080962576E+02  0.00000000000E+00 0. -1.
        -13    1    4    4    0    0 -0.63733892312E+02  0.13507859548E+02 -0.15375055440E+03  0.16698414379E+03  0.00000000000E+00 0. -1.
         13    1    4    4    0    0  0.12845952949E+02  0.57322960321E+02 -0.18067199088E+03  0.18998239018E+03  0.00000000000E+00 0.  1.
         21    1    1    2  502  503 -0.10208147100E+02 -0.18987793733E+02 -0.17229547420E+03  0.17363891559E+03  0.00000000000E+00 0. -1.
         21    1    1    2  503  501  0.20116088803E+02 -0.46355339410E+02 -0.82605213716E+02  0.96835405992E+02  0.00000000000E+00 0.  1.
<scales pt_clust_5="13000.00000" pt_clust_6="13000.00000" pt_clust_7="13000.00000" pt_clust_8="13000.00000" pt_clust_9="21.55789" pt_clust_10="53.06564"></scales>
<clustering>
<clus scale="   21.558">  2  9  1 -1</clus>
<clus scale="   53.066">  2 10  1 -1</clus>
<clus scale="   87.518">  5  6 -1 -1</clus>
<clus scale="   89.331">  7  8 -1 -1</clus>
<clus scale="   98.290">  1  5  2 -1</clus>
<clus scale="   21.558">  2  5  1 -1</clus>
</clustering>
</event>
<event>
10    2  0.1898324E-006  0.1157577E+03  0.7546771E-02  0.1250313E+00
         -4   -1    0    0    0  501 -0.00000000000E+00  0.00000000000E+00  0.11414164275E+03  0.11414164275E+03  0.00000000000E+00 0.  1.
          4   -1    0    0  502    0  0.00000000000E+00 -0.00000000000E+00 -0.28610545292E+03  0.28610545292E+03  0.00000000000E+00 0. -1.
         23    2    1    2    0    0 -0.62771441964E+02 -0.54124205993E+02 -0.78103848067E+02  0.14550610484E+03  0.90565621852E+02 0.  0.
         23    2    1    2    0    0  0.15713135891E+02  0.69217144171E+02 -0.79385994610E+02  0.13988660149E+03  0.90709478276E+02 0.  0.
        -11    1    3    3    0    0 -0.65611080282E+02 -0.63675397437E+01 -0.71435097949E+02  0.97202534108E+02  0.00000000000E+00 0.  1.
         11    1    3    3    0    0  0.28396383177E+01 -0.47756666249E+02 -0.66687501182E+01  0.48303570729E+02  0.00000000000E+00 0. -1.
        -13    1    4    4    0    0  0.21052857032E+01  0.36216011451E+02  0.14787033334E+02  0.39175094998E+02  0.00000000000E+00 0.  1.
         13    1    4    4    0    0  0.13607850187E+02  0.33001132720E+02 -0.94173027943E+02  0.10071150649E+03  0.00000000000E+00 0. -1.
         21    1    1    2  502  503  0.13433321381E+02 -0.22637088195E+02 -0.55409915827E+02  0.61344524265E+02  0.00000000000E+00 0. -1.
         21    1    1    2  503  501  0.33624984692E+02  0.75441500170E+01  0.40935948331E+02  0.53509865079E+02  0.00000000000E+00 0. -1.
<scales pt_clust_5="13000.00000" pt_clust_6="13000.00000" pt_clust_7="13000.00000" pt_clust_8="13000.00000" pt_clust_9="26.32284" pt_clust_10="34.69283"></scales>
<clustering>
<clus scale="   26.323">  2  9  1 -1</clus>
<clus scale="   34.693">  1 10  2 -1</clus>
<clus scale="   90.566">  5  6 -1 -1</clus>
<clus scale="   90.709">  7  8 -1 -1</clus>
<clus scale="  115.645">  1  5  2 -1</clus>
<clus scale="   26.323">  2  5  1 -1</clus>
</clustering>
</event>
<event>
10    2  0.1898324E-006  0.9860943E+02  0.7546771E-02  0.1288828E+00
         -4   -1    0    0    0  501 -0.00000000000E+00  0.00000000000E+00  0.15934379658E+03  0.15934379658E+03  0.00000000000E+00 0.  1.
          4   -1    0    0  502    0  0.00000000000E+00 -0.00000000000E+00 -0.12821188196E+03  0.12821188196E+03  0.00000000000E+00 0. -1.
         23    2    1    2    0    0 -0.33831067969E+02  0.28401619456E+02  0.76912786268E+02  0.12677732961E+03  0.90585437375E+02 0.  0.
         23    2    1    2    0    0  0.20183588818E+02 -0.21520089460E+02 -0.67033625088E+01  0.85301781128E+02  0.79755672443E+02 0.  0.
        -11    1    3    3    0    0 -0.50290595511E+02  0.93529753456E+01  0.85957962116E+02  0.10002696334E+03  0.00000000000E+00 0.  1.
         11    1    3    3    0    0  0.16459527542E+02  0.19048644110E+02 -0.90451758482E+01  0.26750366268E+02  0.00000000000E+00 0. -1.
        -13    1    4    4    0    0  0.80505095604E+01  0.30443044651E+02 -0.52279988563E+01  0.31920552060E+02  0.00000000000E+00 0. -1.
         13    1    4    4    0    0  0.12133079257E+02 -0.51963134111E+02 -0.14753636526E+01  0.53381229068E+02  0.00000000000E+00 0.  1.
         21    1    1    2  502  503  0.56955752608E-01  0.20924966637E+02 -0.39302460647E+02  0.44525732848E+02  0.00000000000E+00 0. -1.
         21    1    1    2  503  501  0.13590523399E+02 -0.27806496633E+02  0.22495150582E+00  0.30950834955E+02  0.00000000000E+00 0.  1.
<scales pt_clust_5="13000.00000" pt_clust_6="13000.00000" pt_clust_7="13000.00000" pt_clust_8="13000.00000" pt_clust_9="20.92504" pt_clust_10="27.65666"></scales>
<clustering>
<clus scale="   20.925">  2  9  1 -1</clus>
<clus scale="   27.657">  2 10  1 -1</clus>
<clus scale="   79.756">  7  8 -1 -1</clus>
<clus scale="   88.764">  2  7  1 -1</clus>
<clus scale="   90.585">  5  6 -1 -1</clus>
<clus scale="   20.925">  2  5  1 -1</clus>
</clustering>
</event>
<event>
10    2  0.1898324E-006  0.1768167E+03  0.7546771E-02  0.1171845E+00
         -2   -1    0    0    0  501 -0.00000000000E+00  0.00000000000E+00  0.83848287233E+02  0.83848287233E+02  0.00000000000E+00 0.  1.
          2   -1    0    0  502    0  0.00000000000E+00 -0.00000000000E+00 -0.53611818310E+03  0.53611818310E+03  0.00000000000E+00 0. -1.
         23    2    1    2    0    0  0.37603622414E+02  0.11822618521E+03 -0.13276177215E+03  0.20068556916E+03  0.85191233324E+02 0.  0.
         23    2    1    2    0    0 -0.31556765071E+02 -0.17283509091E+03 -0.28550209785E+03  0.34774925431E+03  0.92467821043E+02 0.  0.
        -11    1    4    4    0    0 -0.51743989460E+02 -0.16965669728E+03 -0.26430970628E+03  0.31830874353E+03  0.00000000000E+00 0. -1.
         11    1    4    4    0    0  0.20187224389E+02 -0.31783936338E+01 -0.21192391565E+02  0.29440510778E+02  0.00000000000E+00 0.  1.
        -11    1    3    3    0    0  0.40150760841E+02  0.57995829722E+02 -0.20825098882E+02  0.73547838885E+02  0.00000000000E+00 0.  1.
         11    1    3    3    0    0 -0.25471384263E+01  0.60230355492E+02 -0.11193667327E+03  0.12713773027E+03  0.00000000000E+00 0. -1.
         21    1    1    2  502  503 -0.12901092918E+02  0.28509930515E+02 -0.31548353970E+02  0.44435942374E+02  0.00000000000E+00 0. -1.
         21    1    1    2  503  501  0.68542355748E+01  0.26098975180E+02 -0.24576719075E+01  0.27095704493E+02  0.00000000000E+00 0.  1.
<scales pt_clust_5="13000.00000" pt_clust_6="13000.00000" pt_clust_7="13000.00000" pt_clust_8="13000.00000" pt_clust_9="33.21587" pt_clust_10="26.98401"></scales>
<clustering>
<clus scale="   26.984">  1 10  2 -1</clus>
<clus scale="   33.216">  1  9  2 -1</clus>
<clus scale="   85.191">  7  8 -1 -1</clus>
<clus scale="   92.468">  5  6 -1 -1</clus>
<clus scale="  173.122">  1  7  2 -1</clus>
<clus scale="  176.817">  2  5  1 -1</clus>
</clustering>
</event>
<event>
10    2  0.1898324E-006  0.9860037E+02  0.7546771E-02  0.1283683E+00
         -2   -1    0    0    0  501 -0.00000000000E+00  0.00000000000E+00  0.23484574420E+03  0.23484574420E+03  0.00000000000E+00 0.  1.
          2   -1    0    0  502    0  0.00000000000E+00 -0.00000000000E+00 -0.20124419150E+03  0.20124419150E+03  0.00000000000E+00 0. -1.
         23    2    1    2    0    0  0.30856912480E+02 -0.58396591687E+02  0.11794723048E+03  0.16306382290E+03  0.91191831816E+02 0.  0.
         23    2    1    2    0    0 -0.82979450087E+01  0.19064034443E+01 -0.11135855074E+02  0.91436743884E+02  0.90355855363E+02 0.  0.
        -11    1    4    4    0    0  0.19323094204E+02 -0.37722373466E+02 -0.69672620263E+01  0.42952324380E+02  0.00000000000E+00 0.  1.
         11    1    4    4    0    0 -0.27621039213E+02  0.39628776910E+02 -0.41685930481E+01  0.48484419504E+02  0.00000000000E+00 0. -1.
        -13    1    3    3    0    0  0.27545709441E+02 -0.21798590853E+02 -0.43214240192E+01  0.35392363263E+02  0.00000000000E+00 0. -1.
         13    1    3    3    0    0  0.33112030394E+01 -0.36598000834E+02  0.12226865450E+03  0.12767145963E+03  0.00000000000E+00 0.  1.
         21    1    1    2  502  503 -0.26004023986E+02  0.26685230146E+02 -0.12019713489E+03  0.12583982680E+03  0.00000000000E+00 0. -1.
         21    1    1    2  503  501  0.34450565143E+01  0.29804958097E+02  0.46987312183E+02  0.55749542131E+02  0.00000000000E+00 0.  1.
<scales pt_clust_5="13000.00000" pt_clust_6="13000.00000" pt_clust_7="13000.00000" pt_clust_8="13000.00000" pt_clust_9="37.55301" pt_clust_10="30.00340"></scales>
<clustering>
<clus scale="   30.003">  1 10  2 -1</clus>
<clus scale="   37.553">  2  9  1 -1</clus>
<clus scale="   90.356">  5  6 -1 -1</clus>
<clus scale="   91.192">  7  8 -1 -1</clus>
<clus scale="   97.828">  2  5  1 -1</clus>
<clus scale="   37.553">  2  5  1 -1</clus>
</clustering>
</event>
<event>
10    2  0.1898324E-006  0.1019596E+03  0.7546771E-02  0.1279268E+00
          1   -1    0    0  502    0  0.00000000000E+00  0.00000000000E+00  0.31197442251E+03  0.31197442251E+03  0.00000000000E+00 0. -1.
         -1   -1    0    0    0  501 -0.00000000000E+00 -0.00000000000E+00 -0.14312934863E+03  0.14312934863E+03  0.00000000000E+00 0.  1.
         23    2    1    2    0    0 -0.75047248772E+01  0.59805894253E+01 -0.96029101738E+02  0.13216333341E+03  0.90296566775E+02 0.  0.
         23    2    1    2    0    0  0.23298235778E+02 -0.51020280353E+02  0.14747039885E+03  0.18489562681E+03  0.96400194391E+02 0.  0.
        -13    1    3    3    0    0  0.31634922896E+02 -0.18283378235E+02 -0.70756537905E+02  0.79633773756E+02  0.00000000000E+00 0. -1.
         13    1    3    3    0    0 -0.39139647773E+02  0.24263967661E+02 -0.25272563833E+02  0.52529559651E+02  0.00000000000E+00 0.  1.
        -13    1    4    4    0    0  0.55402110847E+02 -0.53838743045E+02  0.11909567362E+03  0.14195697804E+03  0.00000000000E+00 0. -1.
         13    1    4    4    0    0 -0.32103875069E+02  0.28184626922E+01  0.28374725234E+02  0.42938648774E+02  0.00000000000E+00 0.  1.
         21    1    1    2  502  503 -0.47141704311E+01  0.24017099265E+02  0.11067225505E+03  0.11334633870E+03  0.00000000000E+00 0.  1.
         21    1    1    2  503  501 -0.11079340469E+02  0.21022591663E+02  0.67315217129E+01  0.24698472220E+02  0.00000000000E+00 0.  1.
<scales pt_clust_5="13000.00000" pt_clust_6="13000.00000" pt_clust_7="13000.00000" pt_clust_8="13000.00000" pt_clust_9="24.70236" pt_clust_10="23.76344"></scales>
<clustering>
<clus scale="   23.763">  2 10  1 -1</clus>
<clus scale="   24.702">  1  9  2 -1</clus>
<clus scale="   90.297">  5  6 -1 -1</clus>
<clus scale="   96.209">  2  5  1 -1</clus>
<clus scale="   96.400">  7  8 -1 -1</clus>
<clus scale="   24.702">  1  5  2 -1</clus>
</clustering>
</event>
<event>
10    2  0.1898324E-006  0.9574370E+02  0.7546771E-02  0.1289916E+00
          2   -1    0    0  502    0  0.00000000000E+00  0.00000000000E+00  0.30710356420E+03  0.30710356420E+03  0.00000000000E+00 0. -1.
         -2   -1    0    0    0  501 -0.00000000000E+00 -0.00000000000E+00 -0.38755634011E+03  0.38755634011E+03  0.00000000000E+00 0.  1.
         23    2    1    2    0    0 -0.23770654898E+02 -0.26169835409E+02  0.13832228759E+03  0.16971326629E+03  0.91758559227E+02 0.  0.
         23    2    1    2    0    0  0.90770626590E+01  0.17033533501E+02  0.11542969147E+03  0.14824849933E+03  0.91000382151E+02 0.  0.
        -13    1    4    4    0    0  0.43472955240E+02 -0.12762800558E+02  0.73654923710E+02  0.86474474281E+02  0.00000000000E+00 0. -1.
         13    1    4    4    0    0 -0.34395892581E+02  0.29796334059E+02  0.41774767761E+02  0.61774025053E+02  0.00000000000E+00 0.  1.
        -13    1    3    3    0    0 -0.28811064762E+02 -0.54332651488E+02  0.12237421345E+03  0.13695825126E+03  0.00000000000E+00 0.  1.
         13    1    3    3    0    0  0.50404098637E+01  0.28162816079E+02  0.15948074145E+02  0.32755015037E+02  0.00000000000E+00 0. -1.
         21    1    1    2  502  503 -0.20357384734E+02 -0.18622575471E+02  0.10190927415E+02  0.29412215693E+02  0.00000000000E+00 0. -1.
         21    1    1    2  503  501  0.35050976973E+02  0.27758877379E+02 -0.34439568238E+03  0.34728592299E+03  0.00000000000E+00 0.  1.
<scales pt_clust_5="13000.00000" pt_clust_6="13000.00000" pt_clust_7="13000.00000" pt_clust_8="13000.00000" pt_clust_9="27.59028" pt_clust_10="44.57316"></scales>
<clustering>
<clus scale="   27.590">  1  9  2 -1</clus>
<clus scale="   44.573">  2 10  1 -1</clus>
<clus scale="   91.000">  5  6 -1 -1</clus>
<clus scale="   91.759">  7  8 -1 -1</clus>
<clus scale="   95.017">  1  5  2 -1</clus>
<clus scale="   27.590">  1  5  2 -1</clus>
</clustering>
</event>
<event>
10    2  0.1898324E-006  0.1283242E+03  0.7546771E-02  0.1231250E+00
          1   -1    0    0  502    0  0.00000000000E+00  0.00000000000E+00  0.51028805385E+03  0.51028805385E+03  0.00000000000E+00 0. -1.
         -1   -1    0    0    0  501 -0.00000000000E+00 -0.00000000000E+00 -0.11756140292E+03  0.11756140292E+03  0.00000000000E+00 0.  1.
         23    2    1    2    0    0 -0.90710443931E+01  0.55963984137E+02 -0.63069744627E+02  0.12348719586E+03  0.89761035464E+02 0.  0.
         23    2    1    2    0    0  0.86816523722E+01 -0.91797301985E+02  0.39533097387E+03  0.41676948642E+03  0.94382785357E+02 0.  0.
        -11    1    4    4    0    0 -0.23644048257E+02  0.95578430583E+01  0.81509218722E+02  0.85405773333E+02  0.00000000000E+00 0.  1.
         11    1    4    4    0    0  0.32325700629E+02 -0.10135514504E+03  0.31382175514E+03  0.33136371309E+03  0.00000000000E+00 0. -1.
        -13    1    3    3    0    0  0.22222763539E+02  0.14121214144E+02  0.14425511261E+02  0.30022579558E+02  0.00000000000E+00 0. -1.
         13    1    3    3    0    0 -0.31293807932E+02  0.41842769993E+02 -0.77495255887E+02  0.93464616303E+02  0.00000000000E+00 0.  1.
         21    1    1    2  502  503 -0.20609796314E+02  0.84876455188E+00  0.31110288600E+02  0.37327391580E+02  0.00000000000E+00 0. -1.
         21    1    1    2  503  501  0.20999188335E+02  0.34984553296E+02  0.29355133088E+02  0.50265382906E+02  0.00000000000E+00 0.  1.
<scales pt_clust_5="13000.00000" pt_clust_6="13000.00000" pt_clust_7="13000.00000" pt_clust_8="13000.00000" pt_clust_9="20.62727" pt_clust_10="40.00555"></scales>
<clustering>
<clus scale="   20.627">  1  9  2 -1</clus>
<clus scale="   40.006">  2 10  1 -1</clus>
<clus scale="   89.761">  7  8 -1 -1</clus>
<clus scale="   94.383">  5  6 -1 -1</clus>
<clus scale="  124.964">  2  7  1 -1</clus>
<clus scale="   20.627">  1  5  2 -1</clus>
</clustering>
</event>
<event>
10    2  0.1898324E-006  0.9910530E+02  0.7546771E-02  0.1283248E+00
          2   -1    0    0  502    0  0.00000000000E+00  0.00000000000E+00  0.27552510762E+03  0.27552510762E+03  0.00000000000E+00 0. -1.
         -2   -1    0    0    0  501 -0.00000000000E+00 -0.00000000000E+00 -0.35408196133E+03  0.35408196133E+03  0.00000000000E+00 0.  1.
         23    2    1    2    0    0  0.30349278938E+02  0.43653908789E+02 -0.13240302979E+03  0.16936076322E+03  0.91245620923E+02 0.  0.
         23    2    1    2    0    0 -0.67199378173E+02  0.61868071680E+02 -0.17199731715E+02  0.12875696504E+03  0.89101686602E+02 0.  0.
        -13    1    3    3    0    0  0.27611520914E+01  0.52334232139E+02 -0.13020471206E+03  0.14035584369E+03  0.00000000000E+00 0.  1.
         13    1    3    3    0    0  0.27588126847E+02 -0.86803233491E+01 -0.21983177267E+01  0.29004919534E+02  0.00000000000E+00 0. -1.
        -13    1    4    4    0    0 -0.63363546259E+02  0.43424923394E+01  0.11193894212E+02  0.64491080793E+02  0.00000000000E+00 0.  1.
         13    1    4    4    0    0 -0.38358319144E+01  0.57525579340E+02 -0.28393625927E+02  0.64265884248E+02  0.00000000000E+00 0. -1.
         21    1    1    2  502  503  0.43005367219E+02 -0.55883941004E+02  0.18988363484E+03  0.20255436616E+03  0.00000000000E+00 0. -1.
         21    1    1    2  503  501 -0.61552679841E+01 -0.49638039465E+02 -0.11883772704E+03  0.12893497452E+03  0.00000000000E+00 0. -1.
<scales pt_clust_5="13000.00000" pt_clust_6="13000.00000" pt_clust_7="13000.00000" pt_clust_8="13000.00000" pt_clust_9="71.50167" pt_clust_10="50.01822"></scales>
<clustering>
<clus scale="   50.018">  2 10  1 -1</clus>
<clus scale="   71.502">  1  9  2 -1</clus>
<clus scale="   89.102">  7  8 -1 -1</clus>
<clus scale="   91.246">  5  6 -1 -1</clus>
<clus scale="   97.135">  1  7  2 -1</clus>
<clus scale="   71.502">  1  5  2 -1</clus>
</clustering>
</event>
<event>
10    2  0.1898324E-006  0.1217244E+03  0.7546771E-02  0.1241364E+00
         -1   -1    0    0    0  501 -0.00000000000E+00  0.00000000000E+00  0.52759937124E+03  0.52759937124E+03  0.00000000000E+00 0.  1.
          1   -1    0    0  502    0  0.00000000000E+00 -0.00000000000E+00 -0.17445690525E+03  0.17445690525E+03  0.00000000000E+00 0. -1.
         23    2    1    2    0    0 -0.57833218553E+01  0.86042648696E+02  0.22799438083E+03  0.26208680737E+03  0.96287448312E+02 0.  0.
         23    2    1    2    0    0 -0.11998624528E+02 -0.13071869564E+03 -0.53594862668E+02  0.16952091628E+03  0.92917099444E+02 0.  0.
        -11    1    4    4    0    0 -0.31331899430E+02 -0.24614918868E+02  0.14006804150E+02  0.42234733517E+02  0.00000000000E+00 0.  1.
         11    1    4    4    0    0  0.19333274903E+02 -0.10610377678E+03 -0.67601666817E+02  0.12728618276E+03  0.00000000000E+00 0. -1.
        -13    1    3    3    0    0 -0.20230362797E+02 -0.22430922205E+01  0.38042317491E+01  0.20706791659E+02  0.00000000000E+00 0. -1.
         13    1    3    3    0    0  0.14447040941E+02  0.88285740916E+02  0.22419014908E+03  0.24138001571E+03  0.00000000000E+00 0.  1.
         21    1    1    2  502  503  0.22539442590E+02  0.71761171039E+02 -0.13353446317E+02  0.76393760673E+02  0.00000000000E+00 0.  1.
         21    1    1    2  503  501 -0.47574962070E+01 -0.27085124090E+02  0.19209639415E+03  0.19405479217E+03  0.00000000000E+00 0.  1.
<scales pt_clust_5="13000.00000" pt_clust_6="13000.00000" pt_clust_7="13000.00000" pt_clust_8="13000.00000" pt_clust_9="72.64929" pt_clust_10="27.49978"></scales>
<clustering>
<clus scale="   27.500">  1 10  2 -1</clus>
<clus scale="   72.649">  2  9  1 -1</clus>
<clus scale="   92.917">  5  6 -1 -1</clus>
<clus scale="   96.287">  7  8 -1 -1</clus>
<clus scale="  119.076">  2  5  1 -1</clus>
<clus scale="   72.649">  2  5  1 -1</clus>
</clustering>
</event>
<event>
10    2  0.1898324E-006  0.1593584E+03  0.7546771E-02  0.1212660E+00
         -2   -1    0    0    0  501 -0.00000000000E+00  0.00000000000E+00  0.68268862038E+02  0.68268862038E+02  0.00000000000E+00 0.  1.
          2   -1    0    0  502    0  0.00000000000E+00 -0.00000000000E+00 -0.11883975852E+04  0.11883975852E+04  0.00000000000E+00 0. -1.
         23    2    1    2    0    0  0.19251849230E+02  0.23911108080E+02 -0.38348012918E+02  0.10356217086E+03  0.91171148674E+02 0.  0.
         23    2    1    2    0    0  0.12117956739E+03 -0.86606235820E+02 -0.77654170758E+03  0.79617643434E+03  0.93245714949E+02 0.  0.
        -13    1    3    3    0    0 -0.31625757167E+02  0.95632142007E+01  0.71634843702E+01  0.33807677982E+02  0.00000000000E+00 0.  1.
         13    1    3    3    0    0  0.50877606397E+02  0.14347893879E+02 -0.45511497289E+02  0.69754492880E+02  0.00000000000E+00 0. -1.
        -13    1    4    4    0    0  0.11835905189E+03 -0.35020439705E+02 -0.51546932869E+03  0.53004143723E+03  0.00000000000E+00 0. -1.
         13    1    4    4    0    0  0.28205154976E+01 -0.51585796116E+02 -0.26107237889E+03  0.26613499711E+03  0.00000000000E+00 0.  1.
         21    1    1    2  502  503 -0.18794265135E+02  0.19035790111E+02 -0.16122475838E+03  0.16342890938E+03  0.00000000000E+00 0. -1.
         21    1    1    2  503  501 -0.12163715148E+03  0.43659337630E+02 -0.14401424431E+03  0.19349893268E+03  0.00000000000E+00 0.  1.
<scales pt_clust_5="13000.00000" pt_clust_6="13000.00000" pt_clust_7="13000.00000" pt_clust_8="13000.00000" pt_clust_9="26.75043" pt_clust_10="129.22983"></scales>
<clustering>
<clus scale="   26.750">  2  9  1 -1</clus>
<clus scale="   91.171">  5  6 -1 -1</clus>
<clus scale="   93.246">  7  8 -1 -1</clus>
<clus scale="   96.285">  1  5  2 -1</clus>
<clus scale="  129.230">  1 10  2 -1</clus>
<clus scale="   26.750">  2  5  1 -1</clus>
</clustering>
</event>
<event>
10    2  0.1898324E-006  0.1158334E+03  0.7546771E-02  0.1254209E+00
          1   -1    0    0  502    0  0.00000000000E+00  0.00000000000E+00  0.55877350592E+02  0.55877350592E+02  0.00000000000E+00 0. -1.
         -1   -1    0    0    0  501 -0.00000000000E+00 -0.00000000000E+00 -0.35923293893E+03  0.35923293893E+03  0.00000000000E+00 0.  1.
         23    2    1    2    0    0 -0.74096750613E+01 -0.45289106794E+02 -0.13499547208E+03  0.17512153894E+03  0.10167482205E+03 0.  0.
         23    2    1    2    0    0 -0.40274477479E+01  0.65055692456E+02 -0.11698467887E+03  0.16205508796E+03  0.91257728359E+02 0.  0.
        -11    1    4    4    0    0  0.28020052411E+02 -0.32350823534E+01 -0.76564507594E+01  0.29226876898E+02  0.00000000000E+00 0.  1.
         11    1    4    4    0    0 -0.32047500159E+02  0.68290774810E+02 -0.10932822811E+03  0.13282821106E+03  0.00000000000E+00 0. -1.
        -11    1    3    3    0    0  0.42802795043E+02 -0.36194526201E+02 -0.94923589712E+02  0.11023888096E+03  0.00000000000E+00 0.  1.
         11    1    3    3    0    0 -0.50212470105E+02 -0.90945805930E+01 -0.40071882366E+02  0.64882657980E+02  0.00000000000E+00 0. -1.
         21    1    1    2  502  503  0.32724880575E+02 -0.80848187847E+01 -0.24237021135E+02  0.41517650426E+02  0.00000000000E+00 0. -1.
         21    1    1    2  503  501 -0.21287757766E+02 -0.11681766878E+02 -0.27138416250E+02  0.36416012202E+02  0.00000000000E+00 0. -1.
<scales pt_clust_5="13000.00000" pt_clust_6="13000.00000" pt_clust_7="13000.00000" pt_clust_8="13000.00000" pt_clust_9="31.95782" pt_clust_10="24.28235"></scales>
<clustering>
<clus scale="   24.282">  2 10  1 -1</clus>
<clus scale="   31.958">  1  9  2 -1</clus>
<clus scale="   91.258">  5  6 -1 -1</clus>
<clus scale="  101.675">  7  8 -1 -1</clus>
<clus scale="  106.806">  1  5  2 -1</clus>
<clus scale="   31.958">  1  5  2 -1</clus>
</clustering>
</event>
<event>
10    2  0.1898324E-006  0.1340320E+03  0.7546771E-02  0.1221992E+00
         -2   -1    0    0    0  501 -0.00000000000E+00  0.00000000000E+00  0.10535322399E+03  0.10535322399E+03  0.00000000000E+00 0.  1.
          2   -1    0    0  502    0  0.00000000000E+00 -0.00000000000E+00 -0.59029309003E+03  0.59029309003E+03  0.00000000000E+00 0. -1.
         23    2    1    2    0    0 -0.84230602317E+02 -0.26100980272E+02 -0.20431850025E+03  0.24084597403E+03  0.92112312556E+02 0.  0.
         23    2    1    2    0    0  0.45335308889E+02  0.12099841026E+03 -0.21135433214E+03  0.26373005490E+03  0.90481946421E+02 0.  0.
        -11    1    4    4    0    0  0.31066046886E+02 -0.38511815328E+01 -0.32299983825E+02  0.44980215912E+02  0.00000000000E+00 0.  1.
         11    1    4    4    0    0  0.14269262003E+02  0.12484959180E+03 -0.17905434831E+03  0.21874983899E+03  0.00000000000E+00 0. -1.
        -11    1    3    3    0    0 -0.95198716749E+02 -0.44451355950E+02 -0.18040659738E+03  0.20877082913E+03  0.00000000000E+00 0.  1.
         11    1    3    3    0    0  0.10968114431E+02  0.18350375678E+02 -0.23911902873E+02  0.32075144905E+02  0.00000000000E+00 0. -1.
         21    1    1    2  502  503 -0.86872059753E+01 -0.50383505248E+02 -0.10497917101E+03  0.11676725352E+03  0.00000000000E+00 0.  1.
         21    1    1    2  503  501  0.47582499404E+02 -0.44513924744E+02  0.35712137351E+02  0.74303031565E+02  0.00000000000E+00 0.  1.
<scales pt_clust_5="13000.00000" pt_clust_6="13000.00000" pt_clust_7="13000.00000" pt_clust_8="13000.00000" pt_clust_9="51.12695" pt_clust_10="66.31045"></scales>
<clustering>
<clus scale="   51.127">  2  9  1 -1</clus>
<clus scale="   66.310">  1 10  2 -1</clus>
<clus scale="   90.482">  5  6 -1 -1</clus>
<clus scale="   92.112">  7  8 -1 -1</clus>
<clus scale="  132.917">  2  5  1 -1</clus>
<clus scale="   51.127">  2  5  1 -1</clus>
</clustering>
</event>
<event>
10    2  0.1898324E-006  0.1967964E+03  0.7546771E-02  0.1152700E+00
          1   -1    0    0  502    0  0.00000000000E+00  0.00000000000E+00  0.36113729942E+03  0.36113729942E+03  0.00000000000E+00 0. -1.
         -1   -1    0    0    0  501 -0.00000000000E+00 -0.00000000000E+00 -0.29335794543E+03  0.29335794543E+03  0.00000000000E+00 0.  1.
         23    2    1    2    0    0 -0.14701720395E+03  0.37985767298E+01  0.37975929674E+01  0.17399654964E+03  0.92907965919E+02 0.  0.
         23    2    1    2    0    0  0.19310987276E+03 -0.54243984390E+02  0.91513426200E+02  0.23837697077E+03  0.90636859052E+02 0.  0.
        -11    1    4    4    0    0  0.14117986675E+03 -0.66095934423E+02  0.98884837124E+02  0.18460400412E+03  0.00000000000E+00 0.  1.
         11    1    4    4    0    0  0.51930006008E+02  0.11851950033E+02 -0.73714109240E+01  0.53772966652E+02  0.00000000000E+00 0. -1.
        -13    1    3    3    0    0 -0.98207100323E+02  0.79972718545E+01  0.46550088555E+02  0.10897477532E+03  0.00000000000E+00 0. -1.
         13    1    3    3    0    0 -0.48810103628E+02 -0.41986951247E+01 -0.42752495588E+02  0.65021774321E+02  0.00000000000E+00 0.  1.
         21    1    1    2  502  503 -0.47856522867E+01  0.33543263341E+02  0.10075150979E+03  0.10629637674E+03  0.00000000000E+00 0. -1.
         21    1    1    2  503  501 -0.41307016524E+02  0.16902144320E+02 -0.12828317497E+03  0.13582534770E+03  0.00000000000E+00 0.  1.
<scales pt_clust_5="13000.00000" pt_clust_6="13000.00000" pt_clust_7="13000.00000" pt_clust_8="13000.00000" pt_clust_9="33.88293" pt_clust_10="44.88412"></scales>
<clustering>
<clus scale="   33.883">  1  9  2 -1</clus>
<clus scale="   44.884">  2 10  1 -1</clus>
<clus scale="   90.637">  5  6 -1 -1</clus>
<clus scale="   92.908">  7  8 -1 -1</clus>
<clus scale="  195.734">  1  5  2 -1</clus>
<clus scale="   33.883">  1  5  2 -1</clus>
</clustering>
</event>
<event>
10    2  0.1898324E-006  0.2232324E+03  0.7546771E-02  0.1131550E+00
          1   -1    0    0  502    0  0.00000000000E+00  0.00000000000E+00  0.16803889356E+04  0.16803889356E+04  0.00000000000E+00 0. -1.
         -1   -1    0    0    0  501 -0.00000000000E+00 -0.00000000000E+00 -0.63015423951E+02  0.63015423951E+02  0.00000000000E+00 0.  1.
         23    2    1    2    0    0 -0.62574010733E+02  0.21659720945E+03  0.68417428202E+03  0.72595750365E+03  0.89944377081E+02 0.  0.
         23    2    1    2    0    0  0.45233688340E+02 -0.19383816487E+03  0.85420220133E+03  0.88176174847E+03  0.90681087224E+02 0.  0.
        -13    1    3    3    0    0  0.22944726700E+02  0.59589435149E+02  0.18900308605E+03  0.19949818997E+03  0.00000000000E+00 0. -1.
         13    1    3    3    0    0 -0.85518737434E+02  0.15700777430E+03  0.49517119597E+03  0.52645931368E+03  0.00000000000E+00 0.  1.
        -13    1    4    4    0    0  0.52950157476E+02 -0.45118404050E+02  0.25294326950E+03  0.26233506656E+03  0.00000000000E+00 0.  1.
         13    1    4    4    0    0 -0.77164691356E+01 -0.14871976082E+03  0.60125893183E+03  0.61942668191E+03  0.00000000000E+00 0. -1.
         21    1    1    2  502  503 -0.99205134642E+01  0.24112567162E+02  0.77143586250E+02  0.81430739786E+02  0.00000000000E+00 0.  1.
         21    1    1    2  503  501  0.27260835857E+02 -0.46871611744E+02  0.18534420240E+01  0.54254367626E+02  0.00000000000E+00 0. -1.
<scales pt_clust_5="13000.00000" pt_clust_6="13000.00000" pt_clust_7="13000.00000" pt_clust_8="13000.00000" pt_clust_9="26.07360" pt_clust_10="53.77013"></scales>
<clustering>
<clus scale="   26.074">  1  9  2 -1</clus>
<clus scale="   53.770">  2 10  1 -1</clus>
<clus scale="   89.944">  5  6 -1 -1</clus>
<clus scale="   90.681">  7  8 -1 -1</clus>
<clus scale="  222.934">  2  5  1 -1</clus>
<clus scale="   26.074">  1  5  2 -1</clus>
</clustering>
</event>
<event>
10    2  0.1898324E-006  0.1465402E+03  0.7546771E-02  0.1205244E+00
          1   -1    0    0  502    0  0.00000000000E+00  0.00000000000E+00  0.88376862022E+03  0.88376862022E+03  0.00000000000E+00 0. -1.
         -1   -1    0    0    0  501 -0.00000000000E+00 -0.00000000000E+00 -0.57627817803E+02  0.57627817803E+02  0.00000000000E+00 0.  1.
         23    2    1    2    0    0 -0.14393447370E+02 -0.10937335395E+03  0.92186034595E+02  0.16937529565E+03  0.89554586275E+02 0.  0.
         23    2    1    2    0    0 -0.22266064742E+02  0.13530295710E+03  0.62919776752E+03  0.65048337078E+03  0.91848337897E+02 0.  0.
        -11    1    4    4    0    0 -0.27051899055E+02  0.34313730584E+02  0.72263717446E+02  0.84446919471E+02  0.00000000000E+00 0.  1.
         11    1    4    4    0    0  0.47858343130E+01  0.10098922652E+03  0.55693405007E+03  0.56603645131E+03  0.00000000000E+00 0. -1.
        -13    1    3    3    0    0 -0.28646082810E+02 -0.82216733586E+02  0.17731683998E+02  0.88851572633E+02  0.00000000000E+00 0.  1.
         13    1    3    3    0    0  0.14252635440E+02 -0.27156620360E+02  0.74454350597E+02  0.80523723021E+02  0.00000000000E+00 0. -1.
         21    1    1    2  502  503  0.16362263962E+02 -0.26000190417E+02  0.93305941047E+02  0.98233050539E+02  0.00000000000E+00 0.  1.
         21    1    1    2  503  501  0.20297248150E+02  0.70587263643E-01  0.11451059259E+02  0.23304721049E+02  0.00000000000E+00 0. -1.
<scales pt_clust_5="13000.00000" pt_clust_6="13000.00000" pt_clust_7="13000.00000" pt_clust_8="13000.00000" pt_clust_9="31.24331" pt_clust_10="20.29737"></scales>
<clustering>
<clus scale="   20.297">  2 10  1 -1</clus>
<clus scale="   31.243">  1  9  2 -1</clus>
<clus scale="   89.555">  7  8 -1 -1</clus>
<clus scale="   91.848">  5  6 -1 -1</clus>
<clus scale="  145.114">  2  7  1 -1</clus>
<clus scale="   31.243">  1  5  2 -1</clus>
</clustering>
</event>
<event>
10    2  0.1898324E-006  0.1116541E+03  0.7546771E-02  0.1265294E+00
         -2   -1    0    0    0  501 -0.00000000000E+00  0.00000000000E+00  0.44513582292E+03  0.44513582292E+03  0.00000000000E+00 0.  1.
          2   -1    0    0  502    0  0.00000000000E+00 -0.00000000000E+00 -0.19527933820E+03  0.19527933820E+03  0.00000000000E+00 0. -1.
         23    2    1    2    0    0 -0.44118241709E+02 -0.14424320328E+02  0.37322279920E+03  0.38748204643E+03  0.93234104208E+02 0.  0.
         23    2    1    2    0    0  0.75726943394E+01  0.14831076754E+02 -0.12916244009E+03  0.17006714620E+03  0.10937363370E+03 0.  0.
        -11    1    4    4    0    0  0.26640577275E+02 -0.42516307128E+02 -0.56740208792E+02  0.75741719172E+02  0.00000000000E+00 0.  1.
         11    1    4    4    0    0 -0.19067882935E+02  0.57347383882E+02 -0.72422231303E+02  0.94325427031E+02  0.00000000000E+00 0. -1.
        -13    1    3    3    0    0 -0.57933714356E+02  0.24356996519E+02  0.23504607054E+03  0.24330276162E+03  0.00000000000E+00 0.  1.
         13    1    3    3    0    0  0.13815472647E+02 -0.38781316847E+02  0.13817672867E+03  0.14417928480E+03  0.00000000000E+00 0. -1.
         21    1    1    2  502  503  0.14453005840E+02 -0.14655969263E+02 -0.31262058051E+02  0.37429975774E+02  0.00000000000E+00 0.  1.
         21    1    1    2  503  501  0.22092541529E+02  0.14249212836E+02  0.37058183668E+02  0.45435992720E+02  0.00000000000E+00 0. -1.
<scales pt_clust_5="13000.00000" pt_clust_6="13000.00000" pt_clust_7="13000.00000" pt_clust_8="13000.00000" pt_clust_9="20.58365" pt_clust_10="26.40375"></scales>
<clustering>
<clus scale="   20.584">  2  9  1 -1</clus>
<clus scale="   26.404">  1 10  2 -1</clus>
<clus scale="   93.234">  7  8 -1 -1</clus>
<clus scale="   95.899">  1  7  2 -1</clus>
<clus scale="  109.374">  5  6 -1 -1</clus>
<clus scale="   20.584">  2  5  1 -1</clus>
</clustering>
</event>
<event>
10    2  0.1898324E-006  0.1133909E+03  0.7546771E-02  0.1257620E+00
          2   -1    0    0  502    0  0.00000000000E+00  0.00000000000E+00  0.81927179525E+03  0.81927179525E+03  0.00000000000E+00 0. -1.
         -2   -1    0    0    0  501 -0.00000000000E+00 -0.00000000000E+00 -0.17103742579E+03  0.17103742579E+03  0.00000000000E+00 0.  1.
         23    2    1    2    0    0 -0.32325425016E+02  0.89365715796E+02 -0.11887443854E+03  0.17430943556E+03  0.84979308794E+02 0.  0.
         23    2    1    2    0    0  0.20504166282E+02 -0.26042451648E+02  0.50417869259E+03  0.51385498486E+03  0.93552986511E+02 0.  0.
        -11    1    3    3    0    0 -0.45182811253E+02  0.28827142838E+02 -0.19096320467E+02  0.56896046016E+02  0.00000000000E+00 0. -1.
         11    1    3    3    0    0  0.12857386237E+02  0.60538572958E+02 -0.99778118075E+02  0.11741338954E+03  0.00000000000E+00 0.  1.
        -11    1    4    4    0    0 -0.22861949441E+02 -0.46056866543E+02  0.25170434507E+03  0.25690266837E+03  0.00000000000E+00 0. -1.
         11    1    4    4    0    0  0.43366115723E+02  0.20014414895E+02  0.25247434752E+03  0.25695231649E+03  0.00000000000E+00 0.  1.
         21    1    1    2  502  503 -0.18049920854E+02 -0.39788647889E+02  0.26039161878E+03  0.26403168612E+03  0.00000000000E+00 0. -1.
         21    1    1    2  503  501  0.29871179587E+02 -0.23534616259E+02  0.25384966339E+01  0.38113114509E+02  0.00000000000E+00 0.  1.
<scales pt_clust_5="13000.00000" pt_clust_6="13000.00000" pt_clust_7="13000.00000" pt_clust_8="13000.00000" pt_clust_9="43.80155" pt_clust_10="38.02848"></scales>
<clustering>
<clus scale="   38.028">  2 10  1 -1</clus>
<clus scale="   43.802">  1  9  2 -1</clus>
<clus scale="   84.979">  5  6 -1 -1</clus>
<clus scale="   93.553">  7  8 -1 -1</clus>
<clus scale="  106.428">  2  5  1 -1</clus>
<clus scale="   43.802">  1  5  2 -1</clus>
</clustering>
</event>
<event>
10    2  0.1898324E-006  0.1623260E+03  0.7546771E-02  0.1186418E+00
         -1   -1    0    0    0  501 -0.00000000000E+00  0.00000000000E+00  0.79843090299E+02  0.79843090299E+02  0.00000000000E+00 0.  1.
          1   -1    0    0  502    0  0.00000000000E+00 -0.00000000000E+00 -0.64426726747E+03  0.64426726747E+03  0.00000000000E+00 0. -1.
         23    2    1    2    0    0  0.16297748227E+01 -0.12608547975E+03 -0.11045001230E+03  0.19095302783E+03  0.91452989291E+02 0.  0.
         23    2    1    2    0    0 -0.75860423308E+02  0.13782321433E+03 -0.32110542135E+03  0.36857401518E+03  0.89376008032E+02 0.  0.
        -11    1    3    3    0    0 -0.22986335590E+02  0.49551574471E+00 -0.31682461599E+01  0.23208941023E+02  0.00000000000E+00 0.  1.
         11    1    3    3    0    0  0.24616110412E+02 -0.12658099549E+03 -0.10728176614E+03  0.16774408680E+03  0.00000000000E+00 0. -1.
        -13    1    4    4    0    0 -0.70068665258E+02  0.99142883222E+02 -0.14958839180E+03  0.19265413597E+03  0.00000000000E+00 0.  1.
         13    1    4    4    0    0 -0.57917580498E+01  0.38680331109E+02 -0.17151702954E+03  0.17591987920E+03  0.00000000000E+00 0. -1.
         21    1    1    2  502  503  0.42769822832E+02 -0.13584210244E+02 -0.12396095305E+03  0.13183363150E+03  0.00000000000E+00 0.  1.
         21    1    1    2  503  501  0.31460825653E+02  0.18464756591E+01 -0.89077904794E+01  0.32749683271E+02  0.00000000000E+00 0.  1.
<scales pt_clust_5="13000.00000" pt_clust_6="13000.00000" pt_clust_7="13000.00000" pt_clust_8="13000.00000" pt_clust_9="46.58518" pt_clust_10="31.51497"></scales>
<clustering>
<clus scale="   31.515">  1 10  2 -1</clus>
<clus scale="   46.585">  2  9  1 -1</clus>
<clus scale="   89.376">  7  8 -1 -1</clus>
<clus scale="   91.453">  5  6 -1 -1</clus>
<clus scale="  161.165">  2  7  1 -1</clus>
<clus scale="   46.585">  2  5  1 -1</clus>
</clustering>
</event>
<event>
10    2  0.1898324E-006  0.1474344E+03  0.7546771E-02  0.1204107E+00
         -1   -1    0    0    0  501 -0.00000000000E+00  0.00000000000E+00  0.36907803258E+03  0.36907803258E+03  0.00000000000E+00 0.  1.
          1   -1    0    0  502    0  0.00000000000E+00 -0.00000000000E+00 -0.15492845135E+03  0.15492845135E+03  0.00000000000E+00 0. -1.
         23    2    1    2    0    0 -0.70691172867E+02 -0.82538313590E+02  0.11065804244E+03  0.17930068700E+03  0.89965098069E+02 0.  0.
         23    2    1    2    0    0  0.40897805287E+02  0.10053137594E+03  0.10398575670E+02  0.14281234497E+03  0.92239077810E+02 0.  0.
        -11    1    3    3    0    0 -0.46615166575E+02  0.67890216358E+01  0.25533718829E+02  0.53582043324E+02  0.00000000000E+00 0. -1.
         11    1    3    3    0    0 -0.24076006292E+02 -0.89327335226E+02  0.85124323609E+02  0.12571864368E+03  0.00000000000E+00 0.  1.
        -13    1    4    4    0    0 -0.21179612310E+02 -0.11560397334E+01 -0.71602013259E+01  0.22387069672E+02  0.00000000000E+00 0.  1.
         13    1    4    4    0    0  0.62077417597E+02  0.10168741567E+03  0.17558776996E+02  0.12042527530E+03  0.00000000000E+00 0. -1.
         21    1    1    2  502  503  0.47029856973E+02  0.15358000499E+02 -0.39991020276E+02  0.63615700333E+02  0.00000000000E+00 0. -1.
         21    1    1    2  503  501 -0.17236489393E+02 -0.33351062847E+02  0.13308398339E+03  0.13827775162E+03  0.00000000000E+00 0.  1.
<scales pt_clust_5="13000.00000" pt_clust_6="13000.00000" pt_clust_7="13000.00000" pt_clust_8="13000.00000" pt_clust_9="48.13925" pt_clust_10="37.54184"></scales>
<clustering>
<clus scale="   37.542">  1 10  2 -1</clus>
<clus scale="   48.139">  2  9  1 -1</clus>
<clus scale="   89.965">  5  6 -1 -1</clus>
<clus scale="   92.239">  7  8 -1 -1</clus>
<clus scale="  146.023">  1  5  2 -1</clus>
<clus scale="   48.139">  2  5  1 -1</clus>
</clustering>
</event>
<event>
10    2  0.1898324E-006  0.3603022E+03  0.7546771E-02  0.1058476E+00
         -1   -1    0    0    0  501 -0.00000000000E+00  0.00000000000E+00  0.23937823222E+03  0.23937823222E+03  0.00000000000E+00 0.  1.
          1   -1    0    0  502    0  0.00000000000E+00 -0.00000000000E+00 -0.74623500031E+03  0.74623500031E+03  0.00000000000E+00 0. -1.
         23    2    1    2    0    0  0.21862481047E+03 -0.28201553871E+03 -0.21372687917E+03  0.42484058691E+03  0.86491465336E+02 0.  0.
         23    2    1    2    0    0 -0.23193202945E+03  0.25424911213E+03 -0.21203828092E+03  0.41326587779E+03  0.85984742044E+02 0.  0.
        -11    1    4    4    0    0 -0.24610128551E+02  0.19718783755E+02  0.55795633033E+01  0.32025308535E+02  0.00000000000E+00 0. -1.
         11    1    4    4    0    0 -0.20732190090E+03  0.23453032838E+03 -0.21761784422E+03  0.38124056926E+03  0.00000000000E+00 0.  1.
        -11    1    3    3    0    0  0.12508280763E+03 -0.14099606834E+03 -0.16016513141E+03  0.24734281751E+03  0.00000000000E+00 0.  1.
         11    1    3    3    0    0  0.93542002843E+02 -0.14101947037E+03 -0.53561747760E+02  0.17749776940E+03  0.00000000000E+00 0. -1.
         21    1    1    2  502  503  0.21240754037E+02  0.68268624032E+01 -0.10926446091E+03  0.11151904815E+03  0.00000000000E+00 0.  1.
         21    1    1    2  503  501 -0.79335350573E+01  0.20939564178E+02  0.28172852912E+02  0.35987719678E+02  0.00000000000E+00 0.  1.
<scales pt_clust_5="13000.00000" pt_clust_6="13000.00000" pt_clust_7="13000.00000" pt_clust_8="13000.00000" pt_clust_9="22.31089" pt_clust_10="22.38551"></scales>
<clustering>
<clus scale="   22.311">  2  9  1 -1</clus>
<clus scale="   22.386">  1 10  2 -1</clus>
<clus scale="   85.985">  5  6 -1 -1</clus>
<clus scale="   86.491">  7  8 -1 -1</clus>
<clus scale="  360.181">  2  5  1 -1</clus>
<clus scale="   22.311">  2  5  1 -1</clus>
</clustering>
</event>
<event>
10    2  0.1898324E-006  0.1162153E+03  0.7546771E-02  0.1250426E+00
         -1   -1    0    0    0  501 -0.00000000000E+00  0.00000000000E+00  0.11144480479E+03  0.11144480479E+03  0.00000000000E+00 0.  1.
          1   -1    0    0  502    0  0.00000000000E+00 -0.00000000000E+00 -0.31351791919E+03  0.31351791919E+03  0.00000000000E+00 0. -1.
         23    2    1    2    0    0  0.25662711868E+02  0.59392339559E+02 -0.12394261032E+02  0.11323506101E+03  0.92100687056E+02 0.  0.
         23    2    1    2    0    0 -0.78083836698E+02 -0.19474863187E+02 -0.18051865029E+03  0.21689168914E+03  0.89323378033E+02 0.  0.
        -11    1    4    4    0    0 -0.82092540263E+02  0.10408714739E+02 -0.16086439732E+03  0.18090019578E+03  0.00000000000E+00 0. -1.
         11    1    4    4    0    0  0.40087035650E+01 -0.29883577926E+02 -0.19654252977E+02  0.35991493356E+02  0.00000000000E+00 0.  1.
        -13    1    3    3    0    0  0.29213605923E+02  0.29521930433E+02 -0.50050816299E+02  0.65038937258E+02  0.00000000000E+00 0. -1.
         13    1    3    3    0    0 -0.35508940542E+01  0.29870409126E+02  0.37656555267E+02  0.48196123750E+02  0.00000000000E+00 0.  1.
         21    1    1    2  502  503  0.42721027364E+02  0.11409879900E+00 -0.26359991872E+02  0.50199087333E+02  0.00000000000E+00 0. -1.
         21    1    1    2  503  501  0.97000974659E+01 -0.40031575171E+02  0.17199788801E+02  0.44636886499E+02  0.00000000000E+00 0.  1.
<scales pt_clust_5="13000.00000" pt_clust_6="13000.00000" pt_clust_7="13000.00000" pt_clust_8="13000.00000" pt_clust_9="44.53761" pt_clust_10="41.19003"></scales>
<clustering>
<clus scale="   41.190">  1 10  2 -1</clus>
<clus scale="   44.538">  1  9  2 -1</clus>
<clus scale="   89.323">  5  6 -1 -1</clus>
<clus scale="   92.101">  7  8 -1 -1</clus>
<clus scale="  114.027">  2  5  1 -1</clus>
<clus scale="  114.027">  2  5  1 -1</clus>
</clustering>
</event>
<event>
10    2  0.1898324E-006  0.9802971E+02  0.7546771E-02  0.1284618E+00
         -2   -1    0    0    0  501 -0.00000000000E+00  0.00000000000E+00  0.45301335442E+02  0.45301335442E+02  0.00000000000E+00 0.  1.
          2   -1    0    0  503    0  0.00000000000E+00 -0.00000000000E+00 -0.63401349079E+03  0.63401349079E+03  0.00000000000E+00 0. -1.
         23    2    1    2    0    0  0.31149740680E+01  0.15427954908E+02 -0.43081579516E+02  0.10188123159E+03  0.90972732184E+02 0.  0.
         23    2    1    2    0    0 -0.71994031810E+01 -0.38635759494E+02 -0.49329691654E+03  0.50319681904E+03  0.91217528494E+02 0.  0.
        -13    1    3    3    0    0  0.40854719744E+02  0.28431173395E+02 -0.11764456527E+02  0.51145304607E+02  0.00000000000E+00 0.  1.
         13    1    3    3    0    0 -0.37739745676E+02 -0.13003218487E+02 -0.31317122989E+02  0.50735926985E+02  0.00000000000E+00 0. -1.
        -13    1    4    4    0    0 -0.45276923312E+02 -0.40175263462E+02 -0.33065498303E+03  0.33614992099E+03  0.00000000000E+00 0. -1.
         13    1    4    4    0    0  0.38077520131E+02  0.15395039681E+01 -0.16264193351E+03  0.16704689805E+03  0.00000000000E+00 0.  1.
         21    1    1    2  502  501  0.24791278906E+02  0.55085923054E+01 -0.24328328176E+02  0.35168446807E+02  0.00000000000E+00 0.  1.
         21    1    1    2  503  502 -0.20706849793E+02  0.17699212280E+02 -0.28005331107E+02  0.39068328785E+02  0.00000000000E+00 0.  1.
<scales pt_clust_5="13000.00000" pt_clust_6="13000.00000" pt_clust_7="13000.00000" pt_clust_8="13000.00000" pt_clust_9="25.39591" pt_clust_10="25.28016"></scales>
<clustering>
<clus scale="   25.396">  1  9  2 -1</clus>
<clus scale="   25.280">  1 10  2 -1</clus>
<clus scale="   90.973">  5  6 -1 -1</clus>
<clus scale="   91.218">  7  8 -1 -1</clus>
<clus scale="   97.802">  1  5  2 -1</clus>
<clus scale="   98.030">  2  5  1 -1</clus>
</clustering>
</event>
<event>
10    2  0.1898324E-006  0.1165510E+03  0.7546771E-02  0.1249806E+00
          1   -1    0    0  502    0  0.00000000000E+00  0.00000000000E+00  0.78924120916E+03  0.78924120916E+03  0.00000000000E+00 0. -1.
         -1   -1    0    0    0  501 -0.00000000000E+00 -0.00000000000E+00 -0.50086015634E+02  0.50086015634E+02  0.00000000000E+00 0.  1.
         23    2    1    2    0    0  0.79558626550E+02 -0.21405384643E+02  0.20290141424E+03  0.23787362711E+03  0.92882253544E+02 0.  0.
         23    2    1    2    0    0 -0.54933790844E+02 -0.56678322202E+02  0.35992220262E+03  0.37936359860E+03  0.90236325419E+02 0.  0.
        -11    1    4    4    0    0  0.18719008894E+02 -0.35854106906E+02  0.87548779796E+02  0.96440173785E+02  0.00000000000E+00 0. -1.
         11    1    4    4    0    0 -0.73652799738E+02 -0.20824215296E+02  0.27237342282E+03  0.28292342482E+03  0.00000000000E+00 0.  1.
        -11    1    3    3    0    0  0.79651364703E+02  0.45173636620E+01  0.82700523713E+02  0.11490919500E+03  0.00000000000E+00 0.  1.
         11    1    3    3    0    0 -0.92738153081E-01 -0.25922748305E+02  0.12020089053E+03  0.12296443211E+03  0.00000000000E+00 0. -1.
         21    1    1    2  502  503  0.64812889589E+01 -0.21257608397E+02  0.69336245266E+02  0.72810767946E+02  0.00000000000E+00 0. -1.
         21    1    1    2  503  501 -0.31106124665E+02  0.99341315242E+02  0.10699533140E+03  0.14927923113E+03  0.00000000000E+00 0.  1.
<scales pt_clust_5="13000.00000" pt_clust_6="13000.00000" pt_clust_7="13000.00000" pt_clust_8="13000.00000" pt_clust_9="22.22370" pt_clust_10="100.13240"></scales>
<clustering>
<clus scale="   22.224">  1  9  2 -1</clus>
<clus scale="   90.236">  5  6 -1 -1</clus>
<clus scale="   92.882">  7  8 -1 -1</clus>
<clus scale="  100.132">  2 10  1 -1</clus>
<clus scale="  114.454">  1  5  2 -1</clus>
<clus scale="   22.224">  1  5  2 -1</clus>
</clustering>
</event>
<event>
10    2  0.1898324E-006  0.9716371E+02  0.7546771E-02  0.1287033E+00
         -1   -1    0    0    0  501 -0.00000000000E+00  0.00000000000E+00  0.99899579040E+02  0.99899579040E+02  0.00000000000E+00 0.  1.
          1   -1    0    0  503    0  0.00000000000E+00 -0.00000000000E+00 -0.36937123957E+03  0.36937123957E+03  0.00000000000E+00 0. -1.
         23    2    1    2    0    0 -0.12235181857E+02 -0.36146571399E+02  0.44150044443E+02  0.10886392965E+03  0.91901329999E+02 0.  0.
         23    2    1    2    0    0 -0.58726661157E+01 -0.68157655370E+01 -0.18420111591E+03  0.20549017831E+03  0.90637847582E+02 0.  0.
        -13    1    3    3    0    0 -0.43348766631E+02  0.70009018158E+01  0.82258167103E+01  0.44674290763E+02  0.00000000000E+00 0. -1.
         13    1    3    3    0    0  0.31113584773E+02 -0.43147473215E+02  0.35924227733E+02  0.64189638887E+02  0.00000000000E+00 0.  1.
        -13    1    4    4    0    0  0.29294235572E+02 -0.28249503047E+02 -0.13666217227E+03  0.14259290301E+03  0.00000000000E+00 0.  1.
         13    1    4    4    0    0 -0.35166901687E+02  0.21433737510E+02 -0.47538943638E+02  0.62897275300E+02  0.00000000000E+00 0. -1.
         21    1    1    2  502  501 -0.15463157521E+02  0.39068610857E+02 -0.10536427509E+03  0.11343322291E+03  0.00000000000E+00 0. -1.
         21    1    1    2  503  502  0.33571005494E+02  0.38937260792E+01 -0.24056313980E+02  0.41483487738E+02  0.00000000000E+00 0. -1.
<scales pt_clust_5="13000.00000" pt_clust_6="13000.00000" pt_clust_7="13000.00000" pt_clust_8="13000.00000" pt_clust_9="40.59019" pt_clust_10="33.79606"></scales>
<clustering>
<clus scale="   33.796">  2 10  1 -1</clus>
<clus scale="   40.590">  2  9  1 -1</clus>
<clus scale="   90.638">  7  8 -1 -1</clus>
<clus scale="   91.901">  5  6 -1 -1</clus>
<clus scale="   95.970">  2  7  1 -1</clus>
<clus scale="   33.796">  2  5  1 -1</clus>
</clustering>
</event>
<event>
10    2  0.1898324E-006  0.1030079E+03  0.7546771E-02  0.1274727E+00
          2   -1    0    0  502    0  0.00000000000E+00  0.00000000000E+00  0.67833995956E+03  0.67833995956E+03  0.00000000000E+00 0. -1.
         -2   -1    0    0    0  501 -0.00000000000E+00 -0.00000000000E+00 -0.15599615769E+03  0.15599615769E+03  0.00000000000E+00 0.  1.
         23    2    1    2    0    0 -0.25546125678E+02 -0.71560375814E+02 -0.85958492855E+02  0.14728034883E+03  0.92353379656E+02 0.  0.
         23    2    1    2    0    0  0.33013267826E+02  0.39772861179E+02  0.60287847178E+03  0.61188972373E+03  0.90966070259E+02 0.  0.
        -13    1    3    3    0    0 -0.17621238680E+02 -0.48160740586E+02 -0.10449058304E+03  0.11639693695E+03  0.00000000000E+00 0.  1.
         13    1    3    3    0    0 -0.79248869978E+01 -0.23399635228E+02  0.18532090188E+02  0.30883411882E+02  0.00000000000E+00 0. -1.
        -13    1    4    4    0    0 -0.30647420487E+02  0.24297710058E+01  0.16675291446E+03  0.16956327035E+03  0.00000000000E+00 0.  1.
         13    1    4    4    0    0  0.63660688313E+02  0.37343090174E+02  0.43612555731E+03  0.44232645338E+03  0.00000000000E+00 0. -1.
         21    1    1    2  502  503 -0.20590757448E+02  0.17967556134E+01  0.28433446011E+02  0.35152076397E+02  0.00000000000E+00 0.  1.
         21    1    1    2  503  501  0.13123615300E+02  0.29990759021E+02 -0.23009623054E+02  0.40013968290E+02  0.00000000000E+00 0. -1.
<scales pt_clust_5="13000.00000" pt_clust_6="13000.00000" pt_clust_7="13000.00000" pt_clust_8="13000.00000" pt_clust_9="20.66900" pt_clust_10="32.65056"></scales>
<clustering>
<clus scale="   20.669">  1  9  2 -1</clus>
<clus scale="   32.651">  2 10  1 -1</clus>
<clus scale="   90.966">  7  8 -1 -1</clus>
<clus scale="   92.353">  5  6 -1 -1</clus>
<clus scale="  101.766">  1  7  2 -1</clus>
<clus scale="   20.669">  1  5  2 -1</clus>
</clustering>
</event>
<event>
10    2  0.1898324E-006  0.1236217E+03  0.7546771E-02  0.1238578E+00
         -1   -1    0    0    0  501 -0.00000000000E+00  0.00000000000E+00  0.18752653448E+03  0.18752653448E+03  0.00000000000E+00 0.  1.
          1   -1    0    0  502    0  0.00000000000E+00 -0.00000000000E+00 -0.57831204507E+03  0.57831204507E+03  0.00000000000E+00 0. -1.
         23    2    1    2    0    0  0.63341569701E+02 -0.43071022286E+02  0.10155665619E+03  0.15688282342E+03  0.91821557677E+02 0.  0.
         23    2    1    2    0    0 -0.37999317144E+02 -0.52211863787E+01 -0.62245784211E+02  0.12078202895E+03  0.96138192073E+02 0.  0.
        -13    1    4    4    0    0 -0.63948928346E+01 -0.49045731869E+02 -0.28733091065E+02  0.57201127533E+02  0.00000000000E+00 0.  1.
         13    1    4    4    0    0 -0.31604424309E+02  0.43824545490E+02 -0.33512693145E+02  0.63580901419E+02  0.00000000000E+00 0. -1.
        -13    1    3    3    0    0  0.27019425959E+02 -0.52244973256E+02  0.10384997305E+03  0.11934992046E+03  0.00000000000E+00 0.  1.
         13    1    3    3    0    0  0.36322143742E+02  0.91739509693E+01 -0.22933168661E+01  0.37532902961E+02  0.00000000000E+00 0. -1.
         21    1    1    2  502  503 -0.55554523461E+02  0.69703982658E+02 -0.44072505936E+03  0.44964822720E+03  0.00000000000E+00 0. -1.
         21    1    1    2  503  501  0.30212270904E+02 -0.21411773993E+02  0.10628676798E+02  0.38525499987E+02  0.00000000000E+00 0.  1.
<scales pt_clust_5="13000.00000" pt_clust_6="13000.00000" pt_clust_7="13000.00000" pt_clust_8="13000.00000" pt_clust_9="88.16086" pt_clust_10="37.03033"></scales>
<clustering>
<clus scale="   37.030">  1 10  2 -1</clus>
<clus scale="   88.161">  2  9  1 -1</clus>
<clus scale="   91.822">  7  8 -1 -1</clus>
<clus scale="   96.138">  5  6 -1 -1</clus>
<clus scale="  120.295">  1  7  2 -1</clus>
<clus scale="   88.161">  2  5  1 -1</clus>
</clustering>
</event>
<event>
10    2  0.1898324E-006  0.1114851E+03  0.7546771E-02  0.1258033E+00
         -1   -1    0    0    0  501 -0.00000000000E+00  0.00000000000E+00  0.34588251451E+03  0.34588251451E+03  0.00000000000E+00 0.  1.
          1   -1    0    0  502    0  0.00000000000E+00 -0.00000000000E+00 -0.83739658957E+02  0.83739658957E+02  0.00000000000E+00 0. -1.
         23    2    1    2    0    0  0.32270441591E+02 -0.44962593234E+02  0.84683208583E+02  0.13656550702E+03  0.91738082070E+02 0.  0.
         23    2    1    2    0    0 -0.72113251295E+02  0.39861274319E+02  0.47812693667E+02  0.13260329731E+03  0.92240655788E+02 0.  0.
        -13    1    3    3    0    0  0.60388279306E+02 -0.15062647747E+02  0.68213763334E+02  0.92340376558E+02  0.00000000000E+00 0.  1.
         13    1    3    3    0    0 -0.28117837715E+02 -0.29899945487E+02  0.16469445249E+02  0.44225130466E+02  0.00000000000E+00 0. -1.
        -13    1    4    4    0    0 -0.93763793212E+02  0.28433040914E+02  0.30495688775E+02  0.10261614769E+03  0.00000000000E+00 0. -1.
         13    1    4    4    0    0  0.21650541917E+02  0.11428233405E+02  0.17317004892E+02  0.29987149623E+02  0.00000000000E+00 0.  1.
         21    1    1    2  502  503  0.20285735253E+02 -0.33957814744E+02  0.24335593346E+02  0.46442064343E+02  0.00000000000E+00 0. -1.
         21    1    1    2  503  501  0.19557074451E+02  0.39059133659E+02  0.10531135996E+03  0.11401130479E+03  0.00000000000E+00 0.  1.
<scales pt_clust_5="13000.00000" pt_clust_6="13000.00000" pt_clust_7="13000.00000" pt_clust_8="13000.00000" pt_clust_9="39.55558" pt_clust_10="42.45503"></scales>
<clustering>
<clus scale="   39.556">  2  9  1 -1</clus>
<clus scale="   42.455">  1 10  2 -1</clus>
<clus scale="   91.738">  5  6 -1 -1</clus>
<clus scale="   92.241">  7  8 -1 -1</clus>
<clus scale="  111.070">  1  5  2 -1</clus>
<clus scale="   39.556">  2  5  1 -1</clus>
</clustering>
</event>
<event>
10    2  0.1898324E-006  0.1532101E+03  0.7546771E-02  0.1197357E+00
          1   -1    0    0  502    0  0.00000000000E+00  0.00000000000E+00  0.15543318343E+03  0.15543318343E+03  0.00000000000E+00 0. -1.
         -1   -1    0    0    0  501 -0.00000000000E+00 -0.00000000000E+00 -0.21990382165E+03  0.21990382165E+03  0.00000000000E+00 0.  1.
         23    2    1    2    0    0 -0.96898292155E+02  0.49275168905E+02 -0.24107295597E+02  0.14469655867E+03  0.92404605392E+02 0.  0.
         23    2    1    2    0    0  0.13188864307E+03 -0.37850112237E+02 -0.11002017324E+02  0.16342209091E+03  0.88082292462E+02 0.  0.
        -11    1    3    3    0    0 -0.13346065237E+02 -0.26606926427E+02 -0.36386909038E+01  0.29988098684E+02  0.00000000000E+00 0.  1.
         11    1    3    3    0    0 -0.83552226918E+02  0.75882095332E+02 -0.20468604693E+02  0.11470845999E+03  0.00000000000E+00 0. -1.
        -11    1    4    4    0    0  0.54852856666E+02  0.24877163633E+01  0.34930923000E+02  0.65078368133E+02  0.00000000000E+00 0. -1.
         11    1    4    4    0    0  0.77035786407E+02 -0.40337828601E+02 -0.45932940325E+02  0.98343722781E+02  0.00000000000E+00 0.  1.
         21    1    1    2  502  503 -0.14095246898E+02 -0.17509681768E+02  0.81010395206E+01  0.23893341794E+02  0.00000000000E+00 0. -1.
         21    1    1    2  503  501 -0.20895104021E+02  0.60846251003E+01 -0.37462364814E+02  0.43325013700E+02  0.00000000000E+00 0. -1.
<scales pt_clust_5="13000.00000" pt_clust_6="13000.00000" pt_clust_7="13000.00000" pt_clust_8="13000.00000" pt_clust_9="22.86305" pt_clust_10="21.76300"></scales>
<clustering>
<clus scale="   21.763">  2 10  1 -1</clus>
<clus scale="   22.863">  1  9  2 -1</clus>
<clus scale="   88.082">  7  8 -1 -1</clus>
<clus scale="   92.405">  5  6 -1 -1</clus>
<clus scale="  150.643">  1  7  2 -1</clus>
<clus scale="   22.863">  1  5  2 -1</clus>
</clustering>
</event>
<event>
10    2  0.1898324E-006  0.1026087E+03  0.7546771E-02  0.1277155E+00
         -1   -1    0    0    0  501 -0.00000000000E+00  0.00000000000E+00  0.48330634320E+02  0.48330634320E+02  0.00000000000E+00 0.  1.
          1   -1    0    0  502    0  0.00000000000E+00 -0.00000000000E+00 -0.37032535114E+03  0.37032535114E+03  0.00000000000E+00 0. -1.
         23    2    1    2    0    0 -0.35909407338E+02  0.30732460249E+02 -0.75488003136E+02  0.12521345611E+03  0.88011370429E+02 0.  0.
         23    2    1    2    0    0 -0.60487832072E+01 -0.49411788098E+02 -0.19358174154E+03  0.22038141150E+03  0.92822213387E+02 0.  0.
        -13    1    3    3    0    0  0.11756209785E+02  0.34492033875E+02 -0.67540333802E+02  0.76743765606E+02  0.00000000000E+00 0. -1.
         13    1    3    3    0    0 -0.47665617123E+02 -0.37595736258E+01 -0.79476693347E+01  0.48469690502E+02  0.00000000000E+00 0.  1.
        -13    1    4    4    0    0  0.13576977572E+02 -0.67789040608E+02 -0.17366820237E+03  0.18692333418E+03  0.00000000000E+00 0. -1.
         13    1    4    4    0    0 -0.19625760779E+02  0.18377252510E+02 -0.19913539166E+02  0.33458077322E+02  0.00000000000E+00 0.  1.
         21    1    1    2  502  503  0.20568037814E+02  0.10076193655E+02 -0.41335437303E+02  0.47256663394E+02  0.00000000000E+00 0. -1.
         21    1    1    2  503  501  0.21390152731E+02  0.86031341936E+01 -0.11589534842E+02  0.25804454454E+02  0.00000000000E+00 0.  1.
<scales pt_clust_5="13000.00000" pt_clust_6="13000.00000" pt_clust_7="13000.00000" pt_clust_8="13000.00000" pt_clust_9="20.60708" pt_clust_10="50.36739"></scales>
<clustering>
<clus scale="   20.607">  9 10 -1 -1</clus>
<clus scale="   50.367">  1  9  2 -1</clus>
<clus scale="   88.011">  5  6 -1 -1</clus>
<clus scale="   92.822">  7  8 -1 -1</clus>
<clus scale="   98.278">  1  5  2 -1</clus>
<clus scale="  102.609">  2  5  1 -1</clus>
</clustering>
</event>
<event>
10    2  0.1898324E-006  0.1010637E+03  0.7546771E-02  0.1280028E+00
         -1   -1    0    0    0  501 -0.00000000000E+00  0.00000000000E+00  0.26769679842E+02  0.26769679842E+02  0.00000000000E+00 0.  1.
          1   -1    0    0  502    0  0.00000000000E+00 -0.00000000000E+00 -0.91268050012E+03  0.91268050012E+03  0.00000000000E+00 0. -1.
         23    2    1    2    0    0 -0.17092485420E+02 -0.54274029784E+02 -0.33516698891E+03  0.35290816333E+03  0.94707116546E+02 0.  0.
         23    2    1    2    0    0  0.35850672897E+02  0.68645180050E-01 -0.44526712655E+03  0.45583405490E+03  0.90755694928E+02 0.  0.
        -11    1    4    4    0    0 -0.24136367660E+02  0.22914675829E+02 -0.16238441424E+03  0.16575990046E+03  0.00000000000E+00 0.  1.
         11    1    4    4    0    0  0.59987040557E+02 -0.22846030649E+02 -0.28288271231E+03  0.29007415444E+03  0.00000000000E+00 0. -1.
        -13    1    3    3    0    0 -0.20624958214E+02  0.68159782022E+00 -0.96769391574E+01  0.22792468677E+02  0.00000000000E+00 0.  1.
         13    1    3    3    0    0  0.35324727948E+01 -0.54955627604E+02 -0.32549004976E+03  0.33011569466E+03  0.00000000000E+00 0. -1.
         21    1    1    2  502  503 -0.49238975016E+01  0.31967767953E+02 -0.98399107214E+02  0.10357879732E+03  0.00000000000E+00 0.  1.
         21    1    1    2  503  501 -0.13834289976E+02  0.22237616651E+02 -0.70775976017E+01  0.27129164404E+02  0.00000000000E+00 0.  1.
<scales pt_clust_5="13000.00000" pt_clust_6="13000.00000" pt_clust_7="13000.00000" pt_clust_8="13000.00000" pt_clust_9="36.10507" pt_clust_10="26.18968"></scales>
<clustering>
<clus scale="   26.190">  1 10  2 -1</clus>
<clus scale="   36.105">  1  9  2 -1</clus>
<clus scale="   90.756">  5  6 -1 -1</clus>
<clus scale="   94.707">  7  8 -1 -1</clus>
<clus scale="   97.371">  2  5  1 -1</clus>
<clus scale="   97.371">  2  5  1 -1</clus>
</clustering>
</event>
<event>
10    2  0.1898324E-006  0.9552914E+02  0.7546771E-02  0.1293610E+00
          2   -1    0    0  502    0  0.00000000000E+00  0.00000000000E+00  0.92105977867E+03  0.92105977867E+03  0.00000000000E+00 0. -1.
         -2   -1    0    0    0  501 -0.00000000000E+00 -0.00000000000E+00 -0.21272028568E+03  0.21272028568E+03  0.00000000000E+00 0.  1.
         23    2    1    2    0    0  0.70449117954E+02 -0.46329980902E+01  0.93364603752E+01  0.11633180339E+03  0.91985738548E+02 0.  0.
         23    2    1    2    0    0  0.71387105347E+02 -0.15588142430E+02  0.62608144773E+02  0.12874140932E+03  0.85530472275E+02 0.  0.
        -11    1    4    4    0    0  0.18435265324E+01 -0.37736943845E+02  0.10992034998E+02  0.39348447926E+02  0.00000000000E+00 0. -1.
         11    1    4    4    0    0  0.69543578814E+02  0.22148801415E+02  0.51616109775E+02  0.89392961394E+02  0.00000000000E+00 0.  1.
        -13    1    3    3    0    0  0.60577592327E+02  0.31121920687E+02 -0.17776772024E+02  0.70386307355E+02  0.00000000000E+00 0.  1.
         13    1    3    3    0    0  0.98715256262E+01 -0.35754918777E+02  0.27113232399E+02  0.45945496037E+02  0.00000000000E+00 0. -1.
         21    1    1    2  502  503 -0.97162884301E+02  0.38483265496E+01  0.75483234226E+03  0.76106983952E+03  0.00000000000E+00 0. -1.
         21    1    1    2  503  501 -0.44673338999E+02  0.16372813970E+02 -0.11843745441E+03  0.12763701212E+03  0.00000000000E+00 0.  1.
<scales pt_clust_5="13000.00000" pt_clust_6="13000.00000" pt_clust_7="13000.00000" pt_clust_8="13000.00000" pt_clust_9="98.81521" pt_clust_10="47.57916"></scales>
<clustering>
<clus scale="   47.579">  2 10  1 -1</clus>
<clus scale="   85.530">  5  6 -1 -1</clus>
<clus scale="   91.986">  7  8 -1 -1</clus>
<clus scale="   98.815">  1  9  2 -1</clus>
<clus scale="   98.815">  1  5  2 -1</clus>
<clus scale="   95.529">  1  5  2 -1</clus>
</clustering>
</event>
<event>
10    2  0.1898324E-006  0.1064528E+03  0.7546771E-02  0.1267668E+00
         -1   -1    0    0    0  501 -0.00000000000E+00  0.00000000000E+00  0.71108426555E+02  0.71108426555E+02  0.00000000000E+00 0.  1.
          1   -1    0    0  502    0  0.00000000000E+00 -0.00000000000E+00 -0.56230928462E+03  0.56230928462E+03  0.00000000000E+00 0. -1.
         23    2    1    2    0    0  0.42194793618E+02 -0.19754487599E+02 -0.13544917779E+02  0.10241578720E+03  0.90193615521E+02 0.  0.
         23    2    1    2    0    0 -0.33814187059E+02 -0.39508753094E+02 -0.28146840438E+03  0.30038565686E+03  0.91119368777E+02 0.  0.
        -11    1    3    3    0    0  0.56867970224E+02  0.10637309685E+02  0.13216238689E+02  0.59344648956E+02  0.00000000000E+00 0.  1.
         11    1    3    3    0    0 -0.14673176605E+02 -0.30391797284E+02 -0.26761156469E+02  0.43071138241E+02  0.00000000000E+00 0. -1.
        -11    1    4    4    0    0  0.23363275143E+02 -0.24066295543E+02 -0.17828558480E+03  0.18141328218E+03  0.00000000000E+00 0.  1.
         11    1    4    4    0    0 -0.57177462203E+02 -0.15442457551E+02 -0.10318281958E+03  0.11897237468E+03  0.00000000000E+00 0. -1.
         21    1    1    2  502  503 -0.34959039862E+02  0.44450487611E+02 -0.19169081336E+03  0.19985832043E+03  0.00000000000E+00 0. -1.
         21    1    1    2  503  501  0.26578433303E+02  0.14812753081E+02 -0.44967225394E+01  0.30757946685E+02  0.00000000000E+00 0. -1.
<scales pt_clust_5="13000.00000" pt_clust_6="13000.00000" pt_clust_7="13000.00000" pt_clust_8="13000.00000" pt_clust_9="56.25332" pt_clust_10="30.42747"></scales>
<clustering>
<clus scale="   30.427">  1 10  2 -1</clus>
<clus scale="   56.253">  2  9  1 -1</clus>
<clus scale="   90.194">  5  6 -1 -1</clus>
<clus scale="   91.119">  7  8 -1 -1</clus>
<clus scale="  105.661">  1  5  2 -1</clus>
<clus scale="   56.253">  2  5  1 -1</clus>
</clustering>
</event>
<event>
10    2  0.1898324E-006  0.9396829E+02  0.7546771E-02  0.1294452E+00
         -1   -1    0    0    0  501 -0.00000000000E+00  0.00000000000E+00  0.77492445079E+03  0.77492445079E+03  0.00000000000E+00 0.  1.
          1   -1    0    0  502    0  0.00000000000E+00 -0.00000000000E+00 -0.21513208509E+03  0.21513208509E+03  0.00000000000E+00 0. -1.
         23    2    1    2    0    0  0.32221525367E+02  0.20848004882E+02  0.37926724897E+03  0.39251414053E+03  0.93545915873E+02 0.  0.
         23    2    1    2    0    0  0.32839183704E+02  0.40646113439E+02  0.19014265385E+03  0.21756231066E+03  0.91916329796E+02 0.  0.
        -13    1    3    3    0    0  0.28967219262E+02  0.57282686800E+02  0.22572135875E+03  0.23467112689E+03  0.00000000000E+00 0.  1.
         13    1    3    3    0    0  0.32543061052E+01 -0.36434681918E+02  0.15354589022E+03  0.15784301365E+03  0.00000000000E+00 0. -1.
        -13    1    4    4    0    0  0.41188014715E+02 -0.64474572704E+01  0.32608025535E+02  0.52927361456E+02  0.00000000000E+00 0. -1.
         13    1    4    4    0    0 -0.83488310110E+01  0.47093570710E+02  0.15753462831E+03  0.16463494920E+03  0.00000000000E+00 0.  1.
         21    1    1    2  502  503 -0.47851889366E+02 -0.37774192450E+02 -0.18880935376E+03  0.19840782494E+03  0.00000000000E+00 0. -1.
         21    1    1    2  503  501 -0.17208819706E+02 -0.23719925871E+02  0.17919181664E+03  0.18157225975E+03  0.00000000000E+00 0.  1.
<scales pt_clust_5="13000.00000" pt_clust_6="13000.00000" pt_clust_7="13000.00000" pt_clust_8="13000.00000" pt_clust_9="61.19239" pt_clust_10="29.30492"></scales>
<clustering>
<clus scale="   29.305">  1 10  2 -1</clus>
<clus scale="   61.192">  2  9  1 -1</clus>
<clus scale="   91.916">  7  8 -1 -1</clus>
<clus scale="   92.346">  2  7  1 -1</clus>
<clus scale="   93.546">  5  6 -1 -1</clus>
<clus scale="   61.192">  2  5  1 -1</clus>
</clustering>
</event>
<event>
10    2  0.1898324E-006  0.1413903E+03  0.7546771E-02  0.1232132E+00
          1   -1    0    0  502    0  0.00000000000E+00  0.00000000000E+00  0.97994564881E+02  0.97994564881E+02  0.00000000000E+00 0. -1.
         -1   -1    0    0    0  501 -0.00000000000E+00 -0.00000000000E+00 -0.75676706058E+03  0.75676706058E+03  0.00000000000E+00 0.  1.
         23    2    1    2    0    0  0.33944726219E+02  0.11754934370E+02 -0.18287081833E+03  0.20700955987E+03  0.90115474591E+02 0.  0.
         23    2    1    2    0    0 -0.54010435199E+02 -0.93416544954E+02 -0.15034897861E+03  0.20723041623E+03  0.93251552590E+02 0.  0.
        -11    1    4    4    0    0 -0.39485697145E+02 -0.18762232441E+02 -0.60735687539E+01  0.44136491508E+02  0.00000000000E+00 0. -1.
         11    1    4    4    0    0 -0.14524738054E+02 -0.74654312514E+02 -0.14427540986E+03  0.16309392472E+03  0.00000000000E+00 0.  1.
        -13    1    3    3    0    0 -0.27993067678E+02 -0.11795437486E+02 -0.49340490302E+02  0.57941592718E+02  0.00000000000E+00 0. -1.
         13    1    3    3    0    0  0.61937793897E+02  0.23550371856E+02 -0.13353032803E+03  0.14906796715E+03  0.00000000000E+00 0.  1.
         21    1    1    2  502  503  0.64444947962E+02  0.84184203433E+02  0.58216964082E+01  0.10617920500E+03  0.00000000000E+00 0. -1.
         21    1    1    2  503  501 -0.44379238983E+02 -0.25225928492E+01 -0.33137439517E+03  0.33434244436E+03  0.00000000000E+00 0.  1.
<scales pt_clust_5="13000.00000" pt_clust_6="13000.00000" pt_clust_7="13000.00000" pt_clust_8="13000.00000" pt_clust_9="106.27969" pt_clust_10="44.45088"></scales>
<clustering>
<clus scale="   44.451">  2 10  1 -1</clus>
<clus scale="   90.115">  7  8 -1 -1</clus>
<clus scale="   91.740">  2  7  1 -1</clus>
<clus scale="   93.252">  5  6 -1 -1</clus>
<clus scale="  106.280">  1  9  2 -1</clus>
<clus scale="  106.280">  1  5  2 -1</clus>
</clustering>
</event>
<event>
10    2  0.1898324E-006  0.1371829E+03  0.7546771E-02  0.1217203E+00
         -2   -1    0    0    0  501 -0.00000000000E+00  0.00000000000E+00  0.85366268887E+02  0.85366268887E+02  0.00000000000E+00 0.  1.
          2   -1    0    0  502    0  0.00000000000E+00 -0.00000000000E+00 -0.60742111991E+03  0.60742111991E+03  0.00000000000E+00 0. -1.
         23    2    1    2    0    0  0.61928630647E+02  0.48067341468E+02 -0.73498255967E+02  0.14188238768E+03  0.92644447724E+02 0.  0.
         23    2    1    2    0    0 -0.13048983786E+02 -0.11748011918E+03 -0.39267811456E+03  0.42038658673E+03  0.92503655412E+02 0.  0.
        -11    1    4    4    0    0 -0.46052465542E+02 -0.10360170409E+03 -0.27733160212E+03  0.29961134859E+03  0.00000000000E+00 0. -1.
         11    1    4    4    0    0  0.33003481756E+02 -0.13878415091E+02 -0.11534651245E+03  0.12077523814E+03  0.00000000000E+00 0.  1.
        -13    1    3    3    0    0  0.11887102274E+01  0.54163283474E+02 -0.57017881908E+02  0.78651847823E+02  0.00000000000E+00 0. -1.
         13    1    3    3    0    0  0.60739920420E+02 -0.60959420054E+01 -0.16480374059E+02  0.63230539857E+02  0.00000000000E+00 0.  1.
         21    1    1    2  502  503 -0.30138724510E+02  0.56831615182E+02 -0.76494817609E+02  0.99948148159E+02  0.00000000000E+00 0. -1.
         21    1    1    2  503  501 -0.18740922351E+02  0.12581162529E+02  0.20616337117E+02  0.30570266228E+02  0.00000000000E+00 0. -1.
<scales pt_clust_5="13000.00000" pt_clust_6="13000.00000" pt_clust_7="13000.00000" pt_clust_8="13000.00000" pt_clust_9="68.26389" pt_clust_10="22.57228"></scales>
<clustering>
<clus scale="   22.572">  1 10  2 -1</clus>
<clus scale="   68.264">  1  9  2 -1</clus>
<clus scale="   92.504">  5  6 -1 -1</clus>
<clus scale="   92.644">  7  8 -1 -1</clus>
<clus scale="  137.088">  2  5  1 -1</clus>
<clus scale="  137.088">  2  5  1 -1</clus>
</clustering>
</event>
<event>
10    2  0.1898324E-006  0.5904827E+03  0.7546771E-02  0.1039966E+00
          1   -1    0    0  502    0  0.00000000000E+00  0.00000000000E+00  0.27593063365E+03  0.27593063365E+03  0.00000000000E+00 0. -1.
         -1   -1    0    0    0  501 -0.00000000000E+00 -0.00000000000E+00 -0.21677427970E+04  0.21677427970E+04  0.00000000000E+00 0.  1.
         23    2    1    2    0    0  0.54660816360E+03 -0.31393698528E+03 -0.92331045344E+03  0.11215132569E+04  0.89178903184E+02 0.  0.
         23    2    1    2    0    0 -0.72567679808E+02 -0.61105152492E+02 -0.50005731248E+02  0.15221666932E+03  0.10802515193E+03 0.  0.
        -13    1    3    3    0    0  0.24683389561E+02 -0.39571156120E+02 -0.77656179961E+02  0.90584923707E+02  0.00000000000E+00 0. -1.
         13    1    3    3    0    0  0.52192477404E+03 -0.27436582916E+03 -0.84565427348E+03  0.10309283332E+04  0.00000000000E+00 0.  1.
        -13    1    4    4    0    0  0.15727334377E+02 -0.49332155926E+02 -0.39254506100E+01  0.51927062476E+02  0.00000000000E+00 0.  1.
         13    1    4    4    0    0 -0.88295014185E+02 -0.11772996567E+02 -0.46080280638E+02  0.10028960685E+03  0.00000000000E+00 0. -1.
         21    1    1    2  502  503 -0.13137205404E+02  0.76548946400E+02  0.22136046902E+02  0.80760955500E+02  0.00000000000E+00 0.  1.
         21    1    1    2  503  501 -0.46090327839E+03  0.29849319138E+03 -0.94063202553E+03  0.10891825489E+04  0.00000000000E+00 0. -1.
<scales pt_clust_5="13000.00000" pt_clust_6="13000.00000" pt_clust_7="13000.00000" pt_clust_8="13000.00000" pt_clust_9="77.66806" pt_clust_10="583.70968"></scales>
<clustering>
<clus scale="   77.668">  1  9  2 -1</clus>
<clus scale="   89.179">  5  6 -1 -1</clus>
<clus scale="  108.025">  7  8 -1 -1</clus>
<clus scale="  138.875">  1  7  2 -1</clus>
<clus scale="  583.710">  2 10  1 -1</clus>
<clus scale="   77.668">  1  5  2 -1</clus>
</clustering>
</event>
<event>
10    2  0.1898324E-006  0.1630813E+03  0.7546771E-02  0.1211285E+00
          1   -1    0    0  502    0  0.00000000000E+00  0.00000000000E+00  0.15323063074E+04  0.15323063074E+04  0.00000000000E+00 0. -1.
         -1   -1    0    0    0  501 -0.00000000000E+00 -0.00000000000E+00 -0.47341359456E+02  0.47341359456E+02  0.00000000000E+00 0.  1.
         23    2    1    2    0    0  0.32256040702E+02 -0.43591508869E+02  0.10584770624E+03  0.14642923757E+03  0.85423140260E+02 0.  0.
         23    2    1    2    0    0 -0.10591208982E+03  0.80113240935E+02  0.39756627123E+03  0.42872982526E+03  0.90082300737E+02 0.  0.
        -11    1    3    3    0    0 -0.24251525477E+02  0.70139358715E+01  0.23932756641E+02  0.34786615599E+02  0.00000000000E+00 0.  1.
         11    1    3    3    0    0  0.56507566179E+02 -0.50605444740E+02  0.81914949604E+02  0.11164262197E+03  0.00000000000E+00 0. -1.
        -13    1    4    4    0    0 -0.83012592806E+02  0.86340896127E+01  0.24234530998E+03  0.25631404046E+03  0.00000000000E+00 0. -1.
         13    1    4    4    0    0 -0.22899497011E+02  0.71479151323E+02  0.15522096126E+03  0.17241578481E+03  0.00000000000E+00 0.  1.
         21    1    1    2  502  503  0.12708714045E+03 -0.54093639788E+02  0.85385294924E+03  0.86495209235E+03  0.00000000000E+00 0.  1.
         21    1    1    2  503  501 -0.53431091337E+02  0.17571907722E+02  0.12769802118E+03  0.13953651162E+03  0.00000000000E+00 0. -1.
<scales pt_clust_5="13000.00000" pt_clust_6="13000.00000" pt_clust_7="13000.00000" pt_clust_8="13000.00000" pt_clust_9="135.94369" pt_clust_10="56.24636"></scales>
<clustering>
<clus scale="   56.246">  2 10  1 -1</clus>
<clus scale="   85.423">  5  6 -1 -1</clus>
<clus scale="   90.082">  7  8 -1 -1</clus>
<clus scale="   92.509">  2  5  1 -1</clus>
<clus scale="  135.944">  1  9  2 -1</clus>
<clus scale="  135.944">  1  5  2 -1</clus>
</clustering>
</event>
<event>
10    2  0.2342578E-006  0.1827660E+03  0.7546771E-02  0.1165171E+00
          1   -1    0    0  502    0  0.00000000000E+00  0.00000000000E+00  0.11713799610E+04  0.11713799610E+04  0.00000000000E+00 0. -1.
         -1   -1    0    0    0  501 -0.00000000000E+00 -0.00000000000E+00 -0.33897666551E+03  0.33897666551E+03  0.00000000000E+00 0.  1.
         23    2    1    2    0    0 -0.11676046416E+03 -0.96428156511E+02 -0.22437380952E+03  0.28565023241E+03  0.91219808806E+02 0.  0.
         23    2    1    2    0    0  0.20088043611E+03  0.26990195590E+03  0.71641314353E+03  0.79674142899E+03  0.91373393531E+02 0.  0.
        -11    1    4    4    0    0  0.13673429654E+03  0.18529051186E+03  0.38371417410E+03  0.44751023345E+03  0.00000000000E+00 0.  1.
         11    1    4    4    0    0  0.64146139572E+02  0.84611444042E+02  0.33269896942E+03  0.34923119554E+03  0.00000000000E+00 0. -1.
        -11    1    3    3    0    0 -0.81631375247E+02 -0.11811388029E+02 -0.81720033899E+02  0.11610923414E+03  0.00000000000E+00 0. -1.
         11    1    3    3    0    0 -0.35129088916E+02 -0.84616768482E+02 -0.14265377562E+03  0.16954099827E+03  0.00000000000E+00 0.  1.
         21    1    1    2  502  503 -0.95249458637E+02 -0.20308635549E+02  0.18749479981E+03  0.21127990914E+03  0.00000000000E+00 0. -1.
         21    1    1    2  503  501  0.11129486689E+02 -0.15316516384E+03  0.15286916166E+03  0.21668505596E+03  0.00000000000E+00 0.  1.
<scales pt_clust_5="13000.00000" pt_clust_6="13000.00000" pt_clust_7="13000.00000" pt_clust_8="13000.00000" pt_clust_9="97.39045" pt_clust_10="157.18081"></scales>
<clustering>
<clus scale="   91.220">  7  8 -1 -1</clus>
<clus scale="   91.373">  5  6 -1 -1</clus>
<clus scale="   97.390">  1  9  2 -1</clus>
<clus scale="  157.181">  1 10  2 -1</clus>
<clus scale="  182.689">  2  7  1 -1</clus>
<clus scale="   97.390">  1  5  2 -1</clus>
</clustering>
</event>
<event>
10    2  0.1898324E-006  0.9411497E+02  0.7546771E-02  0.1294137E+00
         -1   -1    0    0    0  501 -0.00000000000E+00  0.00000000000E+00  0.45146611454E+03  0.45146611454E+03  0.00000000000E+00 0.  1.
          1   -1    0    0  502    0  0.00000000000E+00 -0.00000000000E+00 -0.12955137854E+03  0.12955137854E+03  0.00000000000E+00 0. -1.
         23    2    1    2    0    0  0.35587354715E+02  0.63437739898E+02  0.81853039371E+02  0.14097247695E+03  0.88783515044E+02 0.  0.
         23    2    1    2    0    0  0.33669192928E+02 -0.25039192887E+01 -0.42247943076E+02  0.10543569812E+03  0.90509190576E+02 0.  0.
        -11    1    4    4    0    0  0.93329062122E+01 -0.28488101752E+02  0.18354038453E+02  0.35150331540E+02  0.00000000000E+00 0.  1.
         11    1    4    4    0    0  0.24336286716E+02  0.25984182463E+02 -0.60601981529E+02  0.70285366576E+02  0.00000000000E+00 0. -1.
        -13    1    3    3    0    0 -0.22925596993E+02 -0.58885661961E+01  0.21789604972E+02  0.32172116719E+02  0.00000000000E+00 0.  1.
         13    1    3    3    0    0  0.58512951708E+02  0.69326306094E+02  0.60063434399E+02  0.10880036023E+03  0.00000000000E+00 0. -1.
         21    1    1    2  502  503 -0.54803878994E+02 -0.24506980426E+01  0.10059020148E+02  0.55773245916E+02  0.00000000000E+00 0.  1.
         21    1    1    2  503  501 -0.14452668649E+02 -0.58483122567E+02  0.27225061956E+03  0.27883607210E+03  0.00000000000E+00 0.  1.
<scales pt_clust_5="13000.00000" pt_clust_6="13000.00000" pt_clust_7="13000.00000" pt_clust_8="13000.00000" pt_clust_9="54.85865" pt_clust_10="60.74336"></scales>
<clustering>
<clus scale="   54.859">  2  9  1 -1</clus>
<clus scale="   60.743">  1 10  2 -1</clus>
<clus scale="   88.784">  7  8 -1 -1</clus>
<clus scale="   90.509">  5  6 -1 -1</clus>
<clus scale="   92.457">  1  7  2 -1</clus>
<clus scale="   54.859">  2  5  1 -1</clus>
</clustering>
</event>
<event>
10    2  0.1898324E-006  0.3546647E+03  0.7546771E-02  0.1102002E+00
          2   -1    0    0  502    0  0.00000000000E+00  0.00000000000E+00  0.73347895958E+03  0.73347895958E+03  0.00000000000E+00 0. -1.
         -2   -1    0    0    0  501 -0.00000000000E+00 -0.00000000000E+00 -0.98631984070E+03  0.98631984070E+03  0.00000000000E+00 0.  1.
         23    2    1    2    0    0 -0.14792028513E+03 -0.33227969551E+03 -0.79837052631E+03  0.88172111374E+03  0.88013739464E+02 0.  0.
         23    2    1    2    0    0  0.16009062749E+02  0.30029100823E+02  0.43067823727E+03  0.44163347232E+03  0.91642472853E+02 0.  0.
        -11    1    3    3    0    0  0.37567770496E+01 -0.27152097519E+02 -0.11353819258E+03  0.11680013248E+03  0.00000000000E+00 0. -1.
         11    1    3    3    0    0 -0.15167706218E+03 -0.30512759800E+03 -0.68483233373E+03  0.76492098126E+03  0.00000000000E+00 0.  1.
        -11    1    4    4    0    0 -0.36942605550E+02  0.24863551271E+02  0.20104736083E+03  0.20591987175E+03  0.00000000000E+00 0.  1.
         11    1    4    4    0    0  0.52951668299E+02  0.51655495526E+01  0.22963087644E+03  0.23571360057E+03  0.00000000000E+00 0. -1.
         21    1    1    2  502  503  0.27105208295E+02  0.47587379858E+02  0.10786236085E+03  0.12096916932E+03  0.00000000000E+00 0. -1.
         21    1    1    2  503  501  0.10480601409E+03  0.25466321483E+03  0.69890470611E+01  0.27547504489E+03  0.00000000000E+00 0. -1.
<scales pt_clust_5="13000.00000" pt_clust_6="13000.00000" pt_clust_7="13000.00000" pt_clust_8="13000.00000" pt_clust_9="54.76542" pt_clust_10="343.57040"></scales>
<clustering>
<clus scale="   54.765">  1  9  2 -1</clus>
<clus scale="   88.014">  5  6 -1 -1</clus>
<clus scale="   91.642">  7  8 -1 -1</clus>
<clus scale="  116.920">  1  7  2 -1</clus>
<clus scale="  343.570">  1 10  2 -1</clus>
<clus scale="   54.765">  1  5  2 -1</clus>
</clustering>
</event>
<event>
10    2  0.1898324E-006  0.1233055E+03  0.7546771E-02  0.1238748E+00
          1   -1    0    0  502    0  0.00000000000E+00  0.00000000000E+00  0.14357139914E+03  0.14357139914E+03  0.00000000000E+00 0. -1.
         -1   -1    0    0    0  501 -0.00000000000E+00 -0.00000000000E+00 -0.17946383945E+03  0.17946383945E+03  0.00000000000E+00 0.  1.
         23    2    1    2    0    0  0.51123725391E+02  0.50074909900E+02 -0.84816646518E+02  0.14377126905E+03  0.91406686732E+02 0.  0.
         23    2    1    2    0    0 -0.57361699908E+02 -0.48749127683E+02  0.29755752607E+02  0.12457208507E+03  0.94688740090E+02 0.  0.
        -11    1    4    4    0    0 -0.64710217567E+02 -0.71761443589E+02  0.21056866245E+02  0.98896454231E+02  0.00000000000E+00 0. -1.
         11    1    4    4    0    0  0.73485176589E+01  0.23012315906E+02  0.86988863620E+01  0.25675630841E+02  0.00000000000E+00 0.  1.
        -13    1    3    3    0    0  0.34938529799E+02  0.70980200257E+02 -0.86570585235E+02  0.11727470282E+03  0.00000000000E+00 0.  1.
         13    1    3    3    0    0  0.16185195592E+02 -0.20905290357E+02  0.17539387168E+01  0.26496566236E+02  0.00000000000E+00 0. -1.
         21    1    1    2  502  503  0.14821467513E+01 -0.21074875717E+02  0.25778492557E+02  0.33329833843E+02  0.00000000000E+00 0. -1.
         21    1    1    2  503  501  0.47558277655E+01  0.19749093500E+02 -0.66100389498E+01  0.21362050621E+02  0.00000000000E+00 0. -1.
<scales pt_clust_5="13000.00000" pt_clust_6="13000.00000" pt_clust_7="13000.00000" pt_clust_8="13000.00000" pt_clust_9="20.68551" pt_clust_10="20.31366"></scales>
<clustering>
<clus scale="   20.314">  2 10  1 -1</clus>
<clus scale="   20.686">  1  9  2 -1</clus>
<clus scale="   91.407">  7  8 -1 -1</clus>
<clus scale="   94.689">  5  6 -1 -1</clus>
<clus scale="  120.803">  2  7  1 -1</clus>
<clus scale="   20.686">  1  5  2 -1</clus>
</clustering>
</event>
<event>
10    2  0.1898324E-006  0.3531306E+03  0.7546771E-02  0.1087605E+00
          1   -1    0    0  502    0  0.00000000000E+00  0.00000000000E+00  0.37585638392E+03  0.37585638392E+03  0.00000000000E+00 0. -1.
         -1   -1    0    0    0  501 -0.00000000000E+00 -0.00000000000E+00 -0.76833532259E+03  0.76833532259E+03  0.00000000000E+00 0.  1.
         23    2    1    2    0    0  0.10640230831E+02  0.37424962190E+03 -0.47854960580E+03  0.61462498055E+03  0.92618289263E+02 0.  0.
         23    2    1    2    0    0 -0.10757311005E+03 -0.10131149644E+03  0.28451861921E+02  0.17635888532E+03  0.91961702182E+02 0.  0.
        -11    1    3    3    0    0  0.29528935757E+01  0.32909376462E+03 -0.45906628397E+03  0.56484801369E+03  0.00000000000E+00 0.  1.
         11    1    3    3    0    0  0.76873372557E+01  0.45155857278E+02 -0.19483321831E+02  0.49776966864E+02  0.00000000000E+00 0. -1.
        -13    1    4    4    0    0 -0.74296067533E+02 -0.91478203957E+01  0.20850037942E+01  0.74886150320E+02  0.00000000000E+00 0. -1.
         13    1    4    4    0    0 -0.33277042512E+02 -0.92163676049E+02  0.26366858127E+02  0.10147273500E+03  0.00000000000E+00 0.  1.
         21    1    1    2  502  503  0.66355937067E+02 -0.26284937363E+03  0.10931386759E+03  0.29230536302E+03  0.00000000000E+00 0. -1.
         21    1    1    2  503  501  0.30576942147E+02 -0.10088751824E+02 -0.51695062385E+02  0.60902477613E+02  0.00000000000E+00 0. -1.
<scales pt_clust_5="13000.00000" pt_clust_6="13000.00000" pt_clust_7="13000.00000" pt_clust_8="13000.00000" pt_clust_9="340.76839" pt_clust_10="32.19833"></scales>
<clustering>
<clus scale="   32.198">  2 10  1 -1</clus>
<clus scale="   91.962">  7  8 -1 -1</clus>
<clus scale="   92.618">  5  6 -1 -1</clus>
<clus scale="  172.723">  1  7  2 -1</clus>
<clus scale="  340.768">  1  9  2 -1</clus>
<clus scale="  172.723">  1  5  2 -1</clus>
</clustering>
</event>
<event>
10    2  0.1898324E-006  0.1751033E+03  0.7546771E-02  0.1173369E+00
         -2   -1    0    0    0  501 -0.00000000000E+00  0.00000000000E+00  0.30054871317E+03  0.30054871317E+03  0.00000000000E+00 0.  1.
          2   -1    0    0  502    0  0.00000000000E+00 -0.00000000000E+00 -0.19653967961E+03  0.19653967961E+03  0.00000000000E+00 0. -1.
         23    2    1    2    0    0 -0.16276591294E+03  0.51268911887E+02  0.34211164538E+02  0.19663299207E+03  0.91503475611E+02 0.  0.
         23    2    1    2    0    0  0.12439242839E+03 -0.38207088739E+02 -0.22110568441E+02  0.15741266691E+03  0.85770697768E+02 0.  0.
        -11    1    3    3    0    0 -0.14909985162E+03  0.22598835576E+02  0.52863972703E+02  0.15980010241E+03  0.00000000000E+00 0. -1.
         11    1    3    3    0    0 -0.13666061322E+02  0.28670076310E+02 -0.18652808165E+02  0.36832889652E+02  0.00000000000E+00 0.  1.
        -13    1    4    4    0    0  0.10388493537E+03 -0.24812742855E+02  0.20031478506E+02  0.10866927872E+03  0.00000000000E+00 0.  1.
         13    1    4    4    0    0  0.20507493016E+02 -0.13394345884E+02 -0.42142046947E+02  0.48743388191E+02  0.00000000000E+00 0. -1.
         21    1    1    2  502  503  0.14446534001E+02 -0.20817062362E+02 -0.17490797963E+02  0.30789291051E+02  0.00000000000E+00 0. -1.
         21    1    1    2  503  501  0.23926950547E+02  0.77552392147E+01  0.10939923543E+03  0.11225344276E+03  0.00000000000E+00 0. -1.
<scales pt_clust_5="13000.00000" pt_clust_6="13000.00000" pt_clust_7="13000.00000" pt_clust_8="13000.00000" pt_clust_9="25.60747" pt_clust_10="25.15239"></scales>
<clustering>
<clus scale="   25.152">  1 10  2 -1</clus>
<clus scale="   25.607">  2  9  1 -1</clus>
<clus scale="   85.771">  7  8 -1 -1</clus>
<clus scale="   91.503">  5  6 -1 -1</clus>
<clus scale="  172.177">  2  7  1 -1</clus>
<clus scale="   25.607">  2  5  1 -1</clus>
</clustering>
</event>
<event>
10    2  0.1898324E-006  0.9484542E+02  0.7546771E-02  0.1292507E+00
         -4   -1    0    0    0  501 -0.00000000000E+00  0.00000000000E+00  0.26334768522E+03  0.26334768522E+03  0.00000000000E+00 0.  1.
          4   -1    0    0  502    0  0.00000000000E+00 -0.00000000000E+00 -0.39128575379E+03  0.39128575379E+03  0.00000000000E+00 0. -1.
         23    2    1    2    0    0  0.22379546478E+01 -0.19717328961E+02  0.15108558288E+03  0.17431961714E+03  0.84656329131E+02 0.  0.
         23    2    1    2    0    0 -0.48354514223E+02  0.39187075133E+02 -0.28992002408E+03  0.30889806815E+03  0.86548311598E+02 0.  0.
        -11    1    4    4    0    0  0.21075452990E+02 -0.77664095737E+01 -0.71667978414E+02  0.75105199330E+02  0.00000000000E+00 0.  1.
         11    1    4    4    0    0 -0.69429967213E+02  0.46953484707E+02 -0.21825204567E+03  0.23379286882E+03  0.00000000000E+00 0. -1.
        -11    1    3    3    0    0  0.22011258012E+02 -0.47725757222E+02  0.95663663895E+02  0.10915026327E+03  0.00000000000E+00 0.  1.
         11    1    3    3    0    0 -0.19773303365E+02  0.28008428261E+02  0.55421918989E+02  0.65169353871E+02  0.00000000000E+00 0. -1.
         21    1    1    2  502  503  0.48990529276E+02  0.15934996753E+01 -0.71295220575E+02  0.86519475708E+02  0.00000000000E+00 0. -1.
         21    1    1    2  503  501 -0.28739697004E+01 -0.21063245847E+02  0.82191593204E+02  0.84896278015E+02  0.00000000000E+00 0.  1.
<scales pt_clust_5="13000.00000" pt_clust_6="13000.00000" pt_clust_7="13000.00000" pt_clust_8="13000.00000" pt_clust_9="48.87390" pt_clust_10="21.25841"></scales>
<clustering>
<clus scale="   21.258">  1 10  2 -1</clus>
<clus scale="   48.874">  2  9  1 -1</clus>
<clus scale="   84.656">  7  8 -1 -1</clus>
<clus scale="   86.548">  5  6 -1 -1</clus>
<clus scale="   93.122">  1  7  2 -1</clus>
<clus scale="   48.874">  2  5  1 -1</clus>
</clustering>
</event>
<event>
10    2  0.1898324E-006  0.1104955E+03  0.7546771E-02  0.1261335E+00
         -2   -1    0    0    0  501 -0.00000000000E+00  0.00000000000E+00  0.12790819807E+03  0.12790819807E+03  0.00000000000E+00 0.  1.
          2   -1    0    0  502    0  0.00000000000E+00 -0.00000000000E+00 -0.40226966743E+03  0.40226966743E+03  0.00000000000E+00 0. -1.
         23    2    1    2    0    0 -0.19864816553E+02  0.52532120262E+02 -0.27252375181E+02  0.11127173541E+03  0.92111196673E+02 0.  0.
         23    2    1    2    0    0  0.36576509757E+02 -0.38690356766E+02 -0.11673879332E+03  0.15545906079E+03  0.87776927170E+02 0.  0.
        -11    1    4    4    0    0  0.24418087331E+02  0.11648993718E+02  0.74829305158E+00  0.27064773896E+02  0.00000000000E+00 0.  1.
         11    1    4    4    0    0  0.12158422426E+02 -0.50339350484E+02 -0.11748708637E+03  0.12839428689E+03  0.00000000000E+00 0. -1.
        -13    1    3    3    0    0 -0.45786565308E+02  0.47876997560E+02  0.85820900626E+01  0.66800215029E+02  0.00000000000E+00 0. -1.
         13    1    3    3    0    0  0.25921748754E+02  0.46551227017E+01 -0.35834465244E+02  0.44471520383E+02  0.00000000000E+00 0.  1.
         21    1    1    2  502  503 -0.12379608748E+01 -0.34111039632E+02 -0.19291089966E+03  0.19590740358E+03  0.00000000000E+00 0.  1.
         21    1    1    2  503  501 -0.15473732329E+02  0.20269276136E+02  0.62540598800E+02  0.67539665719E+02  0.00000000000E+00 0.  1.
<scales pt_clust_5="13000.00000" pt_clust_6="13000.00000" pt_clust_7="13000.00000" pt_clust_8="13000.00000" pt_clust_9="33.66635" pt_clust_10="25.50059"></scales>
<clustering>
<clus scale="   25.501">  1 10  2 -1</clus>
<clus scale="   33.666">  2  9  1 -1</clus>
<clus scale="   87.777">  5  6 -1 -1</clus>
<clus scale="   92.111">  7  8 -1 -1</clus>
<clus scale="  106.909">  2  5  1 -1</clus>
<clus scale="   33.666">  2  5  1 -1</clus>
</clustering>
</event>
<event>
10    2  0.1898324E-006  0.1189196E+03  0.7546771E-02  0.1244974E+00
         -2   -1    0    0    0  501 -0.00000000000E+00  0.00000000000E+00  0.76247115410E+02  0.76247115410E+02  0.00000000000E+00 0.  1.
          2   -1    0    0  502    0  0.00000000000E+00 -0.00000000000E+00 -0.63236010159E+03  0.63236010159E+03  0.00000000000E+00 0. -1.
         23    2    1    2    0    0 -0.18939061170E+02  0.86886013825E+02 -0.15796745386E+03  0.20247183826E+03  0.90184596105E+02 0.  0.
         23    2    1    2    0    0  0.43181377769E+02 -0.64361410195E+02 -0.30560239298E+03  0.32784978195E+03  0.89920155816E+02 0.  0.
        -11    1    4    4    0    0  0.68363513580E+02 -0.49263744574E+02 -0.26253155840E+03  0.27572324108E+03  0.00000000000E+00 0. -1.
         11    1    4    4    0    0 -0.25182135811E+02 -0.15097665621E+02 -0.43070834578E+02  0.52126540864E+02  0.00000000000E+00 0.  1.
        -11    1    3    3    0    0  0.17171279957E+02  0.42401027268E+02 -0.13174266136E+03  0.13945905776E+03  0.00000000000E+00 0. -1.
         11    1    3    3    0    0 -0.36110341127E+02  0.44484986557E+02 -0.26224792498E+02  0.63012780503E+02  0.00000000000E+00 0.  1.
         21    1    1    2  502  503  0.23023492073E+02  0.23077173494E+02 -0.10629695543E+03  0.11118309160E+03  0.00000000000E+00 0. -1.
         21    1    1    2  503  501 -0.47265808672E+02 -0.45601777124E+02  0.13753816083E+02  0.67102505192E+02  0.00000000000E+00 0.  1.
<scales pt_clust_5="13000.00000" pt_clust_6="13000.00000" pt_clust_7="13000.00000" pt_clust_8="13000.00000" pt_clust_9="32.59812" pt_clust_10="64.01753"></scales>
<clustering>
<clus scale="   32.598">  2  9  1 -1</clus>
<clus scale="   64.018">  1 10  2 -1</clus>
<clus scale="   89.920">  5  6 -1 -1</clus>
<clus scale="   90.185">  7  8 -1 -1</clus>
<clus scale="  118.719">  2  5  1 -1</clus>
<clus scale="   32.598">  2  5  1 -1</clus>
</clustering>
</event>
<event>
10    2  0.1898324E-006  0.1067409E+03  0.7546771E-02  0.1270502E+00
          1   -1    0    0  502    0  0.00000000000E+00  0.00000000000E+00  0.39248789597E+03  0.39248789597E+03  0.00000000000E+00 0. -1.
         -1   -1    0    0    0  501 -0.00000000000E+00 -0.00000000000E+00 -0.69137813128E+02  0.69137813128E+02  0.00000000000E+00 0.  1.
         23    2    1    2    0    0 -0.25227561838E+02 -0.15256531180E+02  0.37933131261E+02  0.10440624812E+03  0.92696011663E+02 0.  0.
         23    2    1    2    0    0  0.34856249094E+02  0.22848558669E+02  0.86718787260E+02  0.13928660988E+03  0.10071542531E+03 0.  0.
        -11    1    3    3    0    0 -0.42104236420E+02 -0.45893884327E+02  0.25064048926E+02  0.67135846548E+02  0.00000000000E+00 0.  1.
         11    1    3    3    0    0  0.16876674582E+02  0.30637353147E+02  0.12869082335E+02  0.37270401567E+02  0.00000000000E+00 0. -1.
        -13    1    4    4    0    0  0.33333316450E+02  0.43216018941E+02  0.10069731521E+03  0.11453682189E+03  0.00000000000E+00 0. -1.
         13    1    4    4    0    0  0.15229326440E+01 -0.20367460272E+02 -0.13978527952E+02  0.24749787989E+02  0.00000000000E+00 0.  1.
         21    1    1    2  502  503  0.69519382134E+01 -0.24870226596E+02  0.19106009766E+03  0.19279735095E+03  0.00000000000E+00 0. -1.
         21    1    1    2  503  501 -0.16580625469E+02  0.17278199107E+02  0.76380666580E+01  0.25135500146E+02  0.00000000000E+00 0. -1.
<scales pt_clust_5="13000.00000" pt_clust_6="13000.00000" pt_clust_7="13000.00000" pt_clust_8="13000.00000" pt_clust_9="25.52055" pt_clust_10="23.94689"></scales>
<clustering>
<clus scale="   23.947">  2 10  1 -1</clus>
<clus scale="   25.521">  1  9  2 -1</clus>
<clus scale="   92.696">  5  6 -1 -1</clus>
<clus scale="   99.210">  2  5  1 -1</clus>
<clus scale="  100.715">  7  8 -1 -1</clus>
<clus scale="   25.521">  1  5  2 -1</clus>
</clustering>
</event>
<event>
10    2  0.1898324E-006  0.1016098E+03  0.7546771E-02  0.1276994E+00
          2   -1    0    0  502    0  0.00000000000E+00  0.00000000000E+00  0.29011023052E+03  0.29011023052E+03  0.00000000000E+00 0. -1.
         -2   -1    0    0    0  501 -0.00000000000E+00 -0.00000000000E+00 -0.14107684660E+03  0.14107684660E+03  0.00000000000E+00 0.  1.
         23    2    1    2    0    0  0.25612002879E+02 -0.23278364852E+01 -0.59793599035E+02  0.11313240881E+03  0.92532556014E+02 0.  0.
         23    2    1    2    0    0 -0.75817381893E+02  0.90720307602E+01  0.16490027904E+03  0.20387801965E+03  0.92431421776E+02 0.  0.
        -13    1    4    4    0    0 -0.75072175925E+02 -0.21864780390E+02  0.15081060946E+03  0.16987566084E+03  0.00000000000E+00 0. -1.
         13    1    4    4    0    0 -0.74520596797E+00  0.30936811150E+02  0.14089669577E+02  0.34002358814E+02  0.00000000000E+00 0.  1.
        -13    1    3    3    0    0 -0.21305220924E+01  0.36716107343E+02 -0.33176274528E+00  0.36779365537E+02  0.00000000000E+00 0. -1.
         13    1    3    3    0    0  0.27742524972E+02 -0.39043943828E+02 -0.59461836290E+02  0.76353043269E+02  0.00000000000E+00 0.  1.
         21    1    1    2  502  503  0.40463276767E+02 -0.35106795850E+02  0.59766973495E+02  0.80261167462E+02  0.00000000000E+00 0. -1.
         21    1    1    2  503  501  0.97421022460E+01  0.28362601575E+02 -0.15840269584E+02  0.33915481196E+02  0.00000000000E+00 0. -1.
<scales pt_clust_5="13000.00000" pt_clust_6="13000.00000" pt_clust_7="13000.00000" pt_clust_8="13000.00000" pt_clust_9="52.63712" pt_clust_10="29.98909"></scales>
<clustering>
<clus scale="   29.989">  2 10  1 -1</clus>
<clus scale="   52.637">  1  9  2 -1</clus>
<clus scale="   92.431">  5  6 -1 -1</clus>
<clus scale="   92.533">  7  8 -1 -1</clus>
<clus scale="  101.518">  1  5  2 -1</clus>
<clus scale="   52.637">  1  5  2 -1</clus>
</clustering>
</event>
<event>
10    2  0.1898324E-006  0.1213559E+03  0.7546771E-02  0.1241026E+00
          2   -1    0    0  502    0  0.00000000000E+00  0.00000000000E+00  0.63214948778E+03  0.63214948778E+03  0.00000000000E+00 0. -1.
         -2   -1    0    0    0  501 -0.00000000000E+00 -0.00000000000E+00 -0.79190586748E+02  0.79190586748E+02  0.00000000000E+00 0.  1.
         23    2    1    2    0    0 -0.96984512277E+02 -0.71053033867E+02  0.47521990448E+02  0.15804233435E+03  0.90909353904E+02 0.  0.
         23    2    1    2    0    0  0.32840703306E+02  0.30712647198E+01  0.15163800360E+03  0.17960479947E+03  0.90420436823E+02 0.  0.
        -11    1    3    3    0    0 -0.18214378981E+02  0.21354022524E+02  0.17097728589E+02  0.32864725809E+02  0.00000000000E+00 0. -1.
         11    1    3    3    0    0 -0.78770133295E+02 -0.92407056391E+02  0.30424261860E+02  0.12517760854E+03  0.00000000000E+00 0.  1.
        -13    1    4    4    0    0  0.16465935592E+02 -0.40229457312E+02  0.10613871159E+03  0.11469508433E+03  0.00000000000E+00 0.  1.
         13    1    4    4    0    0  0.16374767714E+02  0.43300722032E+02  0.45499292004E+02  0.64909715136E+02  0.00000000000E+00 0. -1.
         21    1    1    2  502  503  0.43480023117E+02  0.76017647086E+02  0.32887355946E+03  0.34033367919E+03  0.00000000000E+00 0. -1.
         21    1    1    2  503  501  0.20663785854E+02 -0.80358779393E+01  0.24925347523E+02  0.33359261521E+02  0.00000000000E+00 0. -1.
<scales pt_clust_5="13000.00000" pt_clust_6="13000.00000" pt_clust_7="13000.00000" pt_clust_8="13000.00000" pt_clust_9="87.84092" pt_clust_10="22.17132"></scales>
<clustering>
<clus scale="   22.171">  2 10  1 -1</clus>
<clus scale="   87.841">  1  9  2 -1</clus>
<clus scale="   90.420">  7  8 -1 -1</clus>
<clus scale="   90.909">  5  6 -1 -1</clus>
<clus scale="  120.990">  1  7  2 -1</clus>
<clus scale="   87.841">  1  5  2 -1</clus>
</clustering>
</event>
<event>
10    2  0.1898324E-006  0.2471540E+03  0.7546771E-02  0.1117804E+00
         -3   -1    0    0    0  501 -0.00000000000E+00  0.00000000000E+00  0.16679516102E+03  0.16679516102E+03  0.00000000000E+00 0.  1.
          3   -1    0    0  502    0  0.00000000000E+00 -0.00000000000E+00 -0.44420073863E+03  0.44420073863E+03  0.00000000000E+00 0. -1.
         23    2    1    2    0    0  0.17976152143E+03  0.91466198554E+02 -0.11273351618E+03  0.26364616194E+03  0.12696528254E+03 0.  0.
         23    2    1    2    0    0 -0.20933286105E+03 -0.79163570498E+02 -0.11918976970E+03  0.26960146795E+03  0.91605855221E+02 0.  0.
        -11    1    4    4    0    0 -0.18799636381E+03 -0.37293866698E+02 -0.11221528098E+03  0.22209397693E+03  0.00000000000E+00 0.  1.
         11    1    4    4    0    0 -0.21336497239E+02 -0.41869703800E+02 -0.69744887133E+01  0.47507491026E+02  0.00000000000E+00 0. -1.
        -11    1    3    3    0    0  0.15718897750E+03  0.67229533094E+02 -0.28743671496E+02  0.17336200108E+03  0.00000000000E+00 0.  1.
         11    1    3    3    0    0  0.22572543932E+02  0.24236665459E+02 -0.83989844682E+02  0.90284160858E+02  0.00000000000E+00 0. -1.
         21    1    1    2  502  503  0.24902182895E+02  0.92099687864E+01 -0.48732712897E+02  0.55496121885E+02  0.00000000000E+00 0. -1.
         21    1    1    2  503  501  0.46691567293E+01 -0.21512596842E+02  0.32504211591E+01  0.22252147877E+02  0.00000000000E+00 0. -1.
<scales pt_clust_5="13000.00000" pt_clust_6="13000.00000" pt_clust_7="13000.00000" pt_clust_8="13000.00000" pt_clust_9="26.48739" pt_clust_10="22.01347"></scales>
<clustering>
<clus scale="   22.013">  1 10  2 -1</clus>
<clus scale="   26.487">  2  9  1 -1</clus>
<clus scale="   91.606">  5  6 -1 -1</clus>
<clus scale="  126.965">  7  8 -1 -1</clus>
<clus scale="  230.990">  2  5  1 -1</clus>
<clus scale="   26.487">  2  5  1 -1</clus>
</clustering>
</event>
<event>
10    2  0.1898324E-006  0.1228493E+03  0.7546771E-02  0.1238878E+00
         -2   -1    0    0    0  501 -0.00000000000E+00  0.00000000000E+00  0.15706138337E+03  0.15706138337E+03  0.00000000000E+00 0.  1.
          2   -1    0    0  502    0  0.00000000000E+00 -0.00000000000E+00 -0.12996961419E+04  0.12996961419E+04  0.00000000000E+00 0. -1.
         23    2    1    2    0    0  0.14304016225E+02 -0.48521868893E+02 -0.20435397146E+03  0.22886011426E+03  0.89763186246E+02 0.  0.
         23    2    1    2    0    0  0.20377875455E+02  0.13903814157E+03 -0.69071575714E+03  0.71073315760E+03  0.91140010569E+02 0.  0.
        -11    1    4    4    0    0  0.46436242595E+02  0.11292584970E+03 -0.60836695876E+03  0.62049893527E+03  0.00000000000E+00 0.  1.
         11    1    4    4    0    0 -0.26058367140E+02  0.26112291871E+02 -0.82348798378E+02  0.90234222328E+02  0.00000000000E+00 0. -1.
        -13    1    3    3    0    0  0.30559819849E+02  0.13647809973E+01 -0.15085896911E+03  0.15392918429E+03  0.00000000000E+00 0. -1.
         13    1    3    3    0    0 -0.16255803624E+02 -0.49886649891E+02 -0.53495002352E+02  0.74930929965E+02  0.00000000000E+00 0.  1.
         21    1    1    2  502  503 -0.11636115996E+02 -0.59711484614E+02 -0.37713165815E+03  0.38200673839E+03  0.00000000000E+00 0.  1.
         21    1    1    2  503  501 -0.23045775684E+02 -0.30804788060E+02  0.12956662818E+03  0.13515751508E+03  0.00000000000E+00 0.  1.
<scales pt_clust_5="13000.00000" pt_clust_6="13000.00000" pt_clust_7="13000.00000" pt_clust_8="13000.00000" pt_clust_9="64.27488" pt_clust_10="38.47132"></scales>
<clustering>
<clus scale="   38.471">  1 10  2 -1</clus>
<clus scale="   64.275">  2  9  1 -1</clus>
<clus scale="   89.763">  7  8 -1 -1</clus>
<clus scale="   91.140">  5  6 -1 -1</clus>
<clus scale="  121.831">  1  7  2 -1</clus>
<clus scale="   64.275">  2  5  1 -1</clus>
</clustering>
</event>
<event>
10    2  0.1898324E-006  0.1115188E+03  0.7546771E-02  0.1257985E+00
         -1   -1    0    0    0  501 -0.00000000000E+00  0.00000000000E+00  0.14304458890E+03  0.14304458890E+03  0.00000000000E+00 0.  1.
          1   -1    0    0  503    0  0.00000000000E+00 -0.00000000000E+00 -0.23051488018E+03  0.23051488018E+03  0.00000000000E+00 0. -1.
         23    2    1    2    0    0  0.62881033932E+02 -0.17541598632E+02  0.11434333745E+02  0.11205155741E+03  0.90349739455E+02 0.  0.
         23    2    1    2    0    0 -0.35317582401E+02  0.59177345947E+02 -0.14569823164E+03  0.18503798281E+03  0.90894391909E+02 0.  0.
        -11    1    3    3    0    0 -0.13514043617E+02 -0.18765384186E+02  0.25433395163E+02  0.34374796117E+02  0.00000000000E+00 0.  1.
         11    1    3    3    0    0  0.76395077549E+02  0.12237855545E+01 -0.13999061418E+02  0.77676761296E+02  0.00000000000E+00 0. -1.
        -13    1    4    4    0    0 -0.32614364686E+02  0.98572484025E+01 -0.31995115722E+01  0.34221323823E+02  0.00000000000E+00 0.  1.
         13    1    4    4    0    0 -0.27032177147E+01  0.49320097544E+02 -0.14249872007E+03  0.15081665899E+03  0.00000000000E+00 0. -1.
         21    1    1    2  502  501 -0.14377062774E+02 -0.18703846418E+02  0.10329060207E+01  0.23613570244E+02  0.00000000000E+00 0.  1.
         21    1    1    2  503  502 -0.13186388757E+02 -0.22931900898E+02  0.45760700594E+02  0.52856358616E+02  0.00000000000E+00 0.  1.
<scales pt_clust_5="13000.00000" pt_clust_6="13000.00000" pt_clust_7="13000.00000" pt_clust_8="13000.00000" pt_clust_9="23.59097" pt_clust_10="35.29215"></scales>
<clustering>
<clus scale="   23.591">  1  9  2 -1</clus>
<clus scale="   35.292">  1 10  2 -1</clus>
<clus scale="   90.350">  5  6 -1 -1</clus>
<clus scale="   90.894">  7  8 -1 -1</clus>
<clus scale="  111.075">  1  5  2 -1</clus>
<clus scale="  111.519">  2  5  1 -1</clus>
</clustering>
</event>
<event>
10    2  0.1898324E-006  0.2094374E+03  0.7546771E-02  0.1142469E+00
          4   -1    0    0  502    0  0.00000000000E+00  0.00000000000E+00  0.64897158268E+03  0.64897158268E+03  0.00000000000E+00 0. -1.
         -4   -1    0    0    0  501 -0.00000000000E+00 -0.00000000000E+00 -0.14603055169E+03  0.14603055169E+03  0.00000000000E+00 0.  1.
         23    2    1    2    0    0 -0.70445873211E+02 -0.13086065988E+03  0.10964247829E+03  0.20769336830E+03  0.95015413669E+02 0.  0.
         23    2    1    2    0    0  0.59528866338E+02  0.24840334557E+03  0.20129457166E+03  0.33740542647E+03  0.89861055033E+02 0.  0.
        -13    1    3    3    0    0 -0.68753373788E+02 -0.85572867804E+02  0.11848522411E+03  0.16151931911E+03  0.00000000000E+00 0.  1.
         13    1    3    3    0    0 -0.16924994222E+01 -0.45287792071E+02 -0.88427458265E+01  0.46174049191E+02  0.00000000000E+00 0. -1.
        -13    1    4    4    0    0  0.64068085330E+01  0.27246359193E+02 -0.71523053473E+01  0.28888869078E+02  0.00000000000E+00 0.  1.
         13    1    4    4    0    0  0.53122057805E+02  0.22115698638E+03  0.20844687701E+03  0.30851655739E+03  0.00000000000E+00 0. -1.
         21    1    1    2  502  503  0.30221799193E+02 -0.53199527207E+01  0.96573048803E+02  0.10133120348E+03  0.00000000000E+00 0. -1.
         21    1    1    2  503  501 -0.19304792321E+02 -0.11222273298E+03  0.95430932246E+02  0.14857213613E+03  0.00000000000E+00 0.  1.
<scales pt_clust_5="13000.00000" pt_clust_6="13000.00000" pt_clust_7="13000.00000" pt_clust_8="13000.00000" pt_clust_9="30.68646" pt_clust_10="114.10074"></scales>
<clustering>
<clus scale="   30.686">  1  9  2 -1</clus>
<clus scale="   89.861">  7  8 -1 -1</clus>
<clus scale="   95.015">  5  6 -1 -1</clus>
<clus scale="  114.101">  1 10  2 -1</clus>
<clus scale="  207.150">  1  7  2 -1</clus>
<clus scale="   30.686">  1  5  2 -1</clus>
</clustering>
</event>
<event>
10    2  0.1898324E-006  0.1130621E+03  0.7546771E-02  0.1256248E+00
          2   -1    0    0  502    0  0.00000000000E+00  0.00000000000E+00  0.87369748030E+03  0.87369748030E+03  0.00000000000E+00 0. -1.
         -2   -1    0    0    0  501 -0.00000000000E+00 -0.00000000000E+00 -0.26553423727E+02  0.26553423727E+02  0.00000000000E+00 0.  1.
         23    2    1    2    0    0  0.39724286989E+02  0.66138681273E+02  0.24980588887E+03  0.27688751721E+03  0.91166720552E+02 0.  0.
         23    2    1    2    0    0  0.18483460053E+02 -0.53519512106E+02  0.32019970713E+03  0.33861557900E+03  0.94481116744E+02 0.  0.
        -11    1    3    3    0    0  0.48086507224E+02  0.32032360050E+02  0.57907765220E+02  0.81802772203E+02  0.00000000000E+00 0.  1.
         11    1    3    3    0    0 -0.83622202347E+01  0.34106321223E+02  0.19189812365E+03  0.19508474501E+03  0.00000000000E+00 0. -1.
        -13    1    4    4    0    0  0.48126246579E+02 -0.62757680311E+02  0.22757720802E+03  0.24092747386E+03  0.00000000000E+00 0.  1.
         13    1    4    4    0    0 -0.29642786526E+02  0.92381682044E+01  0.92622499110E+02  0.97688105142E+02  0.00000000000E+00 0. -1.
         21    1    1    2  502  503 -0.30368237273E+02 -0.91615460812E+01  0.20330114164E+03  0.20576082706E+03  0.00000000000E+00 0. -1.
         21    1    1    2  503  501 -0.27839509769E+02 -0.34576230855E+01  0.73837318929E+02  0.78986980752E+02  0.00000000000E+00 0. -1.
<scales pt_clust_5="13000.00000" pt_clust_6="13000.00000" pt_clust_7="13000.00000" pt_clust_8="13000.00000" pt_clust_9="65.38798" pt_clust_10="25.37767"></scales>
<clustering>
<clus scale="   25.378">  9 10 -1 -1</clus>
<clus scale="   65.388">  1  9  2 -1</clus>
<clus scale="   91.167">  5  6 -1 -1</clus>
<clus scale="   94.481">  7  8 -1 -1</clus>
<clus scale="  110.307">  2  5  1 -1</clus>
<clus scale="   65.388">  1  5  2 -1</clus>
</clustering>
</event>
<event>
10    2  0.1898324E-006  0.2543675E+03  0.7546771E-02  0.1110710E+00
         -2   -1    0    0    0  501 -0.00000000000E+00  0.00000000000E+00  0.14562517995E+03  0.14562517995E+03  0.00000000000E+00 0.  1.
          2   -1    0    0  502    0  0.00000000000E+00 -0.00000000000E+00 -0.95139865477E+03  0.95139865477E+03  0.00000000000E+00 0. -1.
         23    2    1    2    0    0 -0.14787986997E+03 -0.11242241792E+03 -0.12592207530E+03  0.24213801524E+03  0.90924107827E+02 0.  0.
         23    2    1    2    0    0  0.94009022754E+02  0.26849972255E+03 -0.54849430482E+03  0.62488829876E+03  0.93325163487E+02 0.  0.
        -11    1    4    4    0    0  0.51057010064E+02  0.50187903987E+02 -0.18905840284E+03  0.20216014361E+03  0.00000000000E+00 0. -1.
         11    1    4    4    0    0  0.42952012690E+02  0.21831181857E+03 -0.35943590198E+03  0.42272815515E+03  0.00000000000E+00 0.  1.
        -11    1    3    3    0    0 -0.10278957200E+03 -0.76784597133E+02 -0.32338909690E+02  0.13231543957E+03  0.00000000000E+00 0.  1.
         11    1    3    3    0    0 -0.45090297969E+02 -0.35637820791E+02 -0.93583165613E+02  0.10982257567E+03  0.00000000000E+00 0. -1.
         21    1    1    2  502  503  0.21192124404E+02 -0.13170974568E+03 -0.13408364186E+03  0.18914276687E+03  0.00000000000E+00 0.  1.
         21    1    1    2  503  501  0.32678722808E+02 -0.24367558949E+02  0.27265471592E+01  0.40854753859E+02  0.00000000000E+00 0. -1.
<scales pt_clust_5="13000.00000" pt_clust_6="13000.00000" pt_clust_7="13000.00000" pt_clust_8="13000.00000" pt_clust_9="140.04848" pt_clust_10="40.76367"></scales>
<clustering>
<clus scale="   40.764">  1 10  2 -1</clus>
<clus scale="   90.924">  7  8 -1 -1</clus>
<clus scale="   93.325">  5  6 -1 -1</clus>
<clus scale="  140.048">  1  9  2 -1</clus>
<clus scale="  253.496">  1  7  2 -1</clus>
<clus scale="  254.367">  2  5  1 -1</clus>
</clustering>
</event>
<event>
10    2  0.1898324E-006  0.1117429E+03  0.7546771E-02  0.1258096E+00
          2   -1    0    0  502    0  0.00000000000E+00  0.00000000000E+00  0.12846946683E+04  0.12846946683E+04  0.00000000000E+00 0. -1.
         -2   -1    0    0    0  501 -0.00000000000E+00 -0.00000000000E+00 -0.37583629457E+02  0.37583629457E+02  0.00000000000E+00 0.  1.
         23    2    1    2    0    0  0.59860331709E+02 -0.44713282721E+02  0.15347504933E+03  0.19418423830E+03  0.92576404517E+02 0.  0.
         23    2    1    2    0    0 -0.21408457739E+02 -0.65229812155E+01  0.33483276346E+03  0.34861718016E+03  0.94446214682E+02 0.  0.
        -13    1    4    4    0    0 -0.56424310373E+02  0.11642986009E+02  0.19797200690E+03  0.20618481379E+03  0.00000000000E+00 0.  1.
         13    1    4    4    0    0  0.35015852634E+02 -0.18165967224E+02  0.13686075656E+03  0.14243236636E+03  0.00000000000E+00 0. -1.
        -13    1    3    3    0    0 -0.19022023616E+02 -0.33035715993E+02  0.37780890748E+02  0.53671143265E+02  0.00000000000E+00 0.  1.
         13    1    3    3    0    0  0.78882355325E+02 -0.11677566727E+02  0.11569415859E+03  0.14051309504E+03  0.00000000000E+00 0. -1.
         21    1    1    2  502  503 -0.89033483438E+02  0.39213022519E+02  0.66629375871E+03  0.67335874183E+03  0.00000000000E+00 0.  1.
         21    1    1    2  503  501  0.50581609468E+02  0.12023241417E+02  0.92509467316E+02  0.10611813744E+03  0.00000000000E+00 0. -1.
<scales pt_clust_5="13000.00000" pt_clust_6="13000.00000" pt_clust_7="13000.00000" pt_clust_8="13000.00000" pt_clust_9="92.59987" pt_clust_10="51.99094"></scales>
<clustering>
<clus scale="   51.991">  2 10  1 -1</clus>
<clus scale="   92.576">  7  8 -1 -1</clus>
<clus scale="   92.600">  1  9  2 -1</clus>
<clus scale="   94.446">  5  6 -1 -1</clus>
<clus scale="  110.167">  2  7  1 -1</clus>
<clus scale="   92.600">  1  5  2 -1</clus>
</clustering>
</event>
<event>
10    2  0.1898324E-006  0.1802086E+03  0.7546771E-02  0.1195795E+00
          1   -1    0    0  502    0  0.00000000000E+00  0.00000000000E+00  0.16988918176E+03  0.16988918176E+03  0.00000000000E+00 0. -1.
         -1   -1    0    0    0  501 -0.00000000000E+00 -0.00000000000E+00 -0.35799394490E+03  0.35799394490E+03  0.00000000000E+00 0.  1.
         23    2    1    2    0    0 -0.48904677737E+02 -0.14741709492E+03 -0.93642207485E+02  0.20323479479E+03  0.91717236163E+02 0.  0.
         23    2    1    2    0    0  0.87979158996E+01 -0.30805697803E+02 -0.89476507628E+01  0.97887339104E+02  0.92062350402E+02 0.  0.
        -11    1    3    3    0    0 -0.63118276006E+02 -0.46701628956E+02 -0.44849117283E+02  0.90423460640E+02  0.00000000000E+00 0.  1.
         11    1    3    3    0    0  0.14213598269E+02 -0.10071546596E+03 -0.48793090202E+02  0.11281133415E+03  0.00000000000E+00 0. -1.
        -13    1    4    4    0    0 -0.29566385727E+02 -0.47144400058E+02 -0.76174962245E+01  0.56167533954E+02  0.00000000000E+00 0.  1.
         13    1    4    4    0    0  0.38364301626E+02  0.16338702256E+02 -0.13301545383E+01  0.41719805150E+02  0.00000000000E+00 0. -1.
         21    1    1    2  502  503  0.13761217207E+02  0.24741798508E+02  0.23397489613E+02  0.36728329837E+02  0.00000000000E+00 0. -1.
         21    1    1    2  503  501  0.26345544630E+02  0.15348099422E+03 -0.10891239450E+03  0.19003266294E+03  0.00000000000E+00 0.  1.
<scales pt_clust_5="13000.00000" pt_clust_6="13000.00000" pt_clust_7="13000.00000" pt_clust_8="13000.00000" pt_clust_9="28.31126" pt_clust_10="155.12281"></scales>
<clustering>
<clus scale="   28.311">  1  9  2 -1</clus>
<clus scale="   91.717">  5  6 -1 -1</clus>
<clus scale="   92.062">  7  8 -1 -1</clus>
<clus scale="   95.787">  1  7  2 -1</clus>
<clus scale="  155.123">  2 10  1 -1</clus>
<clus scale="   28.311">  1  5  2 -1</clus>
</clustering>
</event>
<event>
10    2  0.1898324E-006  0.2113792E+03  0.7546771E-02  0.1140548E+00
          2   -1    0    0  502    0  0.00000000000E+00  0.00000000000E+00  0.66188435757E+03  0.66188435757E+03  0.00000000000E+00 0. -1.
         -2   -1    0    0    0  501 -0.00000000000E+00 -0.00000000000E+00 -0.10230753833E+03  0.10230753833E+03  0.00000000000E+00 0.  1.
         23    2    1    2    0    0  0.15930319657E+03  0.37267615470E+02  0.14477389185E+03  0.23749787330E+03  0.93163171144E+02 0.  0.
         23    2    1    2    0    0 -0.21172458335E+03 -0.68272732560E+02  0.36377481105E+03  0.43663439867E+03  0.93962863635E+02 0.  0.
        -11    1    4    4    0    0 -0.85596918949E+02 -0.23157501894E+02  0.67360955662E+02  0.11135798478E+03  0.00000000000E+00 0.  1.
         11    1    4    4    0    0 -0.12612766440E+03 -0.45115230667E+02  0.29641385538E+03  0.32527641388E+03  0.00000000000E+00 0. -1.
        -13    1    3    3    0    0  0.45493376993E+02  0.37967270002E+02  0.97848002291E+02  0.11439140044E+03  0.00000000000E+00 0. -1.
         13    1    3    3    0    0  0.11380981958E+03 -0.69965453120E+00  0.46925889562E+02  0.12310647286E+03  0.00000000000E+00 0.  1.
         21    1    1    2  502  503  0.28902903895E+02  0.27981277006E+02  0.52687523256E+02  0.66289552897E+02  0.00000000000E+00 0. -1.
         21    1    1    2  503  501  0.23518482882E+02  0.30238400841E+01 -0.16594069117E+01  0.23770071039E+02  0.00000000000E+00 0. -1.
<scales pt_clust_5="13000.00000" pt_clust_6="13000.00000" pt_clust_7="13000.00000" pt_clust_8="13000.00000" pt_clust_9="41.68472" pt_clust_10="23.71208"></scales>
<clustering>
<clus scale="   23.712">  2 10  1 -1</clus>
<clus scale="   41.685">  1  9  2 -1</clus>
<clus scale="   93.163">  7  8 -1 -1</clus>
<clus scale="   93.963">  5  6 -1 -1</clus>
<clus scale="  211.025">  2  7  1 -1</clus>
<clus scale="   41.685">  1  5  2 -1</clus>
</clustering>
</event>
<event>
10    2  0.1898324E-006  0.1120507E+03  0.7546771E-02  0.1256857E+00
          1   -1    0    0  502    0  0.00000000000E+00  0.00000000000E+00  0.10083790821E+03  0.10083790821E+03  0.00000000000E+00 0. -1.
         -1   -1    0    0    0  501 -0.00000000000E+00 -0.00000000000E+00 -0.34800163663E+03  0.34800163663E+03  0.00000000000E+00 0.  1.
         23    2    1    2    0    0 -0.40595362600E+02  0.72552102687E+02 -0.10294023192E+03  0.16051329019E+03  0.90862720151E+02 0.  0.
         23    2    1    2    0    0  0.15286005656E+02 -0.44310876945E+02 -0.37280267946E+02  0.10891188489E+03  0.90966282262E+02 0.  0.
        -11    1    4    4    0    0 -0.36240187987E+02 -0.34128794294E+02 -0.16837899959E+02  0.52551314924E+02  0.00000000000E+00 0.  1.
         11    1    4    4    0    0  0.51526193642E+02 -0.10182082651E+02 -0.20442367987E+02  0.56360569969E+02  0.00000000000E+00 0. -1.
        -13    1    3    3    0    0 -0.68903870275E+01  0.24669273674E+02 -0.98515206649E+02  0.10179045357E+03  0.00000000000E+00 0.  1.
         13    1    3    3    0    0 -0.33704975572E+02  0.47882829013E+02 -0.44250252676E+01  0.58722836624E+02  0.00000000000E+00 0. -1.
         21    1    1    2  502  503  0.37251068234E+02 -0.10529721538E+02  0.24785031878E+02  0.45965366587E+02  0.00000000000E+00 0.  1.
         21    1    1    2  503  501 -0.11941711290E+02 -0.17711504204E+02 -0.13172826043E+03  0.13344900316E+03  0.00000000000E+00 0. -1.
<scales pt_clust_5="13000.00000" pt_clust_6="13000.00000" pt_clust_7="13000.00000" pt_clust_8="13000.00000" pt_clust_9="38.39555" pt_clust_10="21.36122"></scales>
<clustering>
<clus scale="   21.361">  2 10  1 -1</clus>
<clus scale="   38.396">  1  9  2 -1</clus>
<clus scale="   90.863">  7  8 -1 -1</clus>
<clus scale="   90.966">  5  6 -1 -1</clus>
<clus scale="  111.967">  2  7  1 -1</clus>
<clus scale="   38.396">  1  5  2 -1</clus>
</clustering>
</event>
<event>
10    2  0.1898324E-006  0.1305084E+03  0.7546771E-02  0.1229679E+00
          2   -1    0    0  502    0  0.00000000000E+00  0.00000000000E+00  0.36733727801E+03  0.36733727801E+03  0.00000000000E+00 0. -1.
         -2   -1    0    0    0  501 -0.00000000000E+00 -0.00000000000E+00 -0.16036037965E+03  0.16036037965E+03  0.00000000000E+00 0.  1.
         23    2    1    2    0    0 -0.17123206513E+02 -0.64748648226E+02 -0.20614898242E+02  0.11545319220E+03  0.91754421751E+02 0.  0.
         23    2    1    2    0    0  0.11138312143E+02  0.98424995005E+02 -0.62418838166E+01  0.14228249141E+03  0.10195001034E+03 0.  0.
        -11    1    3    3    0    0 -0.25854670551E+02 -0.43078365542E+01 -0.43043860223E+02  0.50396382291E+02  0.00000000000E+00 0.  1.
         11    1    3    3    0    0  0.87314640380E+01 -0.60440811672E+02  0.22428961982E+02  0.65056809907E+02  0.00000000000E+00 0. -1.
        -13    1    4    4    0    0  0.38305011262E+02 -0.16342005464E+01  0.95153677826E+00  0.38351661260E+02  0.00000000000E+00 0. -1.
         13    1    4    4    0    0 -0.27166699119E+02  0.10005919555E+03 -0.71934205948E+01  0.10393083015E+03  0.00000000000E+00 0.  1.
         21    1    1    2  502  503  0.25363280470E+02 -0.24497437068E+02  0.24378565313E+03  0.24632268489E+03  0.00000000000E+00 0. -1.
         21    1    1    2  503  501 -0.19378386100E+02 -0.91789097112E+01 -0.99519727050E+01  0.23639289161E+02  0.00000000000E+00 0.  1.
<scales pt_clust_5="13000.00000" pt_clust_6="13000.00000" pt_clust_7="13000.00000" pt_clust_8="13000.00000" pt_clust_9="35.19580" pt_clust_10="21.44235"></scales>
<clustering>
<clus scale="   21.442">  2 10  1 -1</clus>
<clus scale="   35.196">  1  9  2 -1</clus>
<clus scale="   91.754">  5  6 -1 -1</clus>
<clus scale="  101.950">  7  8 -1 -1</clus>
<clus scale="  122.709">  2  5  1 -1</clus>
<clus scale="   35.196">  1  5  2 -1</clus>
</clustering>
</event>
<event>
10    2  0.1898324E-006  0.9367172E+02  0.7546771E-02  0.1294410E+00
          1   -1    0    0  502    0  0.00000000000E+00  0.00000000000E+00  0.79335230596E+03  0.79335230596E+03  0.00000000000E+00 0. -1.
         -1   -1    0    0    0  501 -0.00000000000E+00 -0.00000000000E+00 -0.28806145480E+02  0.28806145480E+02  0.00000000000E+00 0.  1.
         23    2    1    2    0    0 -0.62495679455E+01 -0.14011617108E+02  0.14272772099E+03  0.17071691241E+03  0.92399563480E+02 0.  0.
         23    2    1    2    0    0  0.45455736382E+02 -0.22277426063E+02  0.34232016096E+03  0.35806927372E+03  0.92021761045E+02 0.  0.
        -13    1    3    3    0    0 -0.37922102297E+02 -0.13749395111E+02  0.13078867018E+03  0.13686784851E+03  0.00000000000E+00 0.  1.
         13    1    3    3    0    0  0.31672534351E+02 -0.26222199638E+00  0.11939050805E+02  0.33849063897E+02  0.00000000000E+00 0. -1.
        -13    1    4    4    0    0  0.70840296058E+02 -0.29134974227E+02  0.21995104391E+03  0.23290696852E+03  0.00000000000E+00 0. -1.
         13    1    4    4    0    0 -0.25384559677E+02  0.68575481640E+01  0.12236911705E+03  0.12516230520E+03  0.00000000000E+00 0.  1.
         21    1    1    2  502  503 -0.53294513118E+02  0.17685428746E+02  0.24737084907E+03  0.25366398343E+03  0.00000000000E+00 0.  1.
         21    1    1    2  503  501  0.14088344682E+02  0.18603614424E+02  0.32127429460E+02  0.39708281873E+02  0.00000000000E+00 0. -1.
<scales pt_clust_5="13000.00000" pt_clust_6="13000.00000" pt_clust_7="13000.00000" pt_clust_8="13000.00000" pt_clust_9="55.27730" pt_clust_10="23.33615"></scales>
<clustering>
<clus scale="   23.336">  2 10  1 -1</clus>
<clus scale="   55.277">  1  9  2 -1</clus>
<clus scale="   92.022">  7  8 -1 -1</clus>
<clus scale="   92.400">  5  6 -1 -1</clus>
<clus scale="   93.299">  1  7  2 -1</clus>
<clus scale="   55.277">  1  5  2 -1</clus>
</clustering>
</event>
<event>
10    2  0.1898324E-006  0.1017788E+03  0.7546771E-02  0.1276716E+00
         -3   -1    0    0    0  501 -0.00000000000E+00  0.00000000000E+00  0.39166294821E+03  0.39166294821E+03  0.00000000000E+00 0.  1.
          3   -1    0    0  502    0  0.00000000000E+00 -0.00000000000E+00 -0.98514569713E+02  0.98514569713E+02  0.00000000000E+00 0. -1.
         23    2    1    2    0    0 -0.29115425928E+02 -0.51972462533E+02  0.13890823739E+03  0.17757171509E+03  0.93206065778E+02 0.  0.
         23    2    1    2    0    0  0.40117475311E+02 -0.19010506197E+02 -0.34164046298E+01  0.10351903109E+03  0.93454303304E+02 0.  0.
        -13    1    4    4    0    0 -0.17891350705E+02  0.10846830124E+02 -0.26989237219E+02  0.34149276412E+02  0.00000000000E+00 0.  1.
         13    1    4    4    0    0  0.58008826016E+02 -0.29857336321E+02  0.23572832589E+02  0.69369754679E+02  0.00000000000E+00 0. -1.
        -13    1    3    3    0    0 -0.34519874364E+02  0.30212005668E+01  0.10975319696E+03  0.11509349948E+03  0.00000000000E+00 0.  1.
         13    1    3    3    0    0  0.54044484359E+01 -0.54993663100E+02  0.29155040428E+02  0.62478215615E+02  0.00000000000E+00 0. -1.
         21    1    1    2  502  503 -0.85688478770E+00  0.35725252920E+02 -0.10283683787E+02  0.37185778195E+02  0.00000000000E+00 0.  1.
         21    1    1    2  503  501 -0.10145164595E+02  0.35257715810E+02  0.16794022952E+03  0.17190099354E+03  0.00000000000E+00 0.  1.
<scales pt_clust_5="13000.00000" pt_clust_6="13000.00000" pt_clust_7="13000.00000" pt_clust_8="13000.00000" pt_clust_9="35.73553" pt_clust_10="37.60455"></scales>
<clustering>
<clus scale="   35.736">  2  9  1 -1</clus>
<clus scale="   37.605">  1 10  2 -1</clus>
<clus scale="   93.206">  7  8 -1 -1</clus>
<clus scale="   93.454">  5  6 -1 -1</clus>
<clus scale="  101.551">  1  7  2 -1</clus>
<clus scale="   35.736">  2  5  1 -1</clus>
</clustering>
</event>
<event>
10    2  0.1898324E-006  0.1763933E+03  0.7546771E-02  0.1185230E+00
         -2   -1    0    0    0  501 -0.00000000000E+00  0.00000000000E+00  0.17609324430E+03  0.17609324430E+03  0.00000000000E+00 0.  1.
          2   -1    0    0  502    0  0.00000000000E+00 -0.00000000000E+00 -0.78107077113E+03  0.78107077113E+03  0.00000000000E+00 0. -1.
         23    2    1    2    0    0 -0.72836655233E+02  0.84442637653E+01 -0.11341300099E+02  0.11747856841E+03  0.91082956752E+02 0.  0.
         23    2    1    2    0    0  0.32508008499E+02  0.20706348952E+03 -0.81103580068E+02  0.24590573758E+03  0.99798706242E+02 0.  0.
        -13    1    4    4    0    0  0.18047330711E+01  0.42187142972E+02 -0.64881802274E+02  0.77412275253E+02  0.00000000000E+00 0. -1.
         13    1    4    4    0    0  0.30703275428E+02  0.16487634655E+03 -0.16221777794E+02  0.16849346233E+03  0.00000000000E+00 0.  1.
        -13    1    3    3    0    0 -0.46949496164E+02 -0.39694443745E+02 -0.12808778113E+02  0.62801025876E+02  0.00000000000E+00 0.  1.
         13    1    3    3    0    0 -0.25887159069E+02  0.48138707510E+02  0.14674780140E+01  0.54677542530E+02  0.00000000000E+00 0. -1.
         21    1    1    2  502  503  0.80377611690E+02 -0.11858871789E+03 -0.44869287137E+03  0.47100863824E+03  0.00000000000E+00 0. -1.
         21    1    1    2  503  501 -0.40048964957E+02 -0.96919035392E+02 -0.63839775288E+02  0.12277107120E+03  0.00000000000E+00 0.  1.
<scales pt_clust_5="13000.00000" pt_clust_6="13000.00000" pt_clust_7="13000.00000" pt_clust_8="13000.00000" pt_clust_9="145.44690" pt_clust_10="104.86763"></scales>
<clustering>
<clus scale="   91.083">  7  8 -1 -1</clus>
<clus scale="   99.799">  5  6 -1 -1</clus>
<clus scale="  104.868">  1 10  2 -1</clus>
<clus scale="  128.966">  1  7  2 -1</clus>
<clus scale="  145.447">  2  9  1 -1</clus>
<clus scale="  145.447">  2  5  1 -1</clus>
</clustering>
</event>
<event>
10    2  0.1898324E-006  0.1778929E+03  0.7546771E-02  0.1170480E+00
          2   -1    0    0  502    0  0.00000000000E+00  0.00000000000E+00  0.98200349884E+03  0.98200349884E+03  0.00000000000E+00 0. -1.
         -2   -1    0    0    0  501 -0.00000000000E+00 -0.00000000000E+00 -0.94668544791E+02  0.94668544791E+02  0.00000000000E+00 0.  1.
         23    2    1    2    0    0 -0.31115659914E+02  0.16628269591E+03  0.38412258290E+03  0.42907354835E+03  0.89083286630E+02 0.  0.
         23    2    1    2    0    0  0.10113424286E+01 -0.13863937265E+03  0.51609947385E+03  0.54259031785E+03  0.93934485964E+02 0.  0.
        -11    1    4    4    0    0 -0.23902284146E+02 -0.13795830164E+03  0.46684864345E+03  0.48739251951E+03  0.00000000000E+00 0. -1.
         11    1    4    4    0    0  0.24913626575E+02 -0.68107100749E+00  0.49250830400E+02  0.55197798343E+02  0.00000000000E+00 0.  1.
        -13    1    3    3    0    0 -0.54645466478E+02  0.15282719500E+03  0.30594288009E+03  0.34632834770E+03  0.00000000000E+00 0.  1.
         13    1    3    3    0    0  0.23529806565E+02  0.13455500906E+02  0.78179702803E+02  0.82745200658E+02  0.00000000000E+00 0. -1.
         21    1    1    2  502  503  0.24455135137E+02 -0.19840246460E+01  0.39443656490E+02  0.46452040059E+02  0.00000000000E+00 0. -1.
         21    1    1    2  503  501  0.56491823488E+01 -0.25659298609E+02 -0.52330759187E+02  0.58556137368E+02  0.00000000000E+00 0.  1.
<scales pt_clust_5="13000.00000" pt_clust_6="13000.00000" pt_clust_7="13000.00000" pt_clust_8="13000.00000" pt_clust_9="24.53548" pt_clust_10="26.29777"></scales>
<clustering>
<clus scale="   24.535">  1  9  2 -1</clus>
<clus scale="   26.298">  2 10  1 -1</clus>
<clus scale="   89.083">  7  8 -1 -1</clus>
<clus scale="   93.934">  5  6 -1 -1</clus>
<clus scale="  175.380">  2  7  1 -1</clus>
<clus scale="   24.535">  1  5  2 -1</clus>
</clustering>
</event>
<event>
10    2  0.1898324E-006  0.1295662E+03  0.7546771E-02  0.1241351E+00
          2   -1    0    0  502    0  0.00000000000E+00  0.00000000000E+00  0.88152759255E+03  0.88152759255E+03  0.00000000000E+00 0. -1.
         -2   -1    0    0    0  501 -0.00000000000E+00 -0.00000000000E+00 -0.36356454151E+03  0.36356454151E+03  0.00000000000E+00 0.  1.
         23    2    1    2    0    0  0.70203429469E+02  0.63943109140E+02  0.20944632655E+03  0.24708528951E+03  0.90366663475E+02 0.  0.
         23    2    1    2    0    0 -0.37194639938E+02  0.54300039276E+00  0.22079839794E+03  0.24188047194E+03  0.91490404320E+02 0.  0.
        -11    1    3    3    0    0  0.18896939286E+01  0.31997698426E+02  0.95644587655E+01  0.33450000287E+02  0.00000000000E+00 0.  1.
         11    1    3    3    0    0  0.68313735540E+02  0.31945410714E+02  0.19988186779E+03  0.21363528922E+03  0.00000000000E+00 0. -1.
        -13    1    4    4    0    0  0.10222577791E+02 -0.36373815107E+02  0.10143719425E+03  0.10824536896E+03  0.00000000000E+00 0. -1.
         13    1    4    4    0    0 -0.47417217729E+02  0.36916815500E+02  0.11936120368E+03  0.13363510298E+03  0.00000000000E+00 0.  1.
         21    1    1    2  502  503 -0.15412851851E+03 -0.10571250700E+03  0.38748147943E+03  0.43020068719E+03  0.00000000000E+00 0.  1.
         21    1    1    2  503  501  0.12111972898E+03  0.41226397466E+02 -0.29976315289E+03  0.32592568543E+03  0.00000000000E+00 0.  1.
<scales pt_clust_5="13000.00000" pt_clust_6="13000.00000" pt_clust_7="13000.00000" pt_clust_8="13000.00000" pt_clust_9="13000.00000" pt_clust_10="129.56623"></scales>
<clustering>
<clus scale="   90.367">  5  6 -1 -1</clus>
<clus scale="   91.490">  7  8 -1 -1</clus>
<clus scale="   98.764">  1  7  2 -1</clus>
<clus scale="  124.679">  1  5  2 -1</clus>
<clus scale="  129.566">  2 10  1 -1</clus>
<clus scale="   98.764">  1  5  2 -1</clus>
</clustering>
</event>
<event>
10    2  0.1898324E-006  0.1538349E+03  0.7546771E-02  0.1195855E+00
         -1   -1    0    0    0  501 -0.00000000000E+00  0.00000000000E+00  0.39030679928E+03  0.39030679928E+03  0.00000000000E+00 0.  1.
          1   -1    0    0  502    0  0.00000000000E+00 -0.00000000000E+00 -0.21847590612E+03  0.21847590612E+03  0.00000000000E+00 0. -1.
         23    2    1    2    0    0 -0.96206145057E+02  0.16260867018E+03  0.18704856456E+02  0.21074754024E+03  0.91473778207E+02 0.  0.
         23    2    1    2    0    0  0.96245267138E+02 -0.31920571746E+02 -0.13451875237E+02  0.13716112126E+03  0.91379132696E+02 0.  0.
        -11    1    4    4    0    0  0.30888983843E+02 -0.30573517593E+02 -0.46722656830E+02  0.63811252629E+02  0.00000000000E+00 0. -1.
         11    1    4    4    0    0  0.65356283295E+02 -0.13470541538E+01  0.33270781593E+02  0.73349868636E+02  0.00000000000E+00 0.  1.
        -13    1    3    3    0    0 -0.29462451924E+01  0.82648851904E+02  0.28593404044E+02  0.87504833218E+02  0.00000000000E+00 0.  1.
         13    1    3    3    0    0 -0.93259899865E+02  0.79959818273E+02 -0.98885475875E+01  0.12324270702E+03  0.00000000000E+00 0. -1.
         21    1    1    2  502  503  0.23004311065E+01 -0.10695893659E+03  0.15707015254E+02  0.10813055271E+03  0.00000000000E+00 0.  1.
         21    1    1    2  503  501 -0.23395531869E+01 -0.23729161836E+02  0.15087089669E+03  0.15274349118E+03  0.00000000000E+00 0.  1.
<scales pt_clust_5="13000.00000" pt_clust_6="13000.00000" pt_clust_7="13000.00000" pt_clust_8="13000.00000" pt_clust_9="113.13212" pt_clust_10="23.84422"></scales>
<clustering>
<clus scale="   23.844">  1 10  2 -1</clus>
<clus scale="   91.379">  5  6 -1 -1</clus>
<clus scale="   91.474">  7  8 -1 -1</clus>
<clus scale="  113.132">  1  9  2 -1</clus>
<clus scale="  153.779">  2  5  1 -1</clus>
<clus scale="  153.779">  2  5  1 -1</clus>
</clustering>
</event>
<event>
10    2  0.1898324E-006  0.1117745E+03  0.7546771E-02  0.1257771E+00
         -4   -1    0    0    0  501 -0.00000000000E+00  0.00000000000E+00  0.54540298031E+02  0.54540298031E+02  0.00000000000E+00 0.  1.
          4   -1    0    0  502    0  0.00000000000E+00 -0.00000000000E+00 -0.53211615489E+03  0.53211615489E+03  0.00000000000E+00 0. -1.
         23    2    1    2    0    0  0.29747152641E+02  0.74009135862E+02 -0.11733467906E+03  0.16844326527E+03  0.90793509820E+02 0.  0.
         23    2    1    2    0    0 -0.24076643100E+02 -0.63136515973E+02 -0.21354498895E+03  0.24214050314E+03  0.92003568196E+02 0.  0.
        -11    1    3    3    0    0  0.46788462287E+02  0.10968931070E+02 -0.21917055678E+02  0.52818888493E+02  0.00000000000E+00 0.  1.
         11    1    3    3    0    0 -0.17041309646E+02  0.63040204792E+02 -0.95417623380E+02  0.11562437678E+03  0.00000000000E+00 0. -1.
        -11    1    4    4    0    0 -0.49198454652E+02 -0.32986596037E+02 -0.18318447159E+03  0.19252312612E+03  0.00000000000E+00 0. -1.
         11    1    4    4    0    0  0.25121811552E+02 -0.30149919936E+02 -0.30360517360E+02  0.49617377017E+02  0.00000000000E+00 0.  1.
         21    1    1    2  502  503  0.28089478581E+01  0.30718395538E+02 -0.12431914807E+03  0.12808887770E+03  0.00000000000E+00 0.  1.
         21    1    1    2  503  501 -0.84794573989E+01 -0.41591015428E+02 -0.22377040774E+02  0.47983806809E+02  0.00000000000E+00 0. -1.
<scales pt_clust_5="13000.00000" pt_clust_6="13000.00000" pt_clust_7="13000.00000" pt_clust_8="13000.00000" pt_clust_9="30.84656" pt_clust_10="39.79035"></scales>
<clustering>
<clus scale="   30.847">  2  9  1 -1</clus>
<clus scale="   39.790">  1 10  2 -1</clus>
<clus scale="   90.794">  5  6 -1 -1</clus>
<clus scale="   92.004">  7  8 -1 -1</clus>
<clus scale="  110.781">  1  5  2 -1</clus>
<clus scale="   30.847">  2  5  1 -1</clus>
</clustering>
</event>
<event>
10    2  0.1898324E-006  0.9903124E+02  0.7546771E-02  0.1285239E+00
         -3   -1    0    0    0  501 -0.00000000000E+00  0.00000000000E+00  0.55594616142E+03  0.55594616142E+03  0.00000000000E+00 0.  1.
          3   -1    0    0  502    0  0.00000000000E+00 -0.00000000000E+00 -0.17481294501E+03  0.17481294501E+03  0.00000000000E+00 0. -1.
         23    2    1    2    0    0 -0.24352855599E+02 -0.11030295262E+02  0.48440465859E+03  0.49511230252E+03  0.98861467982E+02 0.  0.
         23    2    1    2    0    0  0.12443185783E+02 -0.18390169232E+02 -0.87382327892E+02  0.12994459809E+03  0.93578288868E+02 0.  0.
        -11    1    4    4    0    0  0.77616549442E+01 -0.56657618214E+02 -0.46048340591E+02  0.73421922206E+02  0.00000000000E+00 0.  1.
         11    1    4    4    0    0  0.46815308391E+01  0.38267448983E+02 -0.41333987301E+02  0.56522675882E+02  0.00000000000E+00 0. -1.
        -13    1    3    3    0    0  0.28042362658E+01  0.42229156012E+02  0.18216463454E+03  0.18701636141E+03  0.00000000000E+00 0. -1.
         13    1    3    3    0    0 -0.27157091865E+02 -0.53259451273E+02  0.30224002405E+03  0.30809594111E+03  0.00000000000E+00 0.  1.
         21    1    1    2  502  503 -0.85768900037E+01  0.21649642301E+02 -0.55637824960E+02  0.60314489306E+02  0.00000000000E+00 0. -1.
         21    1    1    2  503  501  0.20486559819E+02  0.77708221918E+01  0.39748710674E+02  0.45387716522E+02  0.00000000000E+00 0.  1.
<scales pt_clust_5="13000.00000" pt_clust_6="13000.00000" pt_clust_7="13000.00000" pt_clust_8="13000.00000" pt_clust_9="23.28544" pt_clust_10="21.91084"></scales>
<clustering>
<clus scale="   21.911">  1 10  2 -1</clus>
<clus scale="   23.285">  2  9  1 -1</clus>
<clus scale="   93.578">  5  6 -1 -1</clus>
<clus scale="   93.758">  2  5  1 -1</clus>
<clus scale="   98.861">  7  8 -1 -1</clus>
<clus scale="   23.285">  2  5  1 -1</clus>
</clustering>
</event>
<event>
10    2  0.1898324E-006  0.1500911E+03  0.7546771E-02  0.1208454E+00
          1   -1    0    0  502    0  0.00000000000E+00  0.00000000000E+00  0.63065840520E+03  0.63065840520E+03  0.00000000000E+00 0. -1.
         -1   -1    0    0    0  501 -0.00000000000E+00 -0.00000000000E+00 -0.11624931143E+03  0.11624931143E+03  0.00000000000E+00 0.  1.
         23    2    1    2    0    0  0.81766941254E+02  0.62725152255E+02  0.82609802884E+02  0.15856098159E+03  0.87732137460E+02 0.  0.
         23    2    1    2    0    0 -0.26864190746E+02 -0.54277387630E+02  0.30150505072E+03  0.33000804890E+03  0.11971757256E+03 0.  0.
        -11    1    4    4    0    0  0.14672064866E+02 -0.81040949529E+02  0.15703210806E+03  0.17731888774E+03  0.00000000000E+00 0. -1.
         11    1    4    4    0    0 -0.41536255611E+02  0.26763561899E+02  0.14447294266E+03  0.15268916117E+03  0.00000000000E+00 0.  1.
        -13    1    3    3    0    0  0.29909753341E+02  0.53104151970E+02  0.86342803840E+02  0.10568691535E+03  0.00000000000E+00 0.  1.
         13    1    3    3    0    0  0.51857187913E+02  0.96210002855E+01 -0.37330009558E+01  0.52874066242E+02  0.00000000000E+00 0. -1.
         21    1    1    2  502  503 -0.74965583817E+02  0.12006324253E+02  0.18312490474E+03  0.19823905094E+03  0.00000000000E+00 0. -1.
         21    1    1    2  503  501  0.20062833309E+02 -0.20454088878E+02 -0.52830664568E+02  0.60099635198E+02  0.00000000000E+00 0.  1.
<scales pt_clust_5="13000.00000" pt_clust_6="13000.00000" pt_clust_7="13000.00000" pt_clust_8="13000.00000" pt_clust_9="73.03963" pt_clust_10="28.65113"></scales>
<clustering>
<clus scale="   28.651">  2 10  1 -1</clus>
<clus scale="   73.040">  1  9  2 -1</clus>
<clus scale="   87.732">  7  8 -1 -1</clus>
<clus scale="  119.718">  5  6 -1 -1</clus>
<clus scale="  126.063">  2  7  1 -1</clus>
<clus scale="   73.040">  1  5  2 -1</clus>
</clustering>
</event>
<event>
10    2  0.1898324E-006  0.1156884E+03  0.7546771E-02  0.1251154E+00
         -1   -1    0    0    0  501 -0.00000000000E+00  0.00000000000E+00  0.97166548103E+02  0.97166548103E+02  0.00000000000E+00 0.  1.
          1   -1    0    0  502    0  0.00000000000E+00 -0.00000000000E+00 -0.31009897619E+03  0.31009897619E+03  0.00000000000E+00 0. -1.
         23    2    1    2    0    0  0.45511537238E+02 -0.47214466739E+02 -0.37459225262E+02  0.11995774825E+03  0.93199581100E+02 0.  0.
         23    2    1    2    0    0 -0.69416717605E+02  0.25567917966E+02 -0.61626191462E+02  0.13248105802E+03  0.91000242573E+02 0.  0.
        -11    1    3    3    0    0  0.17228103371E+02 -0.26928027522E+02  0.30132501502E+02  0.43930557233E+02  0.00000000000E+00 0.  1.
         11    1    3    3    0    0  0.28283433866E+02 -0.20286439216E+02 -0.67591726764E+02  0.76027191019E+02  0.00000000000E+00 0. -1.
        -11    1    4    4    0    0 -0.57127509496E+02  0.52938368868E+02 -0.66091918817E+02  0.10214776049E+03  0.00000000000E+00 0.  1.
         11    1    4    4    0    0 -0.12289208108E+02 -0.27370450902E+02  0.44657273545E+01  0.30333297534E+02  0.00000000000E+00 0. -1.
         21    1    1    2  502  503 -0.13641540285E+02 -0.14964138287E+02 -0.97961153728E+02  0.10003201835E+03  0.00000000000E+00 0.  1.
         21    1    1    2  503  501  0.37546720652E+02  0.36610687060E+02 -0.15885857633E+02  0.54794699666E+02  0.00000000000E+00 0.  1.
<scales pt_clust_5="13000.00000" pt_clust_6="13000.00000" pt_clust_7="13000.00000" pt_clust_8="13000.00000" pt_clust_9="20.24888" pt_clust_10="49.05782"></scales>
<clustering>
<clus scale="   20.249">  2  9  1 -1</clus>
<clus scale="   49.058">  1 10  2 -1</clus>
<clus scale="   91.000">  7  8 -1 -1</clus>
<clus scale="   93.200">  5  6 -1 -1</clus>
<clus scale="  113.924">  2  7  1 -1</clus>
<clus scale="   20.249">  2  5  1 -1</clus>
</clustering>
</event>
<event>
10    2  0.1898324E-006  0.2422067E+03  0.7546771E-02  0.1140643E+00
         -2   -1    0    0    0  501 -0.00000000000E+00  0.00000000000E+00  0.44636493563E+03  0.44636493563E+03  0.00000000000E+00 0.  1.
          2   -1    0    0  502    0  0.00000000000E+00 -0.00000000000E+00 -0.71934590507E+03  0.71934590507E+03  0.00000000000E+00 0. -1.
         23    2    1    2    0    0  0.53519279028E+02  0.44774262775E+02  0.31848984781E+03  0.33834694388E+03  0.90409199965E+02 0.  0.
         23    2    1    2    0    0 -0.24242769210E+03  0.14179431584E+02 -0.42796023583E+03  0.50038689476E+03  0.90911158913E+02 0.  0.
        -13    1    3    3    0    0  0.47865427949E+02 -0.12143389046E+02  0.88434902095E+02  0.10128816811E+03  0.00000000000E+00 0.  1.
         13    1    3    3    0    0  0.56538510790E+01  0.56917651821E+02  0.23005494572E+03  0.23705877577E+03  0.00000000000E+00 0. -1.
        -13    1    4    4    0    0 -0.22990387804E+03  0.35880406663E+02 -0.36788322150E+03  0.43529445365E+03  0.00000000000E+00 0. -1.
         13    1    4    4    0    0 -0.12523814063E+02 -0.21700975079E+02 -0.60077014330E+02  0.65092441104E+02  0.00000000000E+00 0.  1.
         21    1    1    2  502  503  0.18137760126E+03 -0.11488634612E+03 -0.16458865380E+03  0.27052935464E+03  0.00000000000E+00 0.  1.
         21    1    1    2  503  501  0.75308118210E+01  0.55932651762E+02  0.10780723764E+01  0.56447647426E+02  0.00000000000E+00 0. -1.
<scales pt_clust_5="13000.00000" pt_clust_6="13000.00000" pt_clust_7="13000.00000" pt_clust_8="13000.00000" pt_clust_9="224.49777" pt_clust_10="56.43735"></scales>
<clustering>
<clus scale="   56.437">  1 10  2 -1</clus>
<clus scale="   90.409">  5  6 -1 -1</clus>
<clus scale="   90.911">  7  8 -1 -1</clus>
<clus scale="  139.949">  1  5  2 -1</clus>
<clus scale="  224.498">  1  9  2 -1</clus>
<clus scale="  242.207">  2  5  1 -1</clus>
</clustering>
</event>
<event>
10    2  0.1898324E-006  0.1098876E+03  0.7546771E-02  0.1261710E+00
          2   -1    0    0  502    0  0.00000000000E+00  0.00000000000E+00  0.32771620694E+03  0.32771620694E+03  0.00000000000E+00 0. -1.
         -2   -1    0    0    0  501 -0.00000000000E+00 -0.00000000000E+00 -0.26168426115E+03  0.26168426115E+03  0.00000000000E+00 0.  1.
         23    2    1    2    0    0  0.40693668458E+02 -0.83587817112E+02 -0.15541302801E+03  0.20183790082E+03  0.89120318179E+02 0.  0.
         23    2    1    2    0    0 -0.44745819300E+02  0.51642586864E+02  0.20405546949E+03  0.23384519235E+03  0.91519365344E+02 0.  0.
        -11    1    4    4    0    0 -0.11306121528E+02  0.73417352707E+02  0.13029184871E+03  0.14997967163E+03  0.00000000000E+00 0. -1.
         11    1    4    4    0    0 -0.33439697771E+02 -0.21774765843E+02  0.73763620782E+02  0.83865520719E+02  0.00000000000E+00 0.  1.
        -11    1    3    3    0    0  0.60636068881E+02 -0.37882566416E+02 -0.56723817093E+02  0.91265618462E+02  0.00000000000E+00 0. -1.
         11    1    3    3    0    0 -0.19942400422E+02 -0.45705250696E+02 -0.98689210915E+02  0.11057228236E+03  0.00000000000E+00 0.  1.
         21    1    1    2  502  503  0.21521916976E+02  0.48446994569E+00  0.79266162912E+02  0.82137398329E+02  0.00000000000E+00 0. -1.
         21    1    1    2  503  501 -0.17469766135E+02  0.31460760302E+02 -0.61876658612E+02  0.71579976589E+02  0.00000000000E+00 0.  1.
<scales pt_clust_5="13000.00000" pt_clust_6="13000.00000" pt_clust_7="13000.00000" pt_clust_8="13000.00000" pt_clust_9="21.52737" pt_clust_10="35.79078"></scales>
<clustering>
<clus scale="   21.527">  1  9  2 -1</clus>
<clus scale="   35.791">  2 10  1 -1</clus>
<clus scale="   89.120">  7  8 -1 -1</clus>
<clus scale="   91.519">  5  6 -1 -1</clus>
<clus scale="  107.898">  2  7  1 -1</clus>
<clus scale="   21.527">  1  5  2 -1</clus>
</clustering>
</event>
<event>
10    2  0.1898324E-006  0.9827863E+02  0.7546771E-02  0.1286332E+00
         -1   -1    0    0    0  501 -0.00000000000E+00  0.00000000000E+00  0.32239174428E+03  0.32239174428E+03  0.00000000000E+00 0.  1.
          1   -1    0    0  502    0  0.00000000000E+00 -0.00000000000E+00 -0.91422607917E+02  0.91422607917E+02  0.00000000000E+00 0. -1.
         23    2    1    2    0    0  0.30776919006E+02  0.45792705039E+02  0.18829418296E+03  0.21680732662E+03  0.92230835207E+02 0.  0.
         23    2    1    2    0    0 -0.11024618439E+02  0.23989879638E+02 -0.11570729159E+01  0.10016348829E+03  0.96614331401E+02 0.  0.
        -11    1    3    3    0    0  0.34366482638E+02 -0.17471888711E+02  0.10700522969E+03  0.11373847724E+03  0.00000000000E+00 0.  1.
         11    1    3    3    0    0 -0.35895636317E+01  0.63264593750E+02  0.81288953268E+02  0.10306884938E+03  0.00000000000E+00 0. -1.
        -11    1    4    4    0    0  0.26346947299E+02  0.70157247563E+01  0.35752998191E+02  0.44962861403E+02  0.00000000000E+00 0.  1.
         11    1    4    4    0    0 -0.37371565739E+02  0.16974154882E+02 -0.36910071107E+02  0.55200626888E+02  0.00000000000E+00 0. -1.
         21    1    1    2  502  503  0.64813113884E+01 -0.40269086390E+02  0.43747629976E+01  0.41021278226E+02  0.00000000000E+00 0.  1.
         21    1    1    2  503  501 -0.26233611955E+02 -0.29513498287E+02  0.39457263322E+02  0.55822259057E+02  0.00000000000E+00 0.  1.
<scales pt_clust_5="13000.00000" pt_clust_6="13000.00000" pt_clust_7="13000.00000" pt_clust_8="13000.00000" pt_clust_9="42.92462" pt_clust_10="39.48733"></scales>
<clustering>
<clus scale="   39.487">  1 10  2 -1</clus>
<clus scale="   42.925">  2  9  1 -1</clus>
<clus scale="   92.231">  5  6 -1 -1</clus>
<clus scale="   93.973">  1  5  2 -1</clus>
<clus scale="   96.614">  7  8 -1 -1</clus>
<clus scale="   42.925">  2  5  1 -1</clus>
</clustering>
</event>
<event>
10    2  0.1898324E-006  0.1094809E+03  0.7546771E-02  0.1264242E+00
          1   -1    0    0  502    0  0.00000000000E+00  0.00000000000E+00  0.17171380475E+03  0.17171380475E+03  0.00000000000E+00 0. -1.
         -1   -1    0    0    0  501 -0.00000000000E+00 -0.00000000000E+00 -0.15844249273E+03  0.15844249273E+03  0.00000000000E+00 0.  1.
         23    2    1    2    0    0  0.26810126110E+02 -0.43971714501E+02  0.13848061710E+02  0.10124384935E+03  0.86059593770E+02 0.  0.
         23    2    1    2    0    0 -0.39361011599E+01  0.65982629303E+02  0.62901115475E+02  0.13014152924E+03  0.92795835268E+02 0.  0.
        -13    1    3    3    0    0  0.44712900567E+02 -0.14378974412E+01 -0.14568616222E+02  0.47048438920E+02  0.00000000000E+00 0.  1.
         13    1    3    3    0    0 -0.17902774457E+02 -0.42533817060E+02  0.28416677932E+02  0.54195410430E+02  0.00000000000E+00 0. -1.
        -13    1    4    4    0    0  0.26489187848E+02  0.76052573452E+02  0.53710632949E+02  0.96801358944E+02  0.00000000000E+00 0.  1.
         13    1    4    4    0    0 -0.30425289008E+02 -0.10069944149E+02  0.91904825266E+01  0.33340170298E+02  0.00000000000E+00 0. -1.
         21    1    1    2  502  503 -0.26192834640E+02  0.32724225619E+01  0.39424881449E+01  0.26689259051E+02  0.00000000000E+00 0. -1.
         21    1    1    2  503  501  0.33188096896E+01 -0.25283337363E+02 -0.67420353304E+02  0.72081659843E+02  0.00000000000E+00 0. -1.
<scales pt_clust_5="13000.00000" pt_clust_6="13000.00000" pt_clust_7="13000.00000" pt_clust_8="13000.00000" pt_clust_9="25.76726" pt_clust_10="25.50023"></scales>
<clustering>
<clus scale="   25.500">  2 10  1 -1</clus>
<clus scale="   25.767">  2  9  1 -1</clus>
<clus scale="   86.060">  5  6 -1 -1</clus>
<clus scale="   92.796">  7  8 -1 -1</clus>
<clus scale="  103.833">  2  5  1 -1</clus>
<clus scale="  109.481">  1  5  2 -1</clus>
</clustering>
</event>
<event>
10    2  0.1898324E-006  0.9170824E+02  0.7546771E-02  0.1300285E+00
          1   -1    0    0  502    0  0.00000000000E+00  0.00000000000E+00  0.36978381872E+03  0.36978381872E+03  0.00000000000E+00 0. -1.
         -1   -1    0    0    0  501 -0.00000000000E+00 -0.00000000000E+00 -0.66542049364E+02  0.66542049364E+02  0.00000000000E+00 0.  1.
         23    2    1    2    0    0 -0.32097853675E+01 -0.17207445822E+01  0.10094054731E+02  0.88499117645E+02  0.87846116585E+02 0.  0.
         23    2    1    2    0    0  0.94935502660E+01  0.69647498966E+02  0.19313220124E+03  0.22453510998E+03  0.90416076282E+02 0.  0.
        -11    1    4    4    0    0 -0.40278868176E+02  0.39014452100E+02  0.93499965311E+02  0.10902641060E+03  0.00000000000E+00 0.  1.
         11    1    4    4    0    0  0.49772418442E+02  0.30633046867E+02  0.99632235925E+02  0.11550869938E+03  0.00000000000E+00 0. -1.
        -11    1    3    3    0    0 -0.39722363244E+02 -0.22608314851E+02  0.78460247444E+01  0.46374153862E+02  0.00000000000E+00 0.  1.
         11    1    3    3    0    0  0.36512577876E+02  0.20887570269E+02  0.22480299861E+01  0.42124963783E+02  0.00000000000E+00 0. -1.
         21    1    1    2  502  503  0.82753620983E+01 -0.36981921424E+02  0.52655414601E+02  0.64874777971E+02  0.00000000000E+00 0.  1.
         21    1    1    2  503  501 -0.14559126997E+02 -0.30944832960E+02  0.47360098792E+02  0.58416862492E+02  0.00000000000E+00 0.  1.
<scales pt_clust_5="13000.00000" pt_clust_6="13000.00000" pt_clust_7="13000.00000" pt_clust_8="13000.00000" pt_clust_9="72.09525" pt_clust_10="22.16067"></scales>
<clustering>
<clus scale="   22.161">  9 10 -1 -1</clus>
<clus scale="   72.095">  1  9  2 -1</clus>
<clus scale="   87.846">  7  8 -1 -1</clus>
<clus scale="   89.176">  2  7  1 -1</clus>
<clus scale="   90.416">  5  6 -1 -1</clus>
<clus scale="   72.095">  1  5  2 -1</clus>
</clustering>
</event>
<event>
10    2  0.1898324E-006  0.1082008E+03  0.7546771E-02  0.1264506E+00
         -1   -1    0    0    0  501 -0.00000000000E+00  0.00000000000E+00  0.17579500253E+03  0.17579500253E+03  0.00000000000E+00 0.  1.
          1   -1    0    0  502    0  0.00000000000E+00 -0.00000000000E+00 -0.77110852095E+03  0.77110852095E+03  0.00000000000E+00 0. -1.
         23    2    1    2    0    0 -0.36584832016E+02 -0.30454377301E+02  0.24561559888E+02  0.10559941884E+03  0.91005758082E+02 0.  0.
         23    2    1    2    0    0  0.41127973791E+02  0.40421301154E+02 -0.24129678959E+03  0.26474181646E+03  0.92405069674E+02 0.  0.
        -11    1    4    4    0    0 -0.24335460229E+02 -0.99335863297E+01 -0.61665604439E+02  0.67033853633E+02  0.00000000000E+00 0. -1.
         11    1    4    4    0    0  0.65463434021E+02  0.50354887484E+02 -0.17963118515E+03  0.19770796283E+03  0.00000000000E+00 0.  1.
        -13    1    3    3    0    0  0.19129018527E+02 -0.24632700140E+02  0.36823198244E+02  0.48255955020E+02  0.00000000000E+00 0.  1.
         13    1    3    3    0    0 -0.55713850543E+02 -0.58216771616E+01 -0.12261638356E+02  0.57343463817E+02  0.00000000000E+00 0. -1.
         21    1    1    2  502  503 -0.63426189447E+02  0.28414142016E+02 -0.46215916292E+03  0.46735568558E+03  0.00000000000E+00 0. -1.
         21    1    1    2  503  501  0.58883047672E+02 -0.38381065869E+02  0.83580874205E+02  0.10920660261E+03  0.00000000000E+00 0.  1.
<scales pt_clust_5="13000.00000" pt_clust_6="13000.00000" pt_clust_7="13000.00000" pt_clust_8="13000.00000" pt_clust_9="69.49996" pt_clust_10="67.41767"></scales>
<clustering>
<clus scale="   69.500">  2  9  1 -1</clus>
<clus scale="   67.418">  1 10  2 -1</clus>
<clus scale="   91.006">  7  8 -1 -1</clus>
<clus scale="   92.405">  5  6 -1 -1</clus>
<clus scale="  107.008">  1  7  2 -1</clus>
<clus scale="   69.500">  2  5  1 -1</clus>
</clustering>
</event>
<event>
10    2  0.1898324E-006  0.2686934E+03  0.7546771E-02  0.1102088E+00
          2   -1    0    0  502    0  0.00000000000E+00  0.00000000000E+00  0.47081525579E+03  0.47081525579E+03  0.00000000000E+00 0. -1.
         -2   -1    0    0    0  501 -0.00000000000E+00 -0.00000000000E+00 -0.47202826579E+03  0.47202826579E+03  0.00000000000E+00 0.  1.
         23    2    1    2    0    0 -0.28844689504E+03  0.83570993596E+02 -0.27020644535E+03  0.41398466091E+03  0.90476815428E+02 0.  0.
         23    2    1    2    0    0  0.15757594763E+03 -0.48168626806E+02  0.17025283522E+03  0.25319316959E+03  0.89276857844E+02 0.  0.
        -13    1    3    3    0    0 -0.15189954271E+03  0.89938478620E+02 -0.16283848073E+03  0.24016405189E+03  0.00000000000E+00 0.  1.
         13    1    3    3    0    0 -0.13654735234E+03 -0.63674850241E+01 -0.10736796461E+03  0.17382060902E+03  0.00000000000E+00 0. -1.
        -13    1    4    4    0    0  0.60363126150E+02  0.25120338242E+02  0.66158024708E+02  0.93014099067E+02  0.00000000000E+00 0.  1.
         13    1    4    4    0    0  0.97212821478E+02 -0.73288965048E+02  0.10409481051E+03  0.16017907052E+03  0.00000000000E+00 0. -1.
         21    1    1    2  502  503  0.97414098136E+02 -0.59707675332E+02  0.16311644037E+03  0.19915191721E+03  0.00000000000E+00 0. -1.
         21    1    1    2  503  501  0.33456849279E+02  0.24305308542E+02 -0.64375840235E+02  0.76513773877E+02  0.00000000000E+00 0.  1.
<scales pt_clust_5="13000.00000" pt_clust_6="13000.00000" pt_clust_7="13000.00000" pt_clust_8="13000.00000" pt_clust_9="114.97908" pt_clust_10="41.35346"></scales>
<clustering>
<clus scale="   41.353">  2 10  1 -1</clus>
<clus scale="   89.277">  7  8 -1 -1</clus>
<clus scale="   90.477">  5  6 -1 -1</clus>
<clus scale="  114.979">  1  9  2 -1</clus>
<clus scale="  268.292">  1  7  2 -1</clus>
<clus scale="  114.979">  1  5  2 -1</clus>
</clustering>
</event>
<event>
10    2  0.1898324E-006  0.1152848E+03  0.7546771E-02  0.1251646E+00
          1   -1    0    0  502    0  0.00000000000E+00  0.00000000000E+00  0.93936713139E+02  0.93936713139E+02  0.00000000000E+00 0. -1.
         -1   -1    0    0    0  501 -0.00000000000E+00 -0.00000000000E+00 -0.60042900735E+03  0.60042900735E+03  0.00000000000E+00 0.  1.
         23    2    1    2    0    0  0.51801502816E+02 -0.51058457836E+02 -0.20629349776E+03  0.23638086676E+03  0.89602149184E+02 0.  0.
         23    2    1    2    0    0 -0.83994496674E+02 -0.54917471503E+02 -0.15275227165E+02  0.13430860324E+03  0.87945802583E+02 0.  0.
        -13    1    3    3    0    0  0.19223294821E+02 -0.40543902257E+02 -0.19535644404E+03  0.20044321715E+03  0.00000000000E+00 0.  1.
         13    1    3    3    0    0  0.32578207994E+02 -0.10514555579E+02 -0.10937053727E+02  0.35937649608E+02  0.00000000000E+00 0. -1.
        -13    1    4    4    0    0 -0.43860665602E+02  0.19694571405E+02  0.74907247168E+00  0.48085291300E+02  0.00000000000E+00 0.  1.
         13    1    4    4    0    0 -0.40133831073E+02 -0.74612042907E+02 -0.16024299636E+02  0.86223311942E+02  0.00000000000E+00 0. -1.
         21    1    1    2  502  503  0.10707679673E+02  0.23596163744E+02  0.40708408391E+00  0.25915228436E+02  0.00000000000E+00 0. -1.
         21    1    1    2  503  501  0.21485314186E+02  0.82379765595E+02 -0.28533065337E+03  0.29776102206E+03  0.00000000000E+00 0.  1.
<scales pt_clust_5="13000.00000" pt_clust_6="13000.00000" pt_clust_7="13000.00000" pt_clust_8="13000.00000" pt_clust_9="25.91203" pt_clust_10="87.10084"></scales>
<clustering>
<clus scale="   25.912">  1  9  2 -1</clus>
<clus scale="   87.101">  2 10  1 -1</clus>
<clus scale="   87.946">  7  8 -1 -1</clus>
<clus scale="   89.602">  5  6 -1 -1</clus>
<clus scale="  114.002">  1  7  2 -1</clus>
<clus scale="   25.912">  1  5  2 -1</clus>
</clustering>
</event>
<event>
10    2  0.1898324E-006  0.1138684E+03  0.7546771E-02  0.1254256E+00
         -1   -1    0    0    0  501 -0.00000000000E+00  0.00000000000E+00  0.18037598846E+03  0.18037598846E+03  0.00000000000E+00 0.  1.
          1   -1    0    0  502    0  0.00000000000E+00 -0.00000000000E+00 -0.17547789174E+03  0.17547789174E+03  0.00000000000E+00 0. -1.
         23    2    1    2    0    0  0.33949131693E+02 -0.55257208026E+02  0.21118956969E+02  0.11341148630E+03  0.90610442551E+02 0.  0.
         23    2    1    2    0    0  0.21941307631E+02  0.84499587657E+02 -0.50387354987E+02  0.13424687148E+03  0.88666429182E+02 0.  0.
        -11    1    3    3    0    0  0.25972751186E+02  0.11593973725E+02  0.34558147176E+02  0.44757899495E+02  0.00000000000E+00 0.  1.
         11    1    3    3    0    0  0.79763805068E+01 -0.66851181751E+02 -0.13439190207E+02  0.68653586803E+02  0.00000000000E+00 0. -1.
        -13    1    4    4    0    0  0.46797804809E+02  0.13627543291E+02 -0.13522651343E+02  0.50582670654E+02  0.00000000000E+00 0.  1.
         13    1    4    4    0    0 -0.24856497178E+02  0.70872044366E+02 -0.36864703644E+02  0.83664200823E+02  0.00000000000E+00 0. -1.
         21    1    1    2  502  503 -0.11990652500E+02 -0.17466426222E+02 -0.25523294296E+02  0.33170624716E+02  0.00000000000E+00 0.  1.
         21    1    1    2  503  501 -0.43899786824E+02 -0.11775953409E+02  0.59689789028E+02  0.75024897708E+02  0.00000000000E+00 0.  1.
<scales pt_clust_5="13000.00000" pt_clust_6="13000.00000" pt_clust_7="13000.00000" pt_clust_8="13000.00000" pt_clust_9="21.18612" pt_clust_10="46.30253"></scales>
<clustering>
<clus scale="   21.186">  2  9  1 -1</clus>
<clus scale="   46.303">  1 10  2 -1</clus>
<clus scale="   88.666">  7  8 -1 -1</clus>
<clus scale="   90.610">  5  6 -1 -1</clus>
<clus scale="  112.328">  2  7  1 -1</clus>
<clus scale="   21.186">  2  5  1 -1</clus>
</clustering>
</event>
<event>
10    2  0.1898324E-006  0.1714392E+03  0.7546771E-02  0.1176763E+00
         -1   -1    0    0    0  501 -0.00000000000E+00  0.00000000000E+00  0.90589296411E+02  0.90589296411E+02  0.00000000000E+00 0.  1.
          1   -1    0    0  502    0  0.00000000000E+00 -0.00000000000E+00 -0.68725153867E+03  0.68725153867E+03  0.00000000000E+00 0. -1.
         23    2    1    2    0    0  0.12332395371E+03 -0.13194976224E+03 -0.17877557615E+03  0.27021451416E+03  0.91845738728E+02 0.  0.
         23    2    1    2    0    0 -0.82204235506E+02  0.81218742296E+02 -0.35094123013E+03  0.38142733111E+03  0.94726139338E+02 0.  0.
        -11    1    3    3    0    0  0.78832223637E+02 -0.97517962474E+02 -0.17299105688E+03  0.21365902333E+03  0.00000000000E+00 0. -1.
         11    1    3    3    0    0  0.44491730074E+02 -0.34431799765E+02 -0.57845192647E+01  0.56555490831E+02  0.00000000000E+00 0.  1.
        -11    1    4    4    0    0 -0.25606998829E+02 -0.97975419747E+01 -0.21061362574E+02  0.34572983834E+02  0.00000000000E+00 0.  1.
         11    1    4    4    0    0 -0.56597236678E+02  0.91016284271E+02 -0.32987986756E+03  0.34685434727E+03  0.00000000000E+00 0. -1.
         21    1    1    2  502  503 -0.24361530384E+02  0.94244521777E+01 -0.76303574393E+02  0.80650727998E+02  0.00000000000E+00 0. -1.
         21    1    1    2  503  501 -0.16758187820E+02  0.41306567764E+02  0.93581384164E+01  0.45548261812E+02  0.00000000000E+00 0.  1.
<scales pt_clust_5="13000.00000" pt_clust_6="13000.00000" pt_clust_7="13000.00000" pt_clust_8="13000.00000" pt_clust_9="26.12096" pt_clust_10="45.11191"></scales>
<clustering>
<clus scale="   26.121">  2  9  1 -1</clus>
<clus scale="   45.112">  1 10  2 -1</clus>
<clus scale="   91.846">  5  6 -1 -1</clus>
<clus scale="   94.726">  7  8 -1 -1</clus>
<clus scale="  169.865">  1  5  2 -1</clus>
<clus scale="   26.121">  2  5  1 -1</clus>
</clustering>
</event>
<event>
10    2  0.1898324E-006  0.1636096E+03  0.7546771E-02  0.1184736E+00
         -1   -1    0    0    0  501 -0.00000000000E+00  0.00000000000E+00  0.45852008074E+02  0.45852008074E+02  0.00000000000E+00 0.  1.
          1   -1    0    0  502    0  0.00000000000E+00 -0.00000000000E+00 -0.13843186532E+04  0.13843186532E+04  0.00000000000E+00 0. -1.
         23    2    1    2    0    0  0.14396778717E+03  0.35194542713E+02 -0.27184403365E+03  0.32270683574E+03  0.90967816402E+02 0.  0.
         23    2    1    2    0    0 -0.11861852262E+03 -0.10366131778E+02 -0.81781041673E+03  0.83138473694E+03  0.90602938737E+02 0.  0.
        -11    1    3    3    0    0  0.11778496960E+03  0.21851802142E+02 -0.26737165744E+03  0.29298191672E+03  0.00000000000E+00 0. -1.
         11    1    3    3    0    0  0.26182817568E+02  0.13342740571E+02 -0.44723762097E+01  0.29724919019E+02  0.00000000000E+00 0.  1.
        -13    1    4    4    0    0 -0.44922084162E+02 -0.48559720019E+02 -0.39551686166E+03  0.40101075785E+03  0.00000000000E+00 0. -1.
         13    1    4    4    0    0 -0.73696438463E+02  0.38193588241E+02 -0.42229355507E+03  0.43037397909E+03  0.00000000000E+00 0.  1.
         21    1    1    2  502  503 -0.98888084449E+01 -0.48778566038E+02 -0.24160119016E+03  0.24667442536E+03  0.00000000000E+00 0.  1.
         21    1    1    2  503  501 -0.15460456098E+02  0.23950155103E+02 -0.72110045618E+01  0.29404663219E+02  0.00000000000E+00 0.  1.
<scales pt_clust_5="13000.00000" pt_clust_6="13000.00000" pt_clust_7="13000.00000" pt_clust_8="13000.00000" pt_clust_9="48.30375" pt_clust_10="28.50676"></scales>
<clustering>
<clus scale="   28.507">  1 10  2 -1</clus>
<clus scale="   48.304">  2  9  1 -1</clus>
<clus scale="   90.603">  7  8 -1 -1</clus>
<clus scale="   90.968">  5  6 -1 -1</clus>
<clus scale="  163.407">  2  7  1 -1</clus>
<clus scale="   48.304">  2  5  1 -1</clus>
</clustering>
</event>
<event>
10    2  0.1898324E-006  0.2427739E+03  0.7546771E-02  0.1151109E+00
          2   -1    0    0  502    0  0.00000000000E+00  0.00000000000E+00  0.94049943484E+03  0.94049943484E+03  0.00000000000E+00 0. -1.
         -2   -1    0    0    0  501 -0.00000000000E+00 -0.00000000000E+00 -0.31564277902E+03  0.31564277902E+03  0.00000000000E+00 0.  1.
         23    2    1    2    0    0 -0.10428572043E+03  0.93126018932E+02 -0.13261576800E+03  0.21028143065E+03  0.84162766512E+02 0.  0.
         23    2    1    2    0    0 -0.20996165385E+02 -0.60798142238E+02  0.36625334711E+03  0.38191538450E+03  0.87066604304E+02 0.  0.
        -11    1    3    3    0    0 -0.27848066410E+02 -0.16615250718E+01  0.29554395575E+01  0.28053700136E+02  0.00000000000E+00 0. -1.
         11    1    3    3    0    0 -0.76437654016E+02  0.94787544004E+02 -0.13557120755E+03  0.18222773051E+03  0.00000000000E+00 0.  1.
        -11    1    4    4    0    0  0.14918983292E+01 -0.74514243239E+02  0.32114141421E+03  0.32967621408E+03  0.00000000000E+00 0. -1.
         11    1    4    4    0    0 -0.22488063714E+02  0.13716101001E+02  0.45111932900E+02  0.52239170421E+02  0.00000000000E+00 0.  1.
         21    1    1    2  502  503  0.24234157747E+03 -0.55563958137E+02  0.46238642042E+03  0.52499332891E+03  0.00000000000E+00 0. -1.
         21    1    1    2  503  501 -0.11705969166E+03  0.23236081443E+02 -0.71167343720E+02  0.13895206981E+03  0.00000000000E+00 0.  1.
<scales pt_clust_5="13000.00000" pt_clust_6="13000.00000" pt_clust_7="13000.00000" pt_clust_8="13000.00000" pt_clust_9="227.71862" pt_clust_10="119.92819"></scales>
<clustering>
<clus scale="   84.163">  5  6 -1 -1</clus>
<clus scale="   87.067">  7  8 -1 -1</clus>
<clus scale="  108.249">  1  7  2 -1</clus>
<clus scale="  119.928">  2 10  1 -1</clus>
<clus scale="  227.719">  1  9  2 -1</clus>
<clus scale="  108.249">  1  5  2 -1</clus>
</clustering>
</event>
<event>
10    2  0.1898324E-006  0.1280456E+03  0.7546771E-02  0.1230598E+00
         -2   -1    0    0    0  501 -0.00000000000E+00  0.00000000000E+00  0.63780787520E+03  0.63780787520E+03  0.00000000000E+00 0.  1.
          2   -1    0    0  502    0  0.00000000000E+00 -0.00000000000E+00 -0.10251520413E+03  0.10251520413E+03  0.00000000000E+00 0. -1.
         23    2    1    2    0    0 -0.86730711101E+02  0.50212432321E+02  0.42573681530E+03  0.44661010271E+03  0.90361735959E+02 0.  0.
         23    2    1    2    0    0  0.81528846784E+02  0.25073164610E+02 -0.24838776952E+02  0.12615066652E+03  0.89562321222E+02 0.  0.
        -11    1    3    3    0    0 -0.87326954774E+02  0.71085947981E+02  0.33200222404E+03  0.35057764589E+03  0.00000000000E+00 0.  1.
         11    1    3    3    0    0  0.59624367274E+00 -0.20873515660E+02  0.93734591263E+02  0.96032456814E+02  0.00000000000E+00 0. -1.
        -13    1    4    4    0    0  0.34340352492E+02  0.56139625895E+02 -0.22695745524E+02  0.69613319629E+02  0.00000000000E+00 0. -1.
         13    1    4    4    0    0  0.47188494292E+02 -0.31066461285E+02 -0.21430314278E+01  0.56537346896E+02  0.00000000000E+00 0.  1.
         21    1    1    2  502  503  0.12092398353E+02 -0.23482085277E+02  0.35285908073E+01  0.26647427267E+02  0.00000000000E+00 0. -1.
         21    1    1    2  503  501 -0.68905340364E+01 -0.51803511655E+02  0.13086604191E+03  0.14091488284E+03  0.00000000000E+00 0.  1.
<scales pt_clust_5="13000.00000" pt_clust_6="13000.00000" pt_clust_7="13000.00000" pt_clust_8="13000.00000" pt_clust_9="26.41277" pt_clust_10="53.46402"></scales>
<clustering>
<clus scale="   26.413">  2  9  1 -1</clus>
<clus scale="   53.464">  1 10  2 -1</clus>
<clus scale="   89.562">  7  8 -1 -1</clus>
<clus scale="   90.362">  5  6 -1 -1</clus>
<clus scale="  127.483">  2  7  1 -1</clus>
<clus scale="   26.413">  2  5  1 -1</clus>
</clustering>
</event>
<event>
10    2  0.1898324E-006  0.3083191E+03  0.7546771E-02  0.1108936E+00
          2   -1    0    0  502    0  0.00000000000E+00  0.00000000000E+00  0.11363109301E+03  0.11363109301E+03  0.00000000000E+00 0. -1.
         -2   -1    0    0    0  501 -0.00000000000E+00 -0.00000000000E+00 -0.18383031930E+04  0.18383031930E+04  0.00000000000E+00 0.  1.
         23    2    1    2    0    0  0.32405586533E+03  0.14976336826E+03 -0.67379602162E+03  0.76767961643E+03  0.88823670300E+02 0.  0.
         23    2    1    2    0    0 -0.11233878455E+03  0.12245869856E+02 -0.94271813420E+02  0.17471609789E+03  0.94173118322E+02 0.  0.
        -13    1    3    3    0    0  0.27338824121E+03  0.15608744831E+03 -0.60501531757E+03  0.68201756316E+03  0.00000000000E+00 0.  1.
         13    1    3    3    0    0  0.50667624122E+02 -0.63240800494E+01 -0.68780704042E+02  0.85662053274E+02  0.00000000000E+00 0. -1.
        -13    1    4    4    0    0 -0.57779666558E+02 -0.40635645620E+02 -0.52483851118E+02  0.88001705612E+02  0.00000000000E+00 0. -1.
         13    1    4    4    0    0 -0.54559117993E+02  0.52881515476E+02 -0.41787962301E+02  0.86714392280E+02  0.00000000000E+00 0.  1.
         21    1    1    2  502  503 -0.18730536630E+03 -0.19219431318E+03 -0.69402846532E+03  0.74410850348E+03  0.00000000000E+00 0. -1.
         21    1    1    2  503  501 -0.24411714479E+02  0.30185075060E+02 -0.26257579963E+03  0.26543006822E+03  0.00000000000E+00 0.  1.
<scales pt_clust_5="13000.00000" pt_clust_6="13000.00000" pt_clust_7="13000.00000" pt_clust_8="13000.00000" pt_clust_9="295.24737" pt_clust_10="38.82101"></scales>
<clustering>
<clus scale="   38.821">  2 10  1 -1</clus>
<clus scale="   88.824">  5  6 -1 -1</clus>
<clus scale="   94.173">  7  8 -1 -1</clus>
<clus scale="  148.934">  1  7  2 -1</clus>
<clus scale="  295.247">  2  9  1 -1</clus>
<clus scale="  148.934">  1  5  2 -1</clus>
</clustering>
</event>
<event>
10    2  0.1898324E-006  0.2833022E+03  0.7546771E-02  0.1094009E+00
          1   -1    0    0  502    0  0.00000000000E+00  0.00000000000E+00  0.60713972309E+03  0.60713972309E+03  0.00000000000E+00 0. -1.
         -1   -1    0    0    0  501 -0.00000000000E+00 -0.00000000000E+00 -0.20029929040E+03  0.20029929040E+03  0.00000000000E+00 0.  1.
         23    2    1    2    0    0 -0.26427991392E+03 -0.15539512099E+02  0.12810810925E+03  0.30763856387E+03  0.90246600975E+02 0.  0.
         23    2    1    2    0    0  0.26889036528E+03 -0.25648922242E+02  0.21291853976E+03  0.35493085888E+03  0.87645389256E+02 0.  0.
        -11    1    4    4    0    0  0.13229776926E+03 -0.16929207238E+02  0.50707367181E+02  0.14269034619E+03  0.00000000000E+00 0.  1.
         11    1    4    4    0    0  0.13659259602E+03 -0.87197150040E+01  0.16221117258E+03  0.21224051268E+03  0.00000000000E+00 0. -1.
        -13    1    3    3    0    0 -0.12548462707E+03 -0.51169845022E+02  0.74490776751E+02  0.15464029388E+03  0.00000000000E+00 0. -1.
         13    1    3    3    0    0 -0.13879528685E+03  0.35630332923E+02  0.53617332501E+02  0.15299826999E+03  0.00000000000E+00 0.  1.
         21    1    1    2  502  503  0.20099825578E+02  0.19743553754E+02  0.96185737037E+02  0.10022727629E+03  0.00000000000E+00 0.  1.
         21    1    1    2  503  501 -0.24710276934E+02  0.21444880587E+02 -0.30371953349E+02  0.44642314454E+02  0.00000000000E+00 0.  1.
<scales pt_clust_5="13000.00000" pt_clust_6="13000.00000" pt_clust_7="13000.00000" pt_clust_8="13000.00000" pt_clust_9="28.17465" pt_clust_10="32.68917"></scales>
<clustering>
<clus scale="   28.175">  1  9  2 -1</clus>
<clus scale="   32.689">  2 10  1 -1</clus>
<clus scale="   87.645">  5  6 -1 -1</clus>
<clus scale="   90.247">  7  8 -1 -1</clus>
<clus scale="  282.484">  1  5  2 -1</clus>
<clus scale="   28.175">  1  5  2 -1</clus>
</clustering>
</event>
<event>
10    2  0.1898324E-006  0.2991246E+03  0.7546771E-02  0.1085693E+00
         -1   -1    0    0    0  501 -0.00000000000E+00  0.00000000000E+00  0.22483267922E+03  0.22483267922E+03  0.00000000000E+00 0.  1.
          1   -1    0    0  502    0  0.00000000000E+00 -0.00000000000E+00 -0.75366693499E+03  0.75366693499E+03  0.00000000000E+00 0. -1.
         23    2    1    2    0    0 -0.10723147231E+03  0.27240660526E+03 -0.12973432479E+03  0.33313564942E+03  0.91893517954E+02 0.  0.
         23    2    1    2    0    0  0.83932247860E+02 -0.23751017331E+03 -0.37218757752E+03  0.45864592750E+03  0.91524801547E+02 0.  0.
        -11    1    4    4    0    0  0.87660717444E+01 -0.23943440895E+02 -0.10680781654E+03  0.10980911642E+03  0.00000000000E+00 0.  1.
         11    1    4    4    0    0  0.75166176115E+02 -0.21356673242E+03 -0.26537976098E+03  0.34883681108E+03  0.00000000000E+00 0. -1.
        -13    1    3    3    0    0  0.15570816457E+02  0.40397321583E+02 -0.28255801402E+02  0.51698977060E+02  0.00000000000E+00 0. -1.
         13    1    3    3    0    0 -0.12280228877E+03  0.23200928368E+03 -0.10147852338E+03  0.28143667236E+03  0.00000000000E+00 0.  1.
         21    1    1    2  502  503  0.44580747353E+02 -0.58997395419E+02 -0.89655598878E+02  0.11621644510E+03  0.00000000000E+00 0. -1.
         21    1    1    2  503  501 -0.21281522898E+02  0.24100963472E+02  0.62743245409E+02  0.70501592192E+02  0.00000000000E+00 0.  1.
<scales pt_clust_5="13000.00000" pt_clust_6="13000.00000" pt_clust_7="13000.00000" pt_clust_8="13000.00000" pt_clust_9="71.25608" pt_clust_10="32.15213"></scales>
<clustering>
<clus scale="   32.152">  1 10  2 -1</clus>
<clus scale="   71.256">  2  9  1 -1</clus>
<clus scale="   91.525">  5  6 -1 -1</clus>
<clus scale="   91.894">  7  8 -1 -1</clus>
<clus scale="  299.012">  2  5  1 -1</clus>
<clus scale="   71.256">  2  5  1 -1</clus>
</clustering>
</event>
<event>
10    2  0.1898324E-006  0.1174948E+03  0.7546771E-02  0.1247887E+00
          2   -1    0    0  502    0  0.00000000000E+00  0.00000000000E+00  0.10678251441E+04  0.10678251441E+04  0.00000000000E+00 0. -1.
         -2   -1    0    0    0  501 -0.00000000000E+00 -0.00000000000E+00 -0.40640717971E+02  0.40640717971E+02  0.00000000000E+00 0.  1.
         23    2    1    2    0    0  0.37720129668E+02  0.40922704703E+02  0.11974117615E+03  0.16162216582E+03  0.93200318004E+02 0.  0.
         23    2    1    2    0    0 -0.93550451279E+02 -0.17261153813E+01  0.40566856270E+03  0.42623932838E+03  0.91423825580E+02 0.  0.
        -11    1    4    4    0    0 -0.18886901706E+02 -0.41936044502E+02  0.14632211242E+03  0.15338027079E+03  0.00000000000E+00 0.  1.
         11    1    4    4    0    0 -0.74663549573E+02  0.40209929120E+02  0.25934645028E+03  0.27285905759E+03  0.00000000000E+00 0. -1.
        -11    1    3    3    0    0  0.50531632564E+02 -0.12358639009E+02  0.43988368717E+02  0.68126048103E+02  0.00000000000E+00 0.  1.
         11    1    3    3    0    0 -0.12811502896E+02  0.53281343712E+02  0.75752807431E+02  0.93496117715E+02  0.00000000000E+00 0. -1.
         21    1    1    2  502  503  0.36161562360E+02 -0.62158879944E+02  0.47439635937E+03  0.47981589254E+03  0.00000000000E+00 0. -1.
         21    1    1    2  503  501  0.19668759251E+02  0.22962290622E+02  0.27378327906E+02  0.40788475333E+02  0.00000000000E+00 0.  1.
<scales pt_clust_5="13000.00000" pt_clust_6="13000.00000" pt_clust_7="13000.00000" pt_clust_8="13000.00000" pt_clust_9="71.15377" pt_clust_10="30.23453"></scales>
<clustering>
<clus scale="   30.235">  2 10  1 -1</clus>
<clus scale="   71.154">  1  9  2 -1</clus>
<clus scale="   91.424">  5  6 -1 -1</clus>
<clus scale="   93.200">  7  8 -1 -1</clus>
<clus scale="  116.091">  1  5  2 -1</clus>
<clus scale="   71.154">  1  5  2 -1</clus>
</clustering>
</event>
<event>
10    2  0.1898324E-006  0.1276311E+03  0.7546771E-02  0.1231372E+00
         -2   -1    0    0    0  501 -0.00000000000E+00  0.00000000000E+00  0.10570732465E+03  0.10570732465E+03  0.00000000000E+00 0.  1.
          2   -1    0    0  502    0  0.00000000000E+00 -0.00000000000E+00 -0.35996220625E+03  0.35996220625E+03  0.00000000000E+00 0. -1.
         23    2    1    2    0    0  0.60542926290E+02 -0.27782312192E+02 -0.20344284915E+02  0.11644505165E+03  0.93318043970E+02 0.  0.
         23    2    1    2    0    0 -0.78087344032E+02  0.85715790775E+02 -0.18028907724E+03  0.23327753869E+03  0.92029498516E+02 0.  0.
        -11    1    4    4    0    0 -0.76835626593E+02  0.32196178674E+02 -0.15048521787E+03  0.17200612847E+03  0.00000000000E+00 0. -1.
         11    1    4    4    0    0 -0.12517174389E+01  0.53519612101E+02 -0.29803859368E+02  0.61271410211E+02  0.00000000000E+00 0.  1.
        -13    1    3    3    0    0  0.32909411224E+02  0.15250142475E+01 -0.54466103310E+02  0.63654626111E+02  0.00000000000E+00 0. -1.
         13    1    3    3    0    0  0.27633515066E+02 -0.29307326440E+02  0.34121818395E+02  0.52790425538E+02  0.00000000000E+00 0.  1.
         21    1    1    2  502  503  0.53278166402E+01 -0.36889409032E+02 -0.74874953897E+02  0.83638943381E+02  0.00000000000E+00 0. -1.
         21    1    1    2  503  501  0.12216601101E+02 -0.21044069551E+02  0.21253434454E+02  0.32307997181E+02  0.00000000000E+00 0.  1.
<scales pt_clust_5="13000.00000" pt_clust_6="13000.00000" pt_clust_7="13000.00000" pt_clust_8="13000.00000" pt_clust_9="38.52878" pt_clust_10="24.33307"></scales>
<clustering>
<clus scale="   24.333">  1 10  2 -1</clus>
<clus scale="   38.529">  2  9  1 -1</clus>
<clus scale="   92.029">  5  6 -1 -1</clus>
<clus scale="   93.318">  7  8 -1 -1</clus>
<clus scale="  126.692">  2  5  1 -1</clus>
<clus scale="   38.529">  2  5  1 -1</clus>
</clustering>
</event>
<event>
10    2  0.1898324E-006  0.2498611E+03  0.7546771E-02  0.1113490E+00
          1   -1    0    0  502    0  0.00000000000E+00  0.00000000000E+00  0.32496140385E+03  0.32496140385E+03  0.00000000000E+00 0. -1.
         -1   -1    0    0    0  501 -0.00000000000E+00 -0.00000000000E+00 -0.56818107592E+03  0.56818107592E+03  0.00000000000E+00 0.  1.
         23    2    1    2    0    0 -0.12276473452E+03 -0.13005318460E+03 -0.36712539017E+03  0.41793729892E+03  0.88913007216E+02 0.  0.
         23    2    1    2    0    0  0.17058485874E+03  0.15900419213E+03  0.98848196508E+02  0.26900766234E+03  0.90623558196E+02 0.  0.
        -11    1    3    3    0    0 -0.12846451568E+03 -0.10795721160E+03 -0.35363745573E+03  0.39142986781E+03  0.00000000000E+00 0.  1.
         11    1    3    3    0    0  0.56997811602E+01 -0.22095973002E+02 -0.13487934448E+02  0.26507431106E+02  0.00000000000E+00 0. -1.
        -13    1    4    4    0    0  0.45982760462E+02  0.10447326091E+03  0.47217779833E+02  0.12352568655E+03  0.00000000000E+00 0.  1.
         13    1    4    4    0    0  0.12460209828E+03  0.54530931217E+02  0.51630416675E+02  0.14548197579E+03  0.00000000000E+00 0. -1.
         21    1    1    2  502  503  0.27764230987E+02 -0.58567639732E+01  0.95931365239E+02  0.10003989726E+03  0.00000000000E+00 0.  1.
         21    1    1    2  503  501 -0.75584355207E+02 -0.23094243554E+02 -0.70873843639E+02  0.10615762125E+03  0.00000000000E+00 0. -1.
<scales pt_clust_5="13000.00000" pt_clust_6="13000.00000" pt_clust_7="13000.00000" pt_clust_8="13000.00000" pt_clust_9="28.37524" pt_clust_10="77.11036"></scales>
<clustering>
<clus scale="   28.375">  1  9  2 -1</clus>
<clus scale="   77.110">  2 10  1 -1</clus>
<clus scale="   88.913">  5  6 -1 -1</clus>
<clus scale="   90.624">  7  8 -1 -1</clus>
<clus scale="  249.246">  2  5  1 -1</clus>
<clus scale="   28.375">  1  5  2 -1</clus>
</clustering>
</event>
<event>
10    2  0.1898324E-006  0.1457823E+03  0.7546771E-02  0.1206133E+00
         -1   -1    0    0    0  501 -0.00000000000E+00  0.00000000000E+00  0.14276172444E+03  0.14276172444E+03  0.00000000000E+00 0.  1.
          1   -1    0    0  502    0  0.00000000000E+00 -0.00000000000E+00 -0.35993910469E+03  0.35993910469E+03  0.00000000000E+00 0. -1.
         23    2    1    2    0    0 -0.96989331663E+02  0.21302132653E+02  0.90610028868E+01  0.13650933516E+03  0.93230818400E+02 0.  0.
         23    2    1    2    0    0  0.99735014348E+02 -0.15237848475E+02 -0.18479186738E+03  0.22951190856E+03  0.91369671145E+02 0.  0.
        -13    1    4    4    0    0  0.11897729121E+02 -0.29320176484E+02 -0.10618422188E+03  0.11079854549E+03  0.00000000000E+00 0. -1.
         13    1    4    4    0    0  0.87837285226E+02  0.14082328008E+02 -0.78607645504E+02  0.11871336306E+03  0.00000000000E+00 0.  1.
        -13    1    3    3    0    0 -0.77488239374E+02 -0.34174589819E+01  0.44243810386E+02  0.89295134384E+02  0.00000000000E+00 0.  1.
         13    1    3    3    0    0 -0.19501092289E+02  0.24719591635E+02 -0.35182807499E+02  0.47214200772E+02  0.00000000000E+00 0. -1.
         21    1    1    2  502  503  0.25492346955E+02 -0.17767223672E+01 -0.82669389207E+02  0.86528864592E+02  0.00000000000E+00 0. -1.
         21    1    1    2  503  501 -0.28238029639E+02 -0.42875618105E+01  0.41222873455E+02  0.50150720833E+02  0.00000000000E+00 0. -1.
<scales pt_clust_5="13000.00000" pt_clust_6="13000.00000" pt_clust_7="13000.00000" pt_clust_8="13000.00000" pt_clust_9="25.55419" pt_clust_10="28.15754"></scales>
<clustering>
<clus scale="   25.554">  2  9  1 -1</clus>
<clus scale="   28.158">  1 10  2 -1</clus>
<clus scale="   91.370">  5  6 -1 -1</clus>
<clus scale="   93.231">  7  8 -1 -1</clus>
<clus scale="  144.599">  2  5  1 -1</clus>
<clus scale="   25.554">  2  5  1 -1</clus>
</clustering>
</event>
<event>
10    2  0.1898324E-006  0.2908477E+03  0.7546771E-02  0.1090313E+00
         -1   -1    0    0    0  501 -0.00000000000E+00  0.00000000000E+00  0.16569711762E+03  0.16569711762E+03  0.00000000000E+00 0.  1.
          1   -1    0    0  502    0  0.00000000000E+00 -0.00000000000E+00 -0.15851178628E+04  0.15851178628E+04  0.00000000000E+00 0. -1.
         23    2    1    2    0    0  0.10451353164E+03 -0.27455031828E+03 -0.15804341537E+03  0.34595407506E+03  0.91681761246E+02 0.  0.
         23    2    1    2    0    0  0.31622221997E+02  0.26700130879E+03 -0.28307678338E+03  0.40326502269E+03  0.10099776936E+03 0.  0.
        -11    1    3    3    0    0  0.10593637636E+03 -0.20084213978E+03 -0.85806520683E+02  0.24274027260E+03  0.00000000000E+00 0.  1.
         11    1    3    3    0    0 -0.14228447257E+01 -0.73708178498E+02 -0.72236894685E+02  0.10321380246E+03  0.00000000000E+00 0. -1.
        -13    1    4    4    0    0  0.53087428996E+02  0.90562243858E+02 -0.14061837653E+03  0.17548026370E+03  0.00000000000E+00 0.  1.
         13    1    4    4    0    0 -0.21465206999E+02  0.17643906494E+03 -0.14245840685E+03  0.22778475899E+03  0.00000000000E+00 0. -1.
         21    1    1    2  502  503 -0.14861210941E+03 -0.11116431987E+02 -0.96291437560E+03  0.97437838075E+03  0.00000000000E+00 0. -1.
         21    1    1    2  503  501  0.12476355773E+02  0.18665441470E+02 -0.15386170838E+02  0.27217501938E+02  0.00000000000E+00 0.  1.
<scales pt_clust_5="13000.00000" pt_clust_6="13000.00000" pt_clust_7="13000.00000" pt_clust_8="13000.00000" pt_clust_9="148.53237" pt_clust_10="22.45124"></scales>
<clustering>
<clus scale="   22.451">  1 10  2 -1</clus>
<clus scale="   91.682">  5  6 -1 -1</clus>
<clus scale="  100.998">  7  8 -1 -1</clus>
<clus scale="  148.532">  2  9  1 -1</clus>
<clus scale="  287.745">  1  5  2 -1</clus>
<clus scale="  148.532">  2  5  1 -1</clus>
</clustering>
</event>
<event>
10    2  0.1898324E-006  0.1170674E+03  0.7546771E-02  0.1250099E+00
          2   -1    0    0  502    0  0.00000000000E+00  0.00000000000E+00  0.84562434836E+03  0.84562434836E+03  0.00000000000E+00 0. -1.
         -2   -1    0    0    0  501 -0.00000000000E+00 -0.00000000000E+00 -0.25590928219E+03  0.25590928219E+03  0.00000000000E+00 0.  1.
         23    2    1    2    0    0 -0.66257686733E+02  0.22244038386E+02 -0.58310821809E+02  0.12957728572E+03  0.92223872937E+02 0.  0.
         23    2    1    2    0    0 -0.51335058994E+02 -0.89825906012E+02  0.45300240407E+03  0.47257160563E+03  0.86074169615E+02 0.  0.
        -11    1    3    3    0    0 -0.41571121238E+02 -0.33082593904E+02 -0.15331654306E+02  0.55296254522E+02  0.00000000000E+00 0. -1.
         11    1    3    3    0    0 -0.24686565495E+02  0.55326632290E+02 -0.42979167504E+02  0.74281031198E+02  0.00000000000E+00 0.  1.
        -11    1    4    4    0    0  0.30733568821E+01 -0.62196845213E+02  0.32315541664E+03  0.32910076934E+03  0.00000000000E+00 0.  1.
         11    1    4    4    0    0 -0.54408415876E+02 -0.27629060799E+02  0.12984698743E+03  0.14347083629E+03  0.00000000000E+00 0. -1.
         21    1    1    2  502  503  0.92535819073E+02  0.23198635187E+02  0.33610355256E+03  0.34938038372E+03  0.00000000000E+00 0. -1.
         21    1    1    2  503  501  0.25056926655E+02  0.44383232440E+02 -0.14108006865E+03  0.15000435549E+03  0.00000000000E+00 0.  1.
<scales pt_clust_5="13000.00000" pt_clust_6="13000.00000" pt_clust_7="13000.00000" pt_clust_8="13000.00000" pt_clust_9="97.53585" pt_clust_10="50.96784"></scales>
<clustering>
<clus scale="   50.968">  2 10  1 -1</clus>
<clus scale="   86.074">  7  8 -1 -1</clus>
<clus scale="   92.224">  5  6 -1 -1</clus>
<clus scale="   97.536">  1  9  2 -1</clus>
<clus scale="  112.287">  1  7  2 -1</clus>
<clus scale="   97.536">  1  5  2 -1</clus>
</clustering>
</event>
<event>
10    2  0.1898324E-006  0.1027157E+03  0.7546771E-02  0.1276258E+00
          2   -1    0    0  502    0  0.00000000000E+00  0.00000000000E+00  0.33332122997E+03  0.33332122997E+03  0.00000000000E+00 0. -1.
         -2   -1    0    0    0  501 -0.00000000000E+00 -0.00000000000E+00 -0.21921332871E+03  0.21921332871E+03  0.00000000000E+00 0.  1.
         23    2    1    2    0    0  0.68176198865E+02  0.18844149238E+02 -0.15811458241E+03  0.19455709006E+03  0.88595395306E+02 0.  0.
         23    2    1    2    0    0 -0.13295456394E+02 -0.29207781188E+02  0.65995310119E+02  0.11769084248E+03  0.92010270096E+02 0.  0.
        -11    1    4    4    0    0  0.18635194822E+02 -0.19866645365E+02 -0.14308525146E+02  0.30768294980E+02  0.00000000000E+00 0.  1.
         11    1    4    4    0    0 -0.31930651216E+02 -0.93411358238E+01  0.80303835265E+02  0.86922547499E+02  0.00000000000E+00 0. -1.
        -13    1    3    3    0    0  0.85860375998E+02  0.88151222949E+01 -0.95498146071E+02  0.12872298338E+03  0.00000000000E+00 0.  1.
         13    1    3    3    0    0 -0.17684177133E+02  0.10029026943E+02 -0.62616436336E+02  0.65834106675E+02  0.00000000000E+00 0. -1.
         21    1    1    2  502  503 -0.34746211358E+02  0.22880919461E+02  0.21187004352E+03  0.21591607402E+03  0.00000000000E+00 0. -1.
         21    1    1    2  503  501 -0.20134531113E+02 -0.12517287510E+02 -0.56428699612E+01  0.24370552131E+02  0.00000000000E+00 0.  1.
<scales pt_clust_5="13000.00000" pt_clust_6="13000.00000" pt_clust_7="13000.00000" pt_clust_8="13000.00000" pt_clust_9="41.70225" pt_clust_10="23.70827"></scales>
<clustering>
<clus scale="   23.708">  2 10  1 -1</clus>
<clus scale="   41.702">  1  9  2 -1</clus>
<clus scale="   88.595">  7  8 -1 -1</clus>
<clus scale="   92.010">  5  6 -1 -1</clus>
<clus scale="   99.668">  2  7  1 -1</clus>
<clus scale="   41.702">  1  5  2 -1</clus>
</clustering>
</event>
<event>
10    2  0.1898324E-006  0.1852534E+03  0.7546771E-02  0.1193367E+00
         -1   -1    0    0    0  501 -0.00000000000E+00  0.00000000000E+00  0.15310832488E+03  0.15310832488E+03  0.00000000000E+00 0.  1.
          1   -1    0    0  502    0  0.00000000000E+00 -0.00000000000E+00 -0.55963088885E+03  0.55963088885E+03  0.00000000000E+00 0. -1.
         23    2    1    2    0    0 -0.15422192248E+03 -0.49073213498E+02  0.34869319065E+02  0.18926076302E+03  0.91712514696E+02 0.  0.
         23    2    1    2    0    0  0.91866537087E+01  0.15835605615E+02 -0.15919368731E+03  0.18490775029E+03  0.92266380810E+02 0.  0.
        -11    1    3    3    0    0 -0.12928060998E+03 -0.38024070947E+01  0.47180737573E+01  0.12942254300E+03  0.00000000000E+00 0.  1.
         11    1    3    3    0    0 -0.24941312492E+02 -0.45270806403E+02  0.30151245308E+02  0.59838220017E+02  0.00000000000E+00 0. -1.
        -13    1    4    4    0    0 -0.35963911046E+02  0.27014312155E+02 -0.56866908969E+02  0.72505319078E+02  0.00000000000E+00 0.  1.
         13    1    4    4    0    0  0.45150564754E+02 -0.11178706540E+02 -0.10232677834E+03  0.11240243121E+03  0.00000000000E+00 0. -1.
         21    1    1    2  502  503 -0.40116321006E+01 -0.20275131751E+02 -0.74931052657E+02  0.77729253257E+02  0.00000000000E+00 0.  1.
         21    1    1    2  503  501  0.14904690087E+03  0.53512739634E+02 -0.20726714307E+03  0.26084144716E+03  0.00000000000E+00 0. -1.
<scales pt_clust_5="13000.00000" pt_clust_6="13000.00000" pt_clust_7="13000.00000" pt_clust_8="13000.00000" pt_clust_9="20.66819" pt_clust_10="160.95845"></scales>
<clustering>
<clus scale="   20.668">  2  9  1 -1</clus>
<clus scale="   91.713">  5  6 -1 -1</clus>
<clus scale="   92.266">  7  8 -1 -1</clus>
<clus scale="   92.992">  2  7  1 -1</clus>
<clus scale="  160.958">  2 10  1 -1</clus>
<clus scale="   20.668">  2  5  1 -1</clus>
</clustering>
</event>
<event>
10    2  0.1898324E-006  0.1131932E+03  0.7546771E-02  0.1257743E+00
         -1   -1    0    0    0  501 -0.00000000000E+00  0.00000000000E+00  0.61582232281E+02  0.61582232281E+02  0.00000000000E+00 0.  1.
          1   -1    0    0  502    0  0.00000000000E+00 -0.00000000000E+00 -0.69268693776E+03  0.69268693776E+03  0.00000000000E+00 0. -1.
         23    2    1    2    0    0 -0.16257399056E+01  0.24171175296E+02 -0.13951306958E+03  0.17212530438E+03  0.97858750651E+02 0.  0.
         23    2    1    2    0    0  0.42313783182E+02 -0.85146642685E+02 -0.39310404144E+03  0.41439782232E+03  0.90301499121E+02 0.  0.
        -11    1    3    3    0    0  0.15408186973E+02  0.47905277757E+02 -0.29570008178E+02  0.58367056174E+02  0.00000000000E+00 0.  1.
         11    1    3    3    0    0 -0.17033926879E+02 -0.23734102461E+02 -0.10994306140E+03  0.11375824821E+03  0.00000000000E+00 0. -1.
        -13    1    4    4    0    0  0.13079491904E+02 -0.90834863485E+02 -0.35117245840E+03  0.36296575744E+03  0.00000000000E+00 0. -1.
         13    1    4    4    0    0  0.29234291278E+02  0.56882207997E+01 -0.41931583037E+02  0.51432064885E+02  0.00000000000E+00 0.  1.
         21    1    1    2  502  503 -0.30366299010E+02  0.24339649225E+02 -0.11851178683E+03  0.12473802250E+03  0.00000000000E+00 0.  1.
         21    1    1    2  503  501 -0.10321744266E+02  0.36635818164E+02  0.20024192360E+02  0.43008020844E+02  0.00000000000E+00 0.  1.
<scales pt_clust_5="13000.00000" pt_clust_6="13000.00000" pt_clust_7="13000.00000" pt_clust_8="13000.00000" pt_clust_9="42.18563" pt_clust_10="38.06208"></scales>
<clustering>
<clus scale="   38.062">  1 10  2 -1</clus>
<clus scale="   42.186">  2  9  1 -1</clus>
<clus scale="   90.301">  7  8 -1 -1</clus>
<clus scale="   97.859">  5  6 -1 -1</clus>
<clus scale="  106.727">  2  7  1 -1</clus>
<clus scale="   42.186">  2  5  1 -1</clus>
</clustering>
</event>
<event>
10    2  0.1898324E-006  0.9862762E+02  0.7546771E-02  0.1286266E+00
          1   -1    0    0  502    0  0.00000000000E+00  0.00000000000E+00  0.49088035285E+03  0.49088035285E+03  0.00000000000E+00 0. -1.
         -1   -1    0    0    0  501 -0.00000000000E+00 -0.00000000000E+00 -0.66542945531E+02  0.66542945531E+02  0.00000000000E+00 0.  1.
         23    2    1    2    0    0 -0.21680804164E+02  0.38008466485E+02  0.14181574977E+03  0.17178044431E+03  0.86499210237E+02 0.  0.
         23    2    1    2    0    0 -0.25308611864E+02 -0.31537722675E+02  0.15305484115E+03  0.18331417265E+03  0.92429149686E+02 0.  0.
        -11    1    4    4    0    0 -0.16708859408E+02  0.24591587005E+02  0.10435272831E+03  0.10850541018E+03  0.00000000000E+00 0.  1.
         11    1    4    4    0    0 -0.85997524560E+01 -0.56129309679E+02  0.48702112841E+02  0.74808762472E+02  0.00000000000E+00 0. -1.
        -13    1    3    3    0    0  0.28888546457E+02  0.48756865424E+01  0.19079139430E+02  0.34961893499E+02  0.00000000000E+00 0.  1.
         13    1    3    3    0    0 -0.50569350620E+02  0.33132779943E+02  0.12273661034E+03  0.13681855081E+03  0.00000000000E+00 0. -1.
         21    1    1    2  502  503  0.30871961397E+02  0.99812883117E+01  0.16046423799E+03  0.16371156279E+03  0.00000000000E+00 0.  1.
         21    1    1    2  503  501  0.16117454630E+02 -0.16452032123E+02 -0.30997421596E+02  0.38617118618E+02  0.00000000000E+00 0.  1.
<scales pt_clust_5="13000.00000" pt_clust_6="13000.00000" pt_clust_7="13000.00000" pt_clust_8="13000.00000" pt_clust_9="32.98793" pt_clust_10="23.03132"></scales>
<clustering>
<clus scale="   23.031">  2 10  1 -1</clus>
<clus scale="   32.988">  1  9  2 -1</clus>
<clus scale="   86.499">  7  8 -1 -1</clus>
<clus scale="   92.429">  5  6 -1 -1</clus>
<clus scale="   93.093">  2  7  1 -1</clus>
<clus scale="   32.988">  1  5  2 -1</clus>
</clustering>
</event>
<event>
10    2  0.1898324E-006  0.1910672E+03  0.7546771E-02  0.1166166E+00
         -4   -1    0    0    0  501 -0.00000000000E+00  0.00000000000E+00  0.11037222380E+04  0.11037222380E+04  0.00000000000E+00 0.  1.
          4   -1    0    0  502    0  0.00000000000E+00 -0.00000000000E+00 -0.40764735434E+03  0.40764735434E+03  0.00000000000E+00 0. -1.
         23    2    1    2    0    0  0.72114740683E+02 -0.10775636648E+03  0.27345980091E+03  0.31652031331E+03  0.92697765259E+02 0.  0.
         23    2    1    2    0    0 -0.17502695778E+03 -0.36075775386E+02  0.75815243976E+03  0.78433976796E+03  0.91966581805E+02 0.  0.
        -13    1    4    4    0    0 -0.54360385746E+02 -0.53699274933E+02  0.23278956106E+03  0.24500947615E+03  0.00000000000E+00 0. -1.
         13    1    4    4    0    0 -0.12066657204E+03  0.17623499547E+02  0.52536287870E+03  0.53933029181E+03  0.00000000000E+00 0.  1.
        -13    1    3    3    0    0  0.69833843835E+02 -0.22940368323E+02  0.14504225646E+03  0.16260468137E+03  0.00000000000E+00 0.  1.
         13    1    3    3    0    0  0.22808968485E+01 -0.84815998161E+02  0.12841754444E+03  0.15391563194E+03  0.00000000000E+00 0. -1.
         21    1    1    2  502  503  0.42925390889E+01  0.41313710786E+02 -0.22912567202E+03  0.23286009141E+03  0.00000000000E+00 0. -1.
         21    1    1    2  503  501  0.98619678011E+02  0.10251843108E+03 -0.10641168499E+03  0.17764941966E+03  0.00000000000E+00 0. -1.
<scales pt_clust_5="13000.00000" pt_clust_6="13000.00000" pt_clust_7="13000.00000" pt_clust_8="13000.00000" pt_clust_9="41.53611" pt_clust_10="167.47783"></scales>
<clustering>
<clus scale="   41.536">  2  9  1 -1</clus>
<clus scale="   91.967">  5  6 -1 -1</clus>
<clus scale="   92.698">  7  8 -1 -1</clus>
<clus scale="  156.271">  1  7  2 -1</clus>
<clus scale="  167.478">  2 10  1 -1</clus>
<clus scale="   41.536">  2  5  1 -1</clus>
</clustering>
</event>
<event>
10    2  0.1898324E-006  0.1069252E+03  0.7546771E-02  0.1270032E+00
          1   -1    0    0  502    0  0.00000000000E+00  0.00000000000E+00  0.26629531450E+03  0.26629531450E+03  0.00000000000E+00 0. -1.
         -1   -1    0    0    0  501 -0.00000000000E+00 -0.00000000000E+00 -0.12474458634E+03  0.12474458634E+03  0.00000000000E+00 0.  1.
         23    2    1    2    0    0 -0.24359055363E+02  0.90171489229E+02  0.90920465591E+02  0.15504523319E+03  0.83953750512E+02 0.  0.
         23    2    1    2    0    0  0.37680143792E+02 -0.89369166499E+01  0.86150548408E+02  0.13222341612E+03  0.92528120394E+02 0.  0.
        -11    1    3    3    0    0 -0.45916284038E+02  0.91434671380E+02  0.83965516677E+02  0.13235865012E+03  0.00000000000E+00 0.  1.
         11    1    3    3    0    0  0.21557228675E+02 -0.12631821509E+01  0.69549489141E+01  0.22686583076E+02  0.00000000000E+00 0. -1.
        -11    1    4    4    0    0  0.19208581839E+02  0.23323237763E+02  0.89918070690E+02  0.94858855531E+02  0.00000000000E+00 0.  1.
         11    1    4    4    0    0  0.18471561953E+02 -0.32260154413E+02 -0.37675222823E+01  0.37364560587E+02  0.00000000000E+00 0. -1.
         21    1    1    2  502  503 -0.63096740622E+01 -0.51419240489E+02  0.60271558240E+01  0.52154356352E+02  0.00000000000E+00 0.  1.
         21    1    1    2  503  501 -0.70114143662E+01 -0.29815332091E+02 -0.41547441657E+02  0.51616895173E+02  0.00000000000E+00 0. -1.
<scales pt_clust_5="13000.00000" pt_clust_6="13000.00000" pt_clust_7="13000.00000" pt_clust_8="13000.00000" pt_clust_9="60.79703" pt_clust_10="30.62865"></scales>
<clustering>
<clus scale="   30.629">  2 10  1 -1</clus>
<clus scale="   60.797">  2  9  1 -1</clus>
<clus scale="   83.954">  5  6 -1 -1</clus>
<clus scale="   92.528">  7  8 -1 -1</clus>
<clus scale="   99.598">  2  5  1 -1</clus>
<clus scale="  106.925">  1  5  2 -1</clus>
</clustering>
</event>
<event>
10    2  0.1898324E-006  0.1723846E+03  0.7546771E-02  0.1176059E+00
          1   -1    0    0  502    0  0.00000000000E+00  0.00000000000E+00  0.52024538181E+03  0.52024538181E+03  0.00000000000E+00 0. -1.
         -1   -1    0    0    0  501 -0.00000000000E+00 -0.00000000000E+00 -0.28910894811E+03  0.28910894811E+03  0.00000000000E+00 0.  1.
         23    2    1    2    0    0 -0.69213100106E+02  0.23173306597E+03  0.42643667062E+02  0.26176392995E+03  0.90615702791E+02 0.  0.
         23    2    1    2    0    0  0.63619873681E+02 -0.10324646711E+03  0.30096642182E+03  0.33822335654E+03  0.95430239165E+02 0.  0.
        -11    1    4    4    0    0  0.33065703656E+02 -0.11582727045E+03  0.24962730197E+03  0.27716978051E+03  0.00000000000E+00 0.  1.
         11    1    4    4    0    0  0.30554170026E+02  0.12580803347E+02  0.51339119844E+02  0.61053576023E+02  0.00000000000E+00 0. -1.
        -11    1    3    3    0    0 -0.22937467276E+02  0.50204416591E+01 -0.81731419878E+01  0.24862270400E+02  0.00000000000E+00 0.  1.
         11    1    3    3    0    0 -0.46275632831E+02  0.22671262431E+03  0.50816809050E+02  0.23690165955E+03  0.00000000000E+00 0. -1.
         21    1    1    2  502  503  0.21619654246E+02  0.10047592351E+02  0.79290135129E+01  0.25124347097E+02  0.00000000000E+00 0. -1.
         21    1    1    2  503  501 -0.16026427821E+02 -0.13853419122E+03 -0.12040266870E+03  0.18424269634E+03  0.00000000000E+00 0.  1.
<scales pt_clust_5="13000.00000" pt_clust_6="13000.00000" pt_clust_7="13000.00000" pt_clust_8="13000.00000" pt_clust_9="23.84038" pt_clust_10="138.67418"></scales>
<clustering>
<clus scale="   23.840">  1  9  2 -1</clus>
<clus scale="   90.616">  7  8 -1 -1</clus>
<clus scale="   95.430">  5  6 -1 -1</clus>
<clus scale="  138.674">  2 10  1 -1</clus>
<clus scale="  169.767">  2  7  1 -1</clus>
<clus scale="   23.840">  1  5  2 -1</clus>
</clustering>
</event>
<event>
10    2  0.1898324E-006  0.1361042E+03  0.7546771E-02  0.1219133E+00
          1   -1    0    0  502    0  0.00000000000E+00  0.00000000000E+00  0.34878674877E+03  0.34878674877E+03  0.00000000000E+00 0. -1.
         -1   -1    0    0    0  501 -0.00000000000E+00 -0.00000000000E+00 -0.19768329067E+03  0.19768329067E+03  0.00000000000E+00 0.  1.
         23    2    1    2    0    0 -0.14957689890E+03 -0.18699659989E+02 -0.52518068427E+02  0.18351277039E+03  0.90531008037E+02 0.  0.
         23    2    1    2    0    0  0.73731244350E+02 -0.25669781246E+02  0.18882049814E+03  0.22268036136E+03  0.88533207065E+02 0.  0.
        -11    1    3    3    0    0 -0.13385879953E+03  0.18464766082E+02 -0.35444225827E+02  0.13969759820E+03  0.00000000000E+00 0.  1.
         11    1    3    3    0    0 -0.15718099372E+02 -0.37164426070E+02 -0.17073842600E+02  0.43815172191E+02  0.00000000000E+00 0. -1.
        -13    1    4    4    0    0  0.46149060882E+02  0.27654793407E+02  0.11900687628E+03  0.13060306283E+03  0.00000000000E+00 0. -1.
         13    1    4    4    0    0  0.27582183468E+02 -0.53324574653E+02  0.69813621865E+02  0.92077298531E+02  0.00000000000E+00 0.  1.
         21    1    1    2  502  503  0.25556524596E+02  0.11702246798E+02  0.59285211235E+02  0.65611087483E+02  0.00000000000E+00 0. -1.
         21    1    1    2  503  501  0.50289129957E+02  0.32667194437E+02 -0.44484182848E+02  0.74665820212E+02  0.00000000000E+00 0.  1.
<scales pt_clust_5="13000.00000" pt_clust_6="13000.00000" pt_clust_7="13000.00000" pt_clust_8="13000.00000" pt_clust_9="28.10834" pt_clust_10="61.43370"></scales>
<clustering>
<clus scale="   28.108">  1  9  2 -1</clus>
<clus scale="   61.434">  2 10  1 -1</clus>
<clus scale="   88.533">  7  8 -1 -1</clus>
<clus scale="   90.531">  5  6 -1 -1</clus>
<clus scale="  134.784">  1  7  2 -1</clus>
<clus scale="   28.108">  1  5  2 -1</clus>
</clustering>
</event>
<event>
10    2  0.1898324E-006  0.1709033E+03  0.7546771E-02  0.1197414E+00
         -2   -1    0    0    0  501 -0.00000000000E+00  0.00000000000E+00  0.16263662759E+03  0.16263662759E+03  0.00000000000E+00 0.  1.
          2   -1    0    0  502    0  0.00000000000E+00 -0.00000000000E+00 -0.14226521566E+04  0.14226521566E+04  0.00000000000E+00 0. -1.
         23    2    1    2    0    0 -0.27207429268E+02  0.60220838875E+02 -0.10278168976E+03  0.15326768859E+03  0.92520889388E+02 0.  0.
         23    2    1    2    0    0 -0.98652273658E+01  0.15054497435E+03 -0.68221095728E+03  0.70503969391E+03  0.94382560592E+02 0.  0.
        -11    1    4    4    0    0 -0.38453248613E+02  0.29275321777E+02 -0.27429234991E+03  0.27851748601E+03  0.00000000000E+00 0.  1.
         11    1    4    4    0    0  0.28588021248E+02  0.12126965257E+03 -0.40791860736E+03  0.42652220790E+03  0.00000000000E+00 0. -1.
        -13    1    3    3    0    0 -0.46386986238E+02  0.19924785559E+02 -0.11674407868E+02  0.51817384833E+02  0.00000000000E+00 0.  1.
         13    1    3    3    0    0  0.19179556970E+02  0.40296053316E+02 -0.91107281890E+02  0.10145030375E+03  0.00000000000E+00 0. -1.
         21    1    1    2  502  503  0.89214424298E+02 -0.11691218987E+03 -0.56690372675E+03  0.58566842928E+03  0.00000000000E+00 0. -1.
         21    1    1    2  503  501 -0.52141767664E+02 -0.93853623354E+02  0.91880844753E+02  0.14131297246E+03  0.00000000000E+00 0.  1.
<scales pt_clust_5="13000.00000" pt_clust_6="13000.00000" pt_clust_7="13000.00000" pt_clust_8="13000.00000" pt_clust_9="142.47765" pt_clust_10="107.36511"></scales>
<clustering>
<clus scale="   92.521">  7  8 -1 -1</clus>
<clus scale="   94.383">  5  6 -1 -1</clus>
<clus scale="  107.365">  1 10  2 -1</clus>
<clus scale="  108.398">  1  7  2 -1</clus>
<clus scale="  142.478">  2  9  1 -1</clus>
<clus scale="  142.478">  2  5  1 -1</clus>
</clustering>
</event>
<event>
10    2  0.1898324E-006  0.2087281E+03  0.7546771E-02  0.1142636E+00
          2   -1    0    0  502    0  0.00000000000E+00  0.00000000000E+00  0.68793821233E+03  0.68793821233E+03  0.00000000000E+00 0. -1.
         -2   -1    0    0    0  501 -0.00000000000E+00 -0.00000000000E+00 -0.35606890295E+03  0.35606890295E+03  0.00000000000E+00 0.  1.
         23    2    1    2    0    0 -0.58044627465E+02  0.16393440699E+03 -0.11243858831E+03  0.22650116038E+03  0.91742416245E+02 0.  0.
         23    2    1    2    0    0  0.13042058477E+03 -0.62034845412E+02  0.31392147476E+03  0.35734856856E+03  0.91068414735E+02 0.  0.
        -13    1    3    3    0    0  0.14977759184E+02  0.80642528821E+02 -0.26150516466E+02  0.86089489697E+02  0.00000000000E+00 0. -1.
         13    1    3    3    0    0 -0.73022386650E+02  0.83291878172E+02 -0.86288071843E+02  0.14041167068E+03  0.00000000000E+00 0.  1.
        -13    1    4    4    0    0  0.11944259100E+03 -0.79028948705E+02  0.22938472748E+03  0.27042459297E+03  0.00000000000E+00 0. -1.
         13    1    4    4    0    0  0.10977993774E+02  0.16994103293E+02  0.84536747272E+02  0.86923975596E+02  0.00000000000E+00 0.  1.
         21    1    1    2  502  503  0.29084446925E+02 -0.80127070906E+02  0.27174397521E+03  0.28480000107E+03  0.00000000000E+00 0. -1.
         21    1    1    2  503  501 -0.10146040423E+03 -0.21772490675E+02 -0.14135755228E+03  0.17535738526E+03  0.00000000000E+00 0.  1.
<scales pt_clust_5="13000.00000" pt_clust_6="13000.00000" pt_clust_7="13000.00000" pt_clust_8="13000.00000" pt_clust_9="85.24232" pt_clust_10="103.34722"></scales>
<clustering>
<clus scale="   85.242">  1  9  2 -1</clus>
<clus scale="   91.068">  7  8 -1 -1</clus>
<clus scale="   91.742">  5  6 -1 -1</clus>
<clus scale="  103.347">  2 10  1 -1</clus>
<clus scale="  208.433">  1  7  2 -1</clus>
<clus scale="   85.242">  1  5  2 -1</clus>
</clustering>
</event>
<event>
10    2  0.1898324E-006  0.1811745E+03  0.7546771E-02  0.1200121E+00
          1   -1    0    0  502    0  0.00000000000E+00  0.00000000000E+00  0.30858657058E+03  0.30858657058E+03  0.00000000000E+00 0. -1.
         -1   -1    0    0    0  501 -0.00000000000E+00 -0.00000000000E+00 -0.30932952508E+03  0.30932952508E+03  0.00000000000E+00 0.  1.
         23    2    1    2    0    0  0.14909747250E+02 -0.24603619938E+02  0.22791822358E+02  0.91952630459E+02  0.84310025529E+02 0.  0.
         23    2    1    2    0    0  0.14222991864E+03 -0.11110239466E+03 -0.18619210204E+02  0.20014607192E+03  0.84490728840E+02 0.  0.
        -11    1    4    4    0    0  0.48216206084E+02 -0.47204156067E+02  0.33220266308E+02  0.75210511052E+02  0.00000000000E+00 0. -1.
         11    1    4    4    0    0  0.94013712554E+02 -0.63898238593E+02 -0.51839476512E+02  0.12493556086E+03  0.00000000000E+00 0.  1.
        -11    1    3    3    0    0 -0.13274724845E+02 -0.38898412560E+02 -0.14029189766E+02  0.43429517438E+02  0.00000000000E+00 0. -1.
         11    1    3    3    0    0  0.28184472095E+02  0.14294792622E+02  0.36821012124E+02  0.48523113021E+02  0.00000000000E+00 0.  1.
         21    1    1    2  502  503 -0.14406003913E+03  0.56450297277E+02  0.10695552720E+03  0.18809416720E+03  0.00000000000E+00 0. -1.
         21    1    1    2  503  501 -0.13079626762E+02  0.79255717321E+02 -0.11187109385E+03  0.13772322609E+03  0.00000000000E+00 0. -1.
<scales pt_clust_5="13000.00000" pt_clust_6="13000.00000" pt_clust_7="13000.00000" pt_clust_8="13000.00000" pt_clust_9="160.26696" pt_clust_10="80.32774"></scales>
<clustering>
<clus scale="   80.328">  2 10  1 -1</clus>
<clus scale="   84.310">  7  8 -1 -1</clus>
<clus scale="   84.491">  5  6 -1 -1</clus>
<clus scale="   85.782">  2  7  1 -1</clus>
<clus scale="  160.267">  1  9  2 -1</clus>
<clus scale="  160.267">  1  5  2 -1</clus>
</clustering>
</event>
<event>
10    2  0.1898324E-006  0.3238615E+03  0.7546771E-02  0.1073968E+00
          2   -1    0    0  502    0  0.00000000000E+00  0.00000000000E+00  0.85351775191E+03  0.85351775191E+03  0.00000000000E+00 0. -1.
         -2   -1    0    0    0  501 -0.00000000000E+00 -0.00000000000E+00 -0.25136587857E+03  0.25136587857E+03  0.00000000000E+00 0.  1.
         23    2    1    2    0    0 -0.26717018194E+03 -0.76715726861E+02  0.20272955517E+03  0.35527977318E+03  0.88652331211E+02 0.  0.
         23    2    1    2    0    0  0.34057762924E+03  0.54674881041E+02  0.47345874811E+03  0.59285396511E+03  0.91269784884E+02 0.  0.
        -11    1    4    4    0    0  0.43592177224E+02  0.38560128896E+02  0.60614847201E+02  0.84031667583E+02  0.00000000000E+00 0.  1.
         11    1    4    4    0    0  0.29698545202E+03  0.16114752145E+02  0.41284390091E+03  0.50882229753E+03  0.00000000000E+00 0. -1.
        -13    1    3    3    0    0 -0.19479123189E+03 -0.24422361024E+02  0.10400775698E+03  0.22216590479E+03  0.00000000000E+00 0.  1.
         13    1    3    3    0    0 -0.72378950047E+02 -0.52293365838E+02  0.98721798190E+02  0.13311386839E+03  0.00000000000E+00 0. -1.
         21    1    1    2  502  503 -0.20326793607E+02 -0.23646593780E+02  0.21802561766E+02  0.38048543143E+02  0.00000000000E+00 0. -1.
         21    1    1    2  503  501 -0.53080653696E+02  0.45687439600E+02 -0.95838991702E+02  0.11870134904E+03  0.00000000000E+00 0.  1.
<scales pt_clust_5="13000.00000" pt_clust_6="13000.00000" pt_clust_7="13000.00000" pt_clust_8="13000.00000" pt_clust_9="31.18237" pt_clust_10="70.03604"></scales>
<clustering>
<clus scale="   31.182">  1  9  2 -1</clus>
<clus scale="   70.036">  2 10  1 -1</clus>
<clus scale="   88.652">  7  8 -1 -1</clus>
<clus scale="   91.270">  5  6 -1 -1</clus>
<clus scale="  323.134">  2  7  1 -1</clus>
<clus scale="   31.182">  1  5  2 -1</clus>
</clustering>
</event>
<event>
10    2  0.1898324E-006  0.1037584E+03  0.7546771E-02  0.1273605E+00
         -1   -1    0    0    0  501 -0.00000000000E+00  0.00000000000E+00  0.18939744534E+03  0.18939744534E+03  0.00000000000E+00 0.  1.
          1   -1    0    0  502    0  0.00000000000E+00 -0.00000000000E+00 -0.53713404226E+03  0.53713404226E+03  0.00000000000E+00 0. -1.
         23    2    1    2    0    0 -0.31540351295E+02  0.67334899434E+02 -0.31685039890E+01  0.11697415242E+03  0.90244836275E+02 0.  0.
         23    2    1    2    0    0  0.60895707231E+02  0.11638226187E+02 -0.12139644077E+02  0.10826433967E+03  0.87920764430E+02 0.  0.
        -11    1    3    3    0    0 -0.11905255488E+02 -0.21530474073E+02 -0.79069336968E+01  0.25842136571E+02  0.00000000000E+00 0. -1.
         11    1    3    3    0    0 -0.19635095807E+02  0.88865373507E+02  0.47384297078E+01  0.91132015845E+02  0.00000000000E+00 0.  1.
        -13    1    4    4    0    0  0.39006059524E+02  0.47000251609E+02 -0.23026545136E+02  0.65274176454E+02  0.00000000000E+00 0.  1.
         13    1    4    4    0    0  0.21889647707E+02 -0.35362025421E+02  0.10886901060E+02  0.42990163216E+02  0.00000000000E+00 0. -1.
         21    1    1    2  502  503 -0.45455125057E+02 -0.35528932611E+02 -0.40832049471E+03  0.41237616304E+03  0.00000000000E+00 0. -1.
         21    1    1    2  503  501  0.16099769121E+02 -0.43444193010E+02  0.75892045858E+02  0.88916832470E+02  0.00000000000E+00 0.  1.
<scales pt_clust_5="13000.00000" pt_clust_6="13000.00000" pt_clust_7="13000.00000" pt_clust_8="13000.00000" pt_clust_9="57.96562" pt_clust_10="46.33142"></scales>
<clustering>
<clus scale="   46.331">  1 10  2 -1</clus>
<clus scale="   57.966">  2  9  1 -1</clus>
<clus scale="   87.921">  7  8 -1 -1</clus>
<clus scale="   90.245">  5  6 -1 -1</clus>
<clus scale="  101.743">  2  7  1 -1</clus>
<clus scale="   57.966">  2  5  1 -1</clus>
</clustering>
</event>
<event>
10    2  0.1898324E-006  0.1528735E+03  0.7546771E-02  0.1220516E+00
         -1   -1    0    0    0  501 -0.00000000000E+00  0.00000000000E+00  0.18008117541E+03  0.18008117541E+03  0.00000000000E+00 0.  1.
          1   -1    0    0  502    0  0.00000000000E+00 -0.00000000000E+00 -0.45735912326E+03  0.45735912326E+03  0.00000000000E+00 0. -1.
         23    2    1    2    0    0 -0.22365689425E+02  0.21279446798E+01  0.75488795108E+02  0.11889661607E+03  0.89067923043E+02 0.  0.
         23    2    1    2    0    0 -0.57755799204E+02  0.97875218166E+02 -0.38837219091E+02  0.14918747707E+03  0.88505836273E+02 0.  0.
        -13    1    4    4    0    0  0.11281461297E+02  0.31265195484E+02  0.17880707326E+02  0.37742595461E+02  0.00000000000E+00 0. -1.
         13    1    4    4    0    0 -0.69037260501E+02  0.66610022682E+02 -0.56717926417E+02  0.11144488161E+03  0.00000000000E+00 0.  1.
        -13    1    3    3    0    0  0.34668850489E+02  0.28888100024E+00  0.25566113507E+02  0.43077126254E+02  0.00000000000E+00 0. -1.
         13    1    3    3    0    0 -0.57034539914E+02  0.18390636796E+01  0.49922681601E+02  0.75819489821E+02  0.00000000000E+00 0.  1.
         21    1    1    2  502  503 -0.40230383210E+02 -0.29386889230E+02 -0.48749232479E+02  0.69703376239E+02  0.00000000000E+00 0.  1.
         21    1    1    2  503  501  0.12035187184E+03 -0.70616273616E+02 -0.26518029140E+03  0.29965282929E+03  0.00000000000E+00 0. -1.
<scales pt_clust_5="13000.00000" pt_clust_6="13000.00000" pt_clust_7="13000.00000" pt_clust_8="13000.00000" pt_clust_9="49.82041" pt_clust_10="124.64755"></scales>
<clustering>
<clus scale="   49.820">  2  9  1 -1</clus>
<clus scale="   88.506">  5  6 -1 -1</clus>
<clus scale="   89.068">  7  8 -1 -1</clus>
<clus scale="   92.393">  1  7  2 -1</clus>
<clus scale="  124.648">  2 10  1 -1</clus>
<clus scale="   49.820">  2  5  1 -1</clus>
</clustering>
</event>
<event>
10    2  0.1898324E-006  0.9709782E+02  0.7546771E-02  0.1287630E+00
         -1   -1    0    0    0  501 -0.00000000000E+00  0.00000000000E+00  0.63897953286E+03  0.63897953286E+03  0.00000000000E+00 0.  1.
          1   -1    0    0  502    0  0.00000000000E+00 -0.00000000000E+00 -0.17739431447E+03  0.17739431447E+03  0.00000000000E+00 0. -1.
         23    2    1    2    0    0 -0.13097529226E+02  0.10179615852E+03  0.33487523296E+03  0.36234074747E+03  0.92819138471E+02 0.  0.
         23    2    1    2    0    0 -0.21673707180E+02 -0.47693755923E+02 -0.16188661252E+02  0.10600067185E+03  0.90717284698E+02 0.  0.
        -11    1    3    3    0    0  0.18815961628E+02  0.10454887733E+03  0.25074693054E+03  0.27232064068E+03  0.00000000000E+00 0.  1.
         11    1    3    3    0    0 -0.31913490855E+02 -0.27527188096E+01  0.84128302419E+02  0.90020106794E+02  0.00000000000E+00 0. -1.
        -13    1    4    4    0    0  0.18824374558E+02 -0.42407104010E+02 -0.37752188181E+02  0.59815944869E+02  0.00000000000E+00 0. -1.
         13    1    4    4    0    0 -0.40498081738E+02 -0.52866519129E+01  0.21563526930E+02  0.46184726983E+02  0.00000000000E+00 0.  1.
         21    1    1    2  502  503  0.39651953973E+02  0.42626729040E+02 -0.83497392088E+02  0.10178963586E+03  0.00000000000E+00 0.  1.
         21    1    1    2  503  501 -0.48807175672E+01 -0.96729131635E+02  0.22639603877E+03  0.24624279214E+03  0.00000000000E+00 0. -1.
<scales pt_clust_5="13000.00000" pt_clust_6="13000.00000" pt_clust_7="13000.00000" pt_clust_8="13000.00000" pt_clust_9="58.21783" pt_clust_10="91.73832"></scales>
<clustering>
<clus scale="   58.218">  2  9  1 -1</clus>
<clus scale="   90.717">  7  8 -1 -1</clus>
<clus scale="   91.738">  1 10  2 -1</clus>
<clus scale="   92.819">  5  6 -1 -1</clus>
<clus scale="   95.091">  2  7  1 -1</clus>
<clus scale="   58.218">  2  5  1 -1</clus>
</clustering>
</event>
<event>
10    2  0.1898324E-006  0.9994377E+02  0.7546771E-02  0.1280593E+00
          1   -1    0    0  502    0  0.00000000000E+00  0.00000000000E+00  0.35042561030E+03  0.35042561030E+03  0.00000000000E+00 0. -1.
         -1   -1    0    0    0  501 -0.00000000000E+00 -0.00000000000E+00 -0.15655997580E+03  0.15655997580E+03  0.00000000000E+00 0.  1.
         23    2    1    2    0    0 -0.35423437960E+02 -0.18500704941E+02 -0.99284270380E+02  0.14080981989E+03  0.91503786758E+02 0.  0.
         23    2    1    2    0    0 -0.39590253273E+02  0.52719929486E+02  0.16529384836E+03  0.20027323478E+03  0.91872374218E+02 0.  0.
        -11    1    3    3    0    0  0.11647058526E+02 -0.35834881376E+02 -0.77396828072E+02  0.86081715196E+02  0.00000000000E+00 0.  1.
         11    1    3    3    0    0 -0.47070496486E+02  0.17334176435E+02 -0.21887442308E+02  0.54728104689E+02  0.00000000000E+00 0. -1.
        -11    1    4    4    0    0 -0.50461079356E+02  0.73747775716E+02  0.13306403133E+03  0.16028440781E+03  0.00000000000E+00 0. -1.
         11    1    4    4    0    0  0.10870826083E+02 -0.21027846229E+02  0.32229817028E+02  0.39988826970E+02  0.00000000000E+00 0.  1.
         21    1    1    2  502  503  0.58657297365E+02 -0.14519080962E+02  0.12658184608E+03  0.14026562659E+03  0.00000000000E+00 0.  1.
         21    1    1    2  503  501  0.16356393868E+02 -0.19700143584E+02  0.12742104323E+01  0.25636904841E+02  0.00000000000E+00 0.  1.
<scales pt_clust_5="13000.00000" pt_clust_6="13000.00000" pt_clust_7="13000.00000" pt_clust_8="13000.00000" pt_clust_9="61.40842" pt_clust_10="25.60522"></scales>
<clustering>
<clus scale="   25.605">  2 10  1 -1</clus>
<clus scale="   61.408">  1  9  2 -1</clus>
<clus scale="   91.504">  5  6 -1 -1</clus>
<clus scale="   91.872">  7  8 -1 -1</clus>
<clus scale="   99.605">  2  5  1 -1</clus>
<clus scale="   61.408">  1  5  2 -1</clus>
</clustering>
</event>
<event>
10    2  0.1898324E-006  0.1164654E+03  0.7546771E-02  0.1249829E+00
          1   -1    0    0  503    0  0.00000000000E+00  0.00000000000E+00  0.45263501299E+03  0.45263501299E+03  0.00000000000E+00 0. -1.
         -1   -1    0    0    0  501 -0.00000000000E+00 -0.00000000000E+00 -0.75229357591E+02  0.75229357591E+02  0.00000000000E+00 0.  1.
         23    2    1    2    0    0 -0.23414716292E+02 -0.95877719496E+02  0.14634156931E+03  0.19775472896E+03  0.89164409295E+02 0.  0.
         23    2    1    2    0    0 -0.35628534951E+02  0.61602556878E+02  0.22261785724E+03  0.24930785000E+03  0.86783789943E+02 0.  0.
        -11    1    3    3    0    0  0.50578822655E+01 -0.10164383931E+03  0.97563470605E+02  0.14098114427E+03  0.00000000000E+00 0.  1.
         11    1    3    3    0    0 -0.28472598558E+02  0.57661198109E+01  0.48778098701E+02  0.56773584696E+02  0.00000000000E+00 0. -1.
        -11    1    4    4    0    0 -0.11940936519E+02  0.32467360814E+02  0.13969591305E+02  0.37307706501E+02  0.00000000000E+00 0.  1.
         11    1    4    4    0    0 -0.23687598432E+02  0.29135196064E+02  0.20864826593E+03  0.21200014350E+03  0.00000000000E+00 0. -1.
         21    1    1    2  502  501  0.26639226657E+02  0.69897072585E+01  0.23132100521E+02  0.35966630075E+02  0.00000000000E+00 0.  1.
         21    1    1    2  503  502  0.32404024586E+02  0.27285455360E+02 -0.14685871666E+02  0.44835161538E+02  0.00000000000E+00 0.  1.
<scales pt_clust_5="13000.00000" pt_clust_6="13000.00000" pt_clust_7="13000.00000" pt_clust_8="13000.00000" pt_clust_9="27.54096" pt_clust_10="53.36689"></scales>
<clustering>
<clus scale="   27.541">  2  9  1 -1</clus>
<clus scale="   53.367">  2 10  1 -1</clus>
<clus scale="   86.784">  7  8 -1 -1</clus>
<clus scale="   89.164">  5  6 -1 -1</clus>
<clus scale="  114.653">  1  7  2 -1</clus>
<clus scale="  114.653">  1  5  2 -1</clus>
</clustering>
</event>
<event>
10    2  0.1898324E-006  0.9457016E+02  0.7546771E-02  0.1297124E+00
         -1   -1    0    0    0  501 -0.00000000000E+00  0.00000000000E+00  0.47131874965E+03  0.47131874965E+03  0.00000000000E+00 0.  1.
          1   -1    0    0  502    0  0.00000000000E+00 -0.00000000000E+00 -0.18117214084E+03  0.18117214084E+03  0.00000000000E+00 0. -1.
         23    2    1    2    0    0  0.14139972397E+02  0.41844137220E+02  0.31645602360E+03  0.33267241357E+03  0.92604801375E+02 0.  0.
         23    2    1    2    0    0 -0.19636636026E+02  0.12669523544E+02 -0.44070746096E+02  0.97739083934E+02  0.84051077123E+02 0.  0.
        -11    1    4    4    0    0  0.32865898687E+02  0.33732596942E+01 -0.10224553881E+02  0.34584500568E+02  0.00000000000E+00 0.  1.
         11    1    4    4    0    0 -0.52502534712E+02  0.92962638498E+01 -0.33846192215E+02  0.63154583367E+02  0.00000000000E+00 0. -1.
        -13    1    3    3    0    0  0.52980269900E+02  0.18495818283E+02  0.19954745024E+03  0.20728769666E+03  0.00000000000E+00 0.  1.
         13    1    3    3    0    0 -0.38840297502E+02  0.23348318937E+02  0.11690857336E+03  0.12538471691E+03  0.00000000000E+00 0. -1.
         21    1    1    2  502  503  0.43794530108E+01 -0.24102032582E+02 -0.98706768233E+02  0.10170109969E+03  0.00000000000E+00 0. -1.
         21    1    1    2  503  501  0.11172106177E+01 -0.30411628182E+02  0.11646809953E+03  0.12037829330E+03  0.00000000000E+00 0.  1.
<scales pt_clust_5="13000.00000" pt_clust_6="13000.00000" pt_clust_7="13000.00000" pt_clust_8="13000.00000" pt_clust_9="24.49669" pt_clust_10="31.01773"></scales>
<clustering>
<clus scale="   24.497">  2  9  1 -1</clus>
<clus scale="   31.018">  1 10  2 -1</clus>
<clus scale="   84.051">  5  6 -1 -1</clus>
<clus scale="   86.212">  2  5  1 -1</clus>
<clus scale="   92.605">  7  8 -1 -1</clus>
<clus scale="   24.497">  2  5  1 -1</clus>
</clustering>
</event>
<event>
10    2  0.1898324E-006  0.1125278E+03  0.7546771E-02  0.1261045E+00
          1   -1    0    0  502    0  0.00000000000E+00  0.00000000000E+00  0.11706755213E+03  0.11706755213E+03  0.00000000000E+00 0. -1.
         -1   -1    0    0    0  501 -0.00000000000E+00 -0.00000000000E+00 -0.24144299460E+03  0.24144299460E+03  0.00000000000E+00 0.  1.
         23    2    1    2    0    0 -0.49003490156E+01  0.22378034433E+00 -0.32817915944E+02  0.10831099348E+03  0.10310282345E+03 0.  0.
         23    2    1    2    0    0  0.78664689597E+02 -0.41569875160E+02 -0.41459611133E+02  0.13403659714E+03  0.91272789519E+02 0.  0.
        -11    1    4    4    0    0 -0.22125543936E+01 -0.44079604956E+02 -0.24369396626E+01  0.44202326239E+02  0.00000000000E+00 0.  1.
         11    1    4    4    0    0  0.80877243991E+02  0.25097297954E+01 -0.39022671470E+02  0.89834270899E+02  0.00000000000E+00 0. -1.
        -13    1    3    3    0    0 -0.51351950755E+02 -0.62334508344E+01 -0.33098960600E+02  0.61411887681E+02  0.00000000000E+00 0.  1.
         13    1    3    3    0    0  0.46451601740E+02  0.64572311788E+01  0.28104465598E+00  0.46899105799E+02  0.00000000000E+00 0. -1.
         21    1    1    2  502  503 -0.48547403677E+02  0.25376535890E+02  0.34176457695E+01  0.54886239443E+02  0.00000000000E+00 0. -1.
         21    1    1    2  503  501 -0.25216936905E+02  0.15969558926E+02 -0.53515561168E+02  0.61276716673E+02  0.00000000000E+00 0.  1.
<scales pt_clust_5="13000.00000" pt_clust_6="13000.00000" pt_clust_7="13000.00000" pt_clust_8="13000.00000" pt_clust_9="58.93995" pt_clust_10="29.84830"></scales>
<clustering>
<clus scale="   29.848">  2 10  1 -1</clus>
<clus scale="   58.940">  1  9  2 -1</clus>
<clus scale="   91.273">  5  6 -1 -1</clus>
<clus scale="  101.799">  1  5  2 -1</clus>
<clus scale="  103.103">  7  8 -1 -1</clus>
<clus scale="   58.940">  1  5  2 -1</clus>
</clustering>
</event>
<event>
10    2  0.1898324E-006  0.9383165E+02  0.7546771E-02  0.1299205E+00
         -1   -1    0    0    0  501 -0.00000000000E+00  0.00000000000E+00  0.58393193463E+03  0.58393193463E+03  0.00000000000E+00 0.  1.
          1   -1    0    0  502    0  0.00000000000E+00 -0.00000000000E+00 -0.99946302072E+02  0.99946302072E+02  0.00000000000E+00 0. -1.
         23    2    1    2    0    0 -0.38796192630E+02 -0.25946467184E+02  0.38465565791E+03  0.39762461186E+03  0.89258014050E+02 0.  0.
         23    2    1    2    0    0  0.10488534426E+02 -0.48634903268E+01 -0.66524420989E+02  0.10457134736E+03  0.79849891718E+02 0.  0.
        -11    1    4    4    0    0 -0.16700159312E+02  0.15001177763E+02 -0.67243166367E+02  0.70891283514E+02  0.00000000000E+00 0.  1.
         11    1    4    4    0    0  0.27188693738E+02 -0.19864668089E+02  0.71874537759E+00  0.33680063842E+02  0.00000000000E+00 0. -1.
        -13    1    3    3    0    0 -0.26466280172E+02  0.28136300653E+02  0.92365198075E+02  0.10011715745E+03  0.00000000000E+00 0. -1.
         13    1    3    3    0    0 -0.12329912458E+02 -0.54082767837E+02  0.29229045983E+03  0.29750745441E+03  0.00000000000E+00 0.  1.
         21    1    1    2  502  503  0.17048066180E+02  0.14239757141E+02  0.96836506392E+01  0.24231804175E+02  0.00000000000E+00 0. -1.
         21    1    1    2  503  501  0.11259592024E+02  0.16570200370E+02  0.15617074500E+03  0.15745047332E+03  0.00000000000E+00 0.  1.
<scales pt_clust_5="13000.00000" pt_clust_6="13000.00000" pt_clust_7="13000.00000" pt_clust_8="13000.00000" pt_clust_9="22.97864" pt_clust_10="20.03372"></scales>
<clustering>
<clus scale="   20.034">  1 10  2 -1</clus>
<clus scale="   22.979">  2  9  1 -1</clus>
<clus scale="   79.850">  5  6 -1 -1</clus>
<clus scale="   84.932">  2  5  1 -1</clus>
<clus scale="   89.258">  7  8 -1 -1</clus>
<clus scale="   22.979">  2  5  1 -1</clus>
</clustering>
</event>
<event>
10    2  0.1898324E-006  0.9948815E+02  0.7546771E-02  0.1283157E+00
          1   -1    0    0  502    0  0.00000000000E+00  0.00000000000E+00  0.45082364472E+03  0.45082364472E+03  0.00000000000E+00 0. -1.
         -1   -1    0    0    0  501 -0.00000000000E+00 -0.00000000000E+00 -0.89287486051E+02  0.89287486051E+02  0.00000000000E+00 0.  1.
         23    2    1    2    0    0  0.23157114178E+02  0.87523296942E+01  0.33602909940E+02  0.10060653193E+03  0.91540501951E+02 0.  0.
         23    2    1    2    0    0 -0.45555787130E+02 -0.28526696217E+02  0.33209960382E+03  0.34772462525E+03  0.87938421722E+02 0.  0.
        -11    1    4    4    0    0 -0.61617469661E+02  0.88882604398E+01  0.20791672081E+03  0.21703703954E+03  0.00000000000E+00 0.  1.
         11    1    4    4    0    0  0.16061682530E+02 -0.37414956657E+02  0.12418288301E+03  0.13068758571E+03  0.00000000000E+00 0. -1.
        -11    1    3    3    0    0 -0.20986459488E+00  0.45225876795E+02 -0.88855392405E+00  0.45235091501E+02  0.00000000000E+00 0.  1.
         11    1    3    3    0    0  0.23366978773E+02 -0.36473547101E+02  0.34491463864E+02  0.55371440424E+02  0.00000000000E+00 0. -1.
         21    1    1    2  502  503  0.24350414725E+02 -0.90174790556E+01  0.34719745276E+02  0.43355718629E+02  0.00000000000E+00 0. -1.
         21    1    1    2  503  501 -0.19517417721E+01  0.28791845578E+02 -0.38886100360E+02  0.48424254966E+02  0.00000000000E+00 0.  1.
<scales pt_clust_5="13000.00000" pt_clust_6="13000.00000" pt_clust_7="13000.00000" pt_clust_8="13000.00000" pt_clust_9="25.96647" pt_clust_10="28.73596"></scales>
<clustering>
<clus scale="   25.966">  1  9  2 -1</clus>
<clus scale="   28.736">  2 10  1 -1</clus>
<clus scale="   87.938">  5  6 -1 -1</clus>
<clus scale="   91.541">  7  8 -1 -1</clus>
<clus scale="   96.184">  1  5  2 -1</clus>
<clus scale="   25.966">  1  5  2 -1</clus>
</clustering>
</event>
<event>
10    2  0.1898324E-006  0.2377428E+03  0.7546771E-02  0.1121348E+00
          2   -1    0    0  502    0  0.00000000000E+00  0.00000000000E+00  0.18958517466E+04  0.18958517466E+04  0.00000000000E+00 0. -1.
         -2   -1    0    0    0  501 -0.00000000000E+00 -0.00000000000E+00 -0.45658949779E+02  0.45658949779E+02  0.00000000000E+00 0.  1.
         23    2    1    2    0    0  0.14857015495E+03 -0.16131150306E+03  0.50997497241E+03  0.56258581010E+03  0.91289809294E+02 0.  0.
         23    2    1    2    0    0 -0.15440361186E+03  0.13204680264E+03  0.11144931767E+04  0.11365842165E+04  0.91933708298E+02 0.  0.
        -13    1    4    4    0    0 -0.16983351159E+02 -0.14194645403E+02  0.97458357793E+02  0.99940250542E+02  0.00000000000E+00 0. -1.
         13    1    4    4    0    0 -0.13742026070E+03  0.14624144804E+03  0.10170348189E+04  0.10366439659E+04  0.00000000000E+00 0.  1.
        -13    1    3    3    0    0  0.10064788863E+03 -0.73273845342E+02  0.18895504026E+03  0.22628093410E+03  0.00000000000E+00 0.  1.
         13    1    3    3    0    0  0.47922266321E+02 -0.88037657719E+02  0.32101993215E+03  0.33630487600E+03  0.00000000000E+00 0. -1.
         21    1    1    2  502  503 -0.16301040794E+01  0.47979015228E+02  0.21337601529E+03  0.21870977811E+03  0.00000000000E+00 0.  1.
         21    1    1    2  503  501  0.74635609927E+01 -0.18714314805E+02  0.12348632450E+02  0.23630891746E+02  0.00000000000E+00 0.  1.
<scales pt_clust_5="13000.00000" pt_clust_6="13000.00000" pt_clust_7="13000.00000" pt_clust_8="13000.00000" pt_clust_9="46.74558" pt_clust_10="20.14771"></scales>
<clustering>
<clus scale="   20.148">  2 10  1 -1</clus>
<clus scale="   46.746">  1  9  2 -1</clus>
<clus scale="   91.290">  7  8 -1 -1</clus>
<clus scale="   91.934">  5  6 -1 -1</clus>
<clus scale="  237.495">  2  7  1 -1</clus>
<clus scale="   46.746">  1  5  2 -1</clus>
</clustering>
</event>
<event>
10    2  0.1898324E-006  0.1222628E+03  0.7546771E-02  0.1240495E+00
         -2   -1    0    0    0  501 -0.00000000000E+00  0.00000000000E+00  0.21841316439E+03  0.21841316439E+03  0.00000000000E+00 0.  1.
          2   -1    0    0  502    0  0.00000000000E+00 -0.00000000000E+00 -0.29105138062E+03  0.29105138062E+03  0.00000000000E+00 0. -1.
         23    2    1    2    0    0  0.30562988389E+01 -0.51598154017E+02 -0.40935716333E+00  0.10518141711E+03  0.91603779791E+02 0.  0.
         23    2    1    2    0    0 -0.82374940362E+02  0.91714947121E+02 -0.13692078570E+03  0.20418477956E+03  0.88016250316E+02 0.  0.
        -13    1    3    3    0    0 -0.35856888951E+02 -0.54695669607E+02 -0.62964701276E+01  0.65703715991E+02  0.00000000000E+00 0.  1.
         13    1    3    3    0    0  0.38913187790E+02  0.30975155907E+01  0.58871129643E+01  0.39477701121E+02  0.00000000000E+00 0. -1.
        -13    1    4    4    0    0 -0.43643179970E+02  0.64930644911E+02 -0.13622097273E+03  0.15708873040E+03  0.00000000000E+00 0. -1.
         13    1    4    4    0    0 -0.38731760392E+02  0.26784302210E+02 -0.69981297100E+00  0.47096049156E+02  0.00000000000E+00 0.  1.
         21    1    1    2  502  503  0.45067187279E+02 -0.12326635956E+02 -0.55218473626E+02  0.72333098599E+02  0.00000000000E+00 0. -1.
         21    1    1    2  503  501  0.34251454244E+02 -0.27790157149E+02  0.11991040026E+03  0.12776524974E+03  0.00000000000E+00 0.  1.
<scales pt_clust_5="13000.00000" pt_clust_6="13000.00000" pt_clust_7="13000.00000" pt_clust_8="13000.00000" pt_clust_9="50.40092" pt_clust_10="44.10731"></scales>
<clustering>
<clus scale="   44.107">  1 10  2 -1</clus>
<clus scale="   50.401">  2  9  1 -1</clus>
<clus scale="   88.016">  7  8 -1 -1</clus>
<clus scale="   91.604">  5  6 -1 -1</clus>
<clus scale="  119.599">  2  7  1 -1</clus>
<clus scale="   50.401">  2  5  1 -1</clus>
</clustering>
</event>
<event>
10    2  0.1898324E-006  0.2672691E+03  0.7546771E-02  0.1102915E+00
         -1   -1    0    0    0  501 -0.00000000000E+00  0.00000000000E+00  0.42043601331E+03  0.42043601331E+03  0.00000000000E+00 0.  1.
          1   -1    0    0  502    0  0.00000000000E+00 -0.00000000000E+00 -0.43501556491E+03  0.43501556491E+03  0.00000000000E+00 0. -1.
         23    2    1    2    0    0 -0.15003693028E+03 -0.25564108698E+03 -0.10525166416E+03  0.32750150953E+03  0.91191447703E+02 0.  0.
         23    2    1    2    0    0  0.13421275396E+03  0.17329523578E+03 -0.99915529126E+02  0.25801564800E+03  0.92437327867E+02 0.  0.
        -11    1    4    4    0    0  0.14721560664E+03  0.15452075631E+03 -0.98715814409E+02  0.23514657340E+03  0.00000000000E+00 0. -1.
         11    1    4    4    0    0 -0.13002852686E+02  0.18774479474E+02 -0.11997147172E+01  0.22869074597E+02  0.00000000000E+00 0.  1.
        -13    1    3    3    0    0 -0.14974295850E+03 -0.18566740698E+03 -0.95135564693E+02  0.25679975721E+03  0.00000000000E+00 0.  1.
         13    1    3    3    0    0 -0.29397178272E+00 -0.69973680001E+02 -0.10116099470E+02  0.70701752318E+02  0.00000000000E+00 0. -1.
         21    1    1    2  502  503 -0.13847358474E+02  0.69333781920E+02 -0.57546928547E+01  0.70936867297E+02  0.00000000000E+00 0. -1.
         21    1    1    2  503  501  0.29671534800E+02  0.13012069281E+02  0.19634233454E+03  0.19899755340E+03  0.00000000000E+00 0. -1.
<scales pt_clust_5="13000.00000" pt_clust_6="13000.00000" pt_clust_7="13000.00000" pt_clust_8="13000.00000" pt_clust_9="71.86897" pt_clust_10="32.39929"></scales>
<clustering>
<clus scale="   32.399">  1 10  2 -1</clus>
<clus scale="   71.869">  1  9  2 -1</clus>
<clus scale="   91.191">  7  8 -1 -1</clus>
<clus scale="   92.437">  5  6 -1 -1</clus>
<clus scale="  266.841">  1  7  2 -1</clus>
<clus scale="  267.269">  2  5  1 -1</clus>
</clustering>
</event>
<event>
10    2  0.1898324E-006  0.1968564E+03  0.7546771E-02  0.1152902E+00
          1   -1    0    0  502    0  0.00000000000E+00  0.00000000000E+00  0.42816687078E+03  0.42816687078E+03  0.00000000000E+00 0. -1.
         -1   -1    0    0    0  501 -0.00000000000E+00 -0.00000000000E+00 -0.26760699028E+03  0.26760699028E+03  0.00000000000E+00 0.  1.
         23    2    1    2    0    0 -0.18448060449E+03  0.31750437692E+01 -0.80277551553E+01  0.20638814647E+03  0.92132772744E+02 0.  0.
         23    2    1    2    0    0  0.16138048656E+03  0.65599322356E+02  0.26634923183E+03  0.33000678167E+03  0.87267577684E+02 0.  0.
        -11    1    4    4    0    0  0.89861399611E+02  0.74737775676E+01  0.73739001993E+02  0.11648334175E+03  0.00000000000E+00 0.  1.
         11    1    4    4    0    0  0.71519086949E+02  0.58125544789E+02  0.19261022984E+03  0.21352343992E+03  0.00000000000E+00 0. -1.
        -13    1    3    3    0    0 -0.41574154676E+02  0.10632921228E+02 -0.41204323206E+02  0.59491727171E+02  0.00000000000E+00 0. -1.
         13    1    3    3    0    0 -0.14290644981E+03 -0.74578774590E+01  0.33176568051E+02  0.14689641930E+03  0.00000000000E+00 0.  1.
         21    1    1    2  502  503  0.36974331936E+02 -0.91159949781E+02 -0.67726215603E+02  0.11943231533E+03  0.00000000000E+00 0.  1.
         21    1    1    2  503  501 -0.13874214007E+02  0.22385583656E+02 -0.30035380581E+02  0.39946617586E+02  0.00000000000E+00 0.  1.
<scales pt_clust_5="13000.00000" pt_clust_6="13000.00000" pt_clust_7="13000.00000" pt_clust_8="13000.00000" pt_clust_9="87.94807" pt_clust_10="26.33644"></scales>
<clustering>
<clus scale="   26.336">  2 10  1 -1</clus>
<clus scale="   87.268">  5  6 -1 -1</clus>
<clus scale="   87.948">  2  9  1 -1</clus>
<clus scale="   92.133">  7  8 -1 -1</clus>
<clus scale="  194.627">  1  5  2 -1</clus>
<clus scale="  194.627">  1  5  2 -1</clus>
</clustering>
</event>
<event>
10    2  0.1898324E-006  0.1116328E+03  0.7546771E-02  0.1259590E+00
          3   -1    0    0  502    0  0.00000000000E+00  0.00000000000E+00  0.72723115539E+03  0.72723115539E+03  0.00000000000E+00 0. -1.
         -3   -1    0    0    0  501 -0.00000000000E+00 -0.00000000000E+00 -0.13885151717E+03  0.13885151717E+03  0.00000000000E+00 0.  1.
         23    2    1    2    0    0  0.71758990237E+02 -0.14926909183E+02 -0.51760054326E+01  0.11748579116E+03  0.91673086529E+02 0.  0.
         23    2    1    2    0    0 -0.57066071821E+02  0.55852115192E+02  0.18827708593E+02  0.11909587817E+03  0.86332787874E+02 0.  0.
        -11    1    3    3    0    0  0.64142054535E+02  0.30701057903E+02 -0.28492217277E+01  0.71167943491E+02  0.00000000000E+00 0.  1.
         11    1    3    3    0    0  0.76169357020E+01 -0.45627967086E+02 -0.23267837049E+01  0.46317847665E+02  0.00000000000E+00 0. -1.
        -13    1    4    4    0    0 -0.85602404615E+01  0.67188917004E+02  0.12617147420E+02  0.68897174789E+02  0.00000000000E+00 0.  1.
         13    1    4    4    0    0 -0.48505831360E+02 -0.11336801811E+02  0.62105611727E+01  0.50198703383E+02  0.00000000000E+00 0. -1.
         21    1    1    2  502  503  0.55141772092E+02 -0.50777769960E+02  0.54951391527E+03  0.55460304725E+03  0.00000000000E+00 0. -1.
         21    1    1    2  503  501 -0.69834690508E+02  0.98525639501E+01  0.25214019790E+02  0.74897955972E+02  0.00000000000E+00 0. -1.
<scales pt_clust_5="13000.00000" pt_clust_6="13000.00000" pt_clust_7="13000.00000" pt_clust_8="13000.00000" pt_clust_9="73.66988" pt_clust_10="70.52629"></scales>
<clustering>
<clus scale="   70.526">  2 10  1 -1</clus>
<clus scale="   73.670">  1  9  2 -1</clus>
<clus scale="   86.333">  7  8 -1 -1</clus>
<clus scale="   91.673">  5  6 -1 -1</clus>
<clus scale="  107.291">  1  7  2 -1</clus>
<clus scale="   73.670">  1  5  2 -1</clus>
</clustering>
</event>
<event>
10    2  0.1898324E-006  0.1382313E+03  0.7546771E-02  0.1220039E+00
          3   -1    0    0  502    0  0.00000000000E+00  0.00000000000E+00  0.38091672022E+03  0.38091672022E+03  0.00000000000E+00 0. -1.
         -3   -1    0    0    0  501 -0.00000000000E+00 -0.00000000000E+00 -0.14993779888E+03  0.14993779888E+03  0.00000000000E+00 0.  1.
         23    2    1    2    0    0  0.16997796175E+02  0.12136839704E+03 -0.61407313756E+02  0.15363591524E+03  0.69382442977E+02 0.  0.
         23    2    1    2    0    0 -0.13408073145E+02 -0.11553295251E+03  0.27911395555E+03  0.31530991102E+03  0.89376172777E+02 0.  0.
        -11    1    4    4    0    0  0.11189082442E+02 -0.36416798705E+02  0.18939052835E+03  0.19318424113E+03  0.00000000000E+00 0.  1.
         11    1    4    4    0    0 -0.24597155587E+02 -0.79116153802E+02  0.89723427208E+02  0.12212566989E+03  0.00000000000E+00 0. -1.
        -13    1    3    3    0    0 -0.16845555074E+02  0.43483622865E+02  0.34814077342E+01  0.46762360752E+02  0.00000000000E+00 0. -1.
         13    1    3    3    0    0  0.33843351250E+02  0.77884774180E+02 -0.64888721490E+02  0.10687355449E+03  0.00000000000E+00 0.  1.
         21    1    1    2  502  503  0.15164472848E+02  0.15851655990E+02  0.22853863977E+02  0.31678625807E+02  0.00000000000E+00 0. -1.
         21    1    1    2  503  501 -0.18754195878E+02 -0.21687100528E+02 -0.95815844345E+01  0.30230067030E+02  0.00000000000E+00 0.  1.
<scales pt_clust_5="13000.00000" pt_clust_6="13000.00000" pt_clust_7="13000.00000" pt_clust_8="13000.00000" pt_clust_9="21.93710" pt_clust_10="28.03183"></scales>
<clustering>
<clus scale="   21.937">  1  9  2 -1</clus>
<clus scale="   28.032">  2 10  1 -1</clus>
<clus scale="   69.382">  7  8 -1 -1</clus>
<clus scale="   89.376">  5  6 -1 -1</clus>
<clus scale="  126.229">  2  7  1 -1</clus>
<clus scale="   21.937">  1  5  2 -1</clus>
</clustering>
</event>
<event>
10    2  0.1898324E-006  0.1175427E+03  0.7546771E-02  0.1247505E+00
          1   -1    0    0  502    0  0.00000000000E+00  0.00000000000E+00  0.68165034937E+03  0.68165034937E+03  0.00000000000E+00 0. -1.
         -1   -1    0    0    0  501 -0.00000000000E+00 -0.00000000000E+00 -0.23707442388E+03  0.23707442388E+03  0.00000000000E+00 0.  1.
         23    2    1    2    0    0 -0.78036984612E+02 -0.76925773448E+02 -0.17244418810E+03  0.22352984900E+03  0.90671107823E+02 0.  0.
         23    2    1    2    0    0 -0.10873994261E+02  0.44288587087E+02  0.21562718575E+03  0.23866419021E+03  0.91573957849E+02 0.  0.
        -11    1    3    3    0    0 -0.38788759969E+02 -0.13102128247E+02 -0.13237679471E+03  0.13856352133E+03  0.00000000000E+00 0.  1.
         11    1    3    3    0    0 -0.39248224643E+02 -0.63823645201E+02 -0.40067393392E+02  0.84966327669E+02  0.00000000000E+00 0. -1.
        -13    1    4    4    0    0  0.10727128861E+02 -0.21660159107E+02  0.10749594727E+03  0.11017990953E+03  0.00000000000E+00 0.  1.
         13    1    4    4    0    0 -0.21601123122E+02  0.65948746193E+02  0.10813123848E+03  0.12848428067E+03  0.00000000000E+00 0. -1.
         21    1    1    2  502  503  0.60569774581E+02  0.14931826608E+02  0.41557323712E+03  0.42022942835E+03  0.00000000000E+00 0.  1.
         21    1    1    2  503  501  0.28341204293E+02  0.17705359754E+02 -0.14180309272E+02  0.36301305704E+02  0.00000000000E+00 0.  1.
<scales pt_clust_5="13000.00000" pt_clust_6="13000.00000" pt_clust_7="13000.00000" pt_clust_8="13000.00000" pt_clust_9="62.73225" pt_clust_10="33.41712"></scales>
<clustering>
<clus scale="   33.417">  2 10  1 -1</clus>
<clus scale="   62.732">  1  9  2 -1</clus>
<clus scale="   90.671">  5  6 -1 -1</clus>
<clus scale="   91.574">  7  8 -1 -1</clus>
<clus scale="  116.841">  2  5  1 -1</clus>
<clus scale="   62.732">  1  5  2 -1</clus>
</clustering>
</event>
<event>
10    2  0.1898324E-006  0.1665311E+03  0.7546771E-02  0.1187438E+00
         -1   -1    0    0    0  501 -0.00000000000E+00  0.00000000000E+00  0.40460946866E+02  0.40460946866E+02  0.00000000000E+00 0.  1.
          1   -1    0    0  502    0  0.00000000000E+00 -0.00000000000E+00 -0.99539930016E+03  0.99539930016E+03  0.00000000000E+00 0. -1.
         23    2    1    2    0    0 -0.13098509185E+03  0.38084087289E+01 -0.25694226602E+03  0.30217649817E+03  0.90109431888E+02 0.  0.
         23    2    1    2    0    0  0.94682454905E+02 -0.19759581189E+02 -0.51119525192E+03  0.53407501296E+03  0.12066617407E+03 0.  0.
        -13    1    3    3    0    0 -0.42445616287E+02 -0.12260064014E+02 -0.17493662951E+03  0.18042938745E+03  0.00000000000E+00 0. -1.
         13    1    3    3    0    0 -0.88539475560E+02  0.16068472743E+02 -0.82005636506E+02  0.12174711071E+03  0.00000000000E+00 0.  1.
        -13    1    4    4    0    0 -0.27421615616E+02  0.95101025449E+01 -0.90319947290E+02  0.94868751082E+02  0.00000000000E+00 0.  1.
         13    1    4    4    0    0  0.12210407052E+03 -0.29269683734E+02 -0.42087530463E+03  0.43920626188E+03  0.00000000000E+00 0. -1.
         21    1    1    2  502  503  0.22524654455E+02  0.32562791260E+02 -0.16183285781E+03  0.16660603021E+03  0.00000000000E+00 0. -1.
         21    1    1    2  503  501  0.13777982487E+02 -0.16611618799E+02 -0.24967977542E+02  0.33002705694E+02  0.00000000000E+00 0. -1.
<scales pt_clust_5="13000.00000" pt_clust_6="13000.00000" pt_clust_7="13000.00000" pt_clust_8="13000.00000" pt_clust_9="39.23638" pt_clust_10="21.58191"></scales>
<clustering>
<clus scale="   21.582">  1 10  2 -1</clus>
<clus scale="   39.236">  2  9  1 -1</clus>
<clus scale="   90.109">  5  6 -1 -1</clus>
<clus scale="  120.666">  7  8 -1 -1</clus>
<clus scale="  145.918">  1  5  2 -1</clus>
<clus scale="   39.236">  2  5  1 -1</clus>
</clustering>
</event>
<event>
10    2  0.1898324E-006  0.2412509E+03  0.7546771E-02  0.1156380E+00
          2   -1    0    0  502    0  0.00000000000E+00  0.00000000000E+00  0.12673793727E+04  0.12673793727E+04  0.00000000000E+00 0. -1.
         -2   -1    0    0    0  501 -0.00000000000E+00 -0.00000000000E+00 -0.75524603055E+02  0.75524603055E+02  0.00000000000E+00 0.  1.
         23    2    1    2    0    0  0.65065109882E+02 -0.24487982179E+03  0.61341470709E+03  0.67003491474E+03  0.92030367013E+02 0.  0.
         23    2    1    2    0    0 -0.21675851251E+01  0.22721463268E+02  0.21743378294E+03  0.23784213411E+03  0.93650774008E+02 0.  0.
        -13    1    3    3    0    0 -0.55056910968E+01 -0.12248028264E+03  0.21764346994E+03  0.24980074515E+03  0.00000000000E+00 0. -1.
         13    1    3    3    0    0  0.70570800979E+02 -0.12239953915E+03  0.39577123715E+03  0.42023416959E+03  0.00000000000E+00 0.  1.
        -13    1    4    4    0    0 -0.23828225425E+02  0.48366211252E+02  0.17834856857E+03  0.18632038705E+03  0.00000000000E+00 0.  1.
         13    1    4    4    0    0  0.21660640300E+02 -0.25644747984E+02  0.39085214370E+02  0.51521747056E+02  0.00000000000E+00 0. -1.
         21    1    1    2  502  503 -0.17984860029E+02  0.18612083021E+02  0.86878443794E+02  0.90651689563E+02  0.00000000000E+00 0. -1.
         21    1    1    2  503  501 -0.44912664728E+02  0.20354627550E+03  0.27412783578E+03  0.34437523731E+03  0.00000000000E+00 0.  1.
<scales pt_clust_5="13000.00000" pt_clust_6="13000.00000" pt_clust_7="13000.00000" pt_clust_8="13000.00000" pt_clust_9="25.88175" pt_clust_10="223.00766"></scales>
<clustering>
<clus scale="   25.882">  1  9  2 -1</clus>
<clus scale="   92.030">  5  6 -1 -1</clus>
<clus scale="   93.651">  7  8 -1 -1</clus>
<clus scale="   97.441">  1  7  2 -1</clus>
<clus scale="  223.008">  2 10  1 -1</clus>
<clus scale="   25.882">  1  5  2 -1</clus>
</clustering>
</event>
<event>
10    2  0.1898324E-006  0.1668771E+03  0.7546771E-02  0.1195010E+00
          1   -1    0    0  502    0  0.00000000000E+00  0.00000000000E+00  0.49320919505E+03  0.49320919505E+03  0.00000000000E+00 0. -1.
         -1   -1    0    0    0  501 -0.00000000000E+00 -0.00000000000E+00 -0.26865542111E+03  0.26865542111E+03  0.00000000000E+00 0.  1.
         23    2    1    2    0    0  0.38903091580E+02  0.79648683802E+02 -0.14476351005E+03  0.19215359378E+03  0.90050910023E+02 0.  0.
         23    2    1    2    0    0  0.91417172207E+02 -0.16130727560E+03  0.83197631921E+02  0.22329476623E+03  0.92528753012E+02 0.  0.
        -11    1    4    4    0    0  0.20533192946E+02 -0.40672975996E+02 -0.19674850864E+02  0.49628648435E+02  0.00000000000E+00 0.  1.
         11    1    4    4    0    0  0.70883979261E+02 -0.12063429961E+03  0.10287248279E+03  0.17366611780E+03  0.00000000000E+00 0. -1.
        -11    1    3    3    0    0  0.15897247358E+02  0.38008125659E+02 -0.13810203477E+03  0.14411631447E+03  0.00000000000E+00 0.  1.
         11    1    3    3    0    0  0.23005844222E+02  0.41640558143E+02 -0.66614752816E+01  0.48037279313E+02  0.00000000000E+00 0. -1.
         21    1    1    2  502  503 -0.10441219255E+03  0.80365498646E+02  0.29152592384E+03  0.31991855776E+03  0.00000000000E+00 0.  1.
         21    1    1    2  503  501 -0.25908071236E+02  0.12930931540E+01 -0.54062717822E+01  0.26497698385E+02  0.00000000000E+00 0. -1.
<scales pt_clust_5="13000.00000" pt_clust_6="13000.00000" pt_clust_7="13000.00000" pt_clust_8="13000.00000" pt_clust_9="138.87545" pt_clust_10="25.94032"></scales>
<clustering>
<clus scale="   25.940">  2 10  1 -1</clus>
<clus scale="   90.051">  7  8 -1 -1</clus>
<clus scale="   92.529">  5  6 -1 -1</clus>
<clus scale="  122.715">  2  7  1 -1</clus>
<clus scale="  138.875">  1  9  2 -1</clus>
<clus scale="  138.875">  1  5  2 -1</clus>
</clustering>
</event>
<event>
10    2  0.1898324E-006  0.9473276E+02  0.7546771E-02  0.1292488E+00
         -1   -1    0    0    0  501 -0.00000000000E+00  0.00000000000E+00  0.22707687433E+03  0.22707687433E+03  0.00000000000E+00 0.  1.
          1   -1    0    0  502    0  0.00000000000E+00 -0.00000000000E+00 -0.22805814133E+03  0.22805814133E+03  0.00000000000E+00 0. -1.
         23    2    1    2    0    0  0.31947482149E+02 -0.22665634022E+02  0.66877849460E+02  0.11914424356E+03  0.90489399617E+02 0.  0.
         23    2    1    2    0    0 -0.29221404337E+02 -0.39375370902E+02 -0.32456832636E+02  0.10899794992E+03  0.91775796354E+02 0.  0.
        -13    1    4    4    0    0  0.82434162627E+01 -0.50538425804E+02 -0.44763904200E+02  0.68013921470E+02  0.00000000000E+00 0.  1.
         13    1    4    4    0    0 -0.37464820600E+02  0.11163054903E+02  0.12307071564E+02  0.40984028448E+02  0.00000000000E+00 0. -1.
        -13    1    3    3    0    0 -0.18849126549E+02 -0.15964139641E+02  0.63106901371E+02  0.67768903834E+02  0.00000000000E+00 0.  1.
         13    1    3    3    0    0  0.50796608698E+02 -0.67014943809E+01  0.37709480892E+01  0.51375339723E+02  0.00000000000E+00 0. -1.
         21    1    1    2  502  503  0.27087886530E+02  0.80723399015E+02 -0.11317700794E+03  0.14162999637E+03  0.00000000000E+00 0. -1.
         21    1    1    2  503  501 -0.29813964342E+02 -0.18682394091E+02  0.77774724116E+02  0.85362825808E+02  0.00000000000E+00 0. -1.
<scales pt_clust_5="13000.00000" pt_clust_6="13000.00000" pt_clust_7="13000.00000" pt_clust_8="13000.00000" pt_clust_9="82.51688" pt_clust_10="35.18386"></scales>
<clustering>
<clus scale="   35.184">  1 10  2 -1</clus>
<clus scale="   82.517">  2  9  1 -1</clus>
<clus scale="   90.489">  7  8 -1 -1</clus>
<clus scale="   91.776">  5  6 -1 -1</clus>
<clus scale="   93.487">  1  7  2 -1</clus>
<clus scale="   82.517">  2  5  1 -1</clus>
</clustering>
</event>
<event>
10    2  0.1898324E-006  0.9920991E+02  0.7546771E-02  0.1283633E+00
          1   -1    0    0  502    0  0.00000000000E+00  0.00000000000E+00  0.38200588277E+03  0.38200588277E+03  0.00000000000E+00 0. -1.
         -1   -1    0    0    0  501 -0.00000000000E+00 -0.00000000000E+00 -0.10252789399E+03  0.10252789399E+03  0.00000000000E+00 0.  1.
         23    2    1    2    0    0 -0.39994664856E+02 -0.30661680568E+02  0.11495609469E+02  0.10508159993E+03  0.91489243818E+02 0.  0.
         23    2    1    2    0    0 -0.65456656551E+02  0.36476541713E+02  0.19335269153E+03  0.22531843841E+03  0.88136390809E+02 0.  0.
        -11    1    3    3    0    0  0.18612997925E-01 -0.45306313073E+02  0.34233233407E+02  0.56785355684E+02  0.00000000000E+00 0.  1.
         11    1    3    3    0    0 -0.40013277854E+02  0.14644632505E+02 -0.22737623938E+02  0.48296244244E+02  0.00000000000E+00 0. -1.
        -13    1    4    4    0    0 -0.32379710614E+02  0.64202923387E+02  0.13184343500E+03  0.15017707010E+03  0.00000000000E+00 0. -1.
         13    1    4    4    0    0 -0.33076945937E+02 -0.27726381674E+02  0.61509256534E+02  0.75141368318E+02  0.00000000000E+00 0.  1.
         21    1    1    2  502  503  0.16958628497E+02 -0.29307525256E+02  0.48075343292E+02  0.58802761412E+02  0.00000000000E+00 0.  1.
         21    1    1    2  503  501  0.88492692910E+02  0.23492664111E+02  0.26554344480E+02  0.95330977003E+02  0.00000000000E+00 0. -1.
<scales pt_clust_5="13000.00000" pt_clust_6="13000.00000" pt_clust_7="13000.00000" pt_clust_8="13000.00000" pt_clust_9="33.86039" pt_clust_10="93.40022"></scales>
<clustering>
<clus scale="   33.860">  1  9  2 -1</clus>
<clus scale="   88.136">  7  8 -1 -1</clus>
<clus scale="   91.489">  5  6 -1 -1</clus>
<clus scale="   93.400">  2 10  1 -1</clus>
<clus scale="   96.127">  1  7  2 -1</clus>
<clus scale="   33.860">  1  5  2 -1</clus>
</clustering>
</event>
<event>
10    2  0.1898324E-006  0.9978727E+02  0.7546771E-02  0.1282651E+00
          1   -1    0    0  502    0  0.00000000000E+00  0.00000000000E+00  0.24620596342E+03  0.24620596342E+03  0.00000000000E+00 0. -1.
         -1   -1    0    0    0  501 -0.00000000000E+00 -0.00000000000E+00 -0.40723651489E+03  0.40723651489E+03  0.00000000000E+00 0.  1.
         23    2    1    2    0    0  0.10656688453E+02 -0.44579369196E+01 -0.17474323328E+03  0.19807773077E+03  0.92553506901E+02 0.  0.
         23    2    1    2    0    0  0.56634378514E+01 -0.77636715807E+02  0.81576289571E+02  0.14824213700E+03  0.96236718518E+02 0.  0.
        -13    1    3    3    0    0 -0.55853366725E+01  0.21303370681E+02 -0.13871896091E+01  0.22067031588E+02  0.00000000000E+00 0. -1.
         13    1    3    3    0    0  0.16242025125E+02 -0.25761307600E+02 -0.17335604367E+03  0.17601069918E+03  0.00000000000E+00 0.  1.
        -13    1    4    4    0    0 -0.32910003323E+02  0.20787924489E+01  0.35360514354E+02  0.48350343041E+02  0.00000000000E+00 0. -1.
         13    1    4    4    0    0  0.38573441174E+02 -0.79715508256E+02  0.46215775217E+02  0.99891793955E+02  0.00000000000E+00 0.  1.
         21    1    1    2  502  503 -0.22029016283E+02  0.56241757610E+02  0.11096786499E+03  0.12634191671E+03  0.00000000000E+00 0. -1.
         21    1    1    2  503  501  0.57088899787E+01  0.25852895116E+02 -0.17883147276E+03  0.18078069383E+03  0.00000000000E+00 0.  1.
<scales pt_clust_5="13000.00000" pt_clust_6="13000.00000" pt_clust_7="13000.00000" pt_clust_8="13000.00000" pt_clust_9="61.14738" pt_clust_10="26.47572"></scales>
<clustering>
<clus scale="   26.476">  2 10  1 -1</clus>
<clus scale="   61.147">  1  9  2 -1</clus>
<clus scale="   92.554">  5  6 -1 -1</clus>
<clus scale="   96.237">  7  8 -1 -1</clus>
<clus scale="   96.240">  2  5  1 -1</clus>
<clus scale="   61.147">  1  5  2 -1</clus>
</clustering>
</event>
<event>
10    2  0.1898324E-006  0.9794408E+02  0.7546771E-02  0.1285666E+00
         -4   -1    0    0    0  501 -0.00000000000E+00  0.00000000000E+00  0.19350665048E+03  0.19350665048E+03  0.00000000000E+00 0.  1.
          4   -1    0    0  502    0  0.00000000000E+00 -0.00000000000E+00 -0.11132959845E+03  0.11132959845E+03  0.00000000000E+00 0. -1.
         23    2    1    2    0    0  0.10465246176E+01 -0.41967727548E+02  0.73312143567E+02  0.12587592531E+03  0.93315019199E+02 0.  0.
         23    2    1    2    0    0 -0.22848706904E+02  0.34508414162E+02 -0.21970696256E+02  0.10272627213E+03  0.91417074099E+02 0.  0.
        -11    1    3    3    0    0 -0.36907851560E+02 -0.31140797627E+02  0.71609892560E+02  0.86370802335E+02  0.00000000000E+00 0.  1.
         11    1    3    3    0    0  0.37954376177E+02 -0.10826929921E+02  0.17022510076E+01  0.39505122972E+02  0.00000000000E+00 0. -1.
        -11    1    4    4    0    0  0.51987592584E+01  0.57134830603E+02 -0.31502157942E+02  0.65450759513E+02  0.00000000000E+00 0. -1.
         11    1    4    4    0    0 -0.28047466162E+02 -0.22626416441E+02  0.95314616859E+01  0.37275512618E+02  0.00000000000E+00 0.  1.
         21    1    1    2  502  503  0.17494489554E+02 -0.22052568954E+02 -0.60574605661E+01  0.28793502579E+02  0.00000000000E+00 0. -1.
         21    1    1    2  503  501  0.43076927325E+01  0.29511882341E+02  0.36893065283E+02  0.47440548921E+02  0.00000000000E+00 0. -1.
<scales pt_clust_5="13000.00000" pt_clust_6="13000.00000" pt_clust_7="13000.00000" pt_clust_8="13000.00000" pt_clust_9="28.14912" pt_clust_10="28.76405"></scales>
<clustering>
<clus scale="   28.149">  2  9  1 -1</clus>
<clus scale="   28.764">  1 10  2 -1</clus>
<clus scale="   91.417">  7  8 -1 -1</clus>
<clus scale="   93.315">  5  6 -1 -1</clus>
<clus scale="   96.138">  2  7  1 -1</clus>
<clus scale="   28.149">  2  5  1 -1</clus>
</clustering>
</event>
<event>
10    2  0.1898324E-006  0.1816948E+03  0.7546771E-02  0.1187728E+00
         -1   -1    0    0    0  501 -0.00000000000E+00  0.00000000000E+00  0.40346499207E+03  0.40346499207E+03  0.00000000000E+00 0.  1.
          1   -1    0    0  502    0  0.00000000000E+00 -0.00000000000E+00 -0.51161587651E+03  0.51161587651E+03  0.00000000000E+00 0. -1.
         23    2    1    2    0    0 -0.31669841722E+02  0.54355331898E+02  0.16384602392E+03  0.19817914881E+03  0.92043329407E+02 0.  0.
         23    2    1    2    0    0 -0.10040857631E+02 -0.14009983520E+03 -0.82681810940E+02  0.18795429164E+03  0.93604226619E+02 0.  0.
        -11    1    3    3    0    0 -0.46446153946E+02  0.71470096395E+02  0.10566093418E+03  0.13575512111E+03  0.00000000000E+00 0.  1.
         11    1    3    3    0    0  0.14776312223E+02 -0.17114764497E+02  0.58185089735E+02  0.62424027699E+02  0.00000000000E+00 0. -1.
        -13    1    4    4    0    0 -0.20154060361E+02  0.26435927962E+00 -0.33087230954E+02  0.38743010816E+02  0.00000000000E+00 0.  1.
         13    1    4    4    0    0  0.10113202730E+02 -0.14036419448E+03 -0.49594579985E+02  0.14921128083E+03  0.00000000000E+00 0. -1.
         21    1    1    2  502  503 -0.50104227757E+02 -0.28906974663E+02 -0.32432403918E+03  0.32944214851E+03  0.00000000000E+00 0. -1.
         21    1    1    2  503  501  0.91814927110E+02  0.11465147797E+03  0.13500894176E+03  0.19950527962E+03  0.00000000000E+00 0.  1.
<scales pt_clust_5="13000.00000" pt_clust_6="13000.00000" pt_clust_7="13000.00000" pt_clust_8="13000.00000" pt_clust_9="57.84502" pt_clust_10="155.72811"></scales>
<clustering>
<clus scale="   57.845">  2  9  1 -1</clus>
<clus scale="   92.043">  5  6 -1 -1</clus>
<clus scale="   93.604">  7  8 -1 -1</clus>
<clus scale="  111.630">  1  5  2 -1</clus>
<clus scale="  155.728">  1 10  2 -1</clus>
<clus scale="   57.845">  2  5  1 -1</clus>
</clustering>
</event>
<event>
10    2  0.1898324E-006  0.1241172E+03  0.7546771E-02  0.1237622E+00
         -1   -1    0    0    0  501 -0.00000000000E+00  0.00000000000E+00  0.11599603926E+03  0.11599603926E+03  0.00000000000E+00 0.  1.
          1   -1    0    0  502    0  0.00000000000E+00 -0.00000000000E+00 -0.42978719862E+03  0.42978719862E+03  0.00000000000E+00 0. -1.
         23    2    1    2    0    0 -0.45082619670E+01 -0.84523939649E+02  0.34752325270E+02  0.13043579964E+03  0.92957801798E+02 0.  0.
         23    2    1    2    0    0 -0.18260898545E+02  0.70705567075E+02 -0.22786263024E+03  0.25530124842E+03  0.89020287338E+02 0.  0.
        -11    1    3    3    0    0 -0.23303154956E+02 -0.96700027363E+02  0.40368836916E+02  0.10734791715E+03  0.00000000000E+00 0.  1.
         11    1    3    3    0    0  0.18794892989E+02  0.12176087714E+02 -0.56165116457E+01  0.23087882483E+02  0.00000000000E+00 0. -1.
        -13    1    4    4    0    0 -0.21600794713E+01 -0.20749476204E+02 -0.27982238661E+02  0.34902899401E+02  0.00000000000E+00 0.  1.
         13    1    4    4    0    0 -0.16100819073E+02  0.91455043279E+02 -0.19988039157E+03  0.22039834902E+03  0.00000000000E+00 0. -1.
         21    1    1    2  502  503  0.10234306318E+02 -0.36951083569E+02 -0.93615814571E+02  0.10116345358E+03  0.00000000000E+00 0.  1.
         21    1    1    2  503  501  0.12534854194E+02  0.50769456143E+02 -0.27065039818E+02  0.58882736239E+02  0.00000000000E+00 0.  1.
<scales pt_clust_5="13000.00000" pt_clust_6="13000.00000" pt_clust_7="13000.00000" pt_clust_8="13000.00000" pt_clust_9="38.34219" pt_clust_10="48.03469"></scales>
<clustering>
<clus scale="   38.342">  2  9  1 -1</clus>
<clus scale="   48.035">  2 10  1 -1</clus>
<clus scale="   89.020">  7  8 -1 -1</clus>
<clus scale="   92.958">  5  6 -1 -1</clus>
<clus scale="  121.196">  2  7  1 -1</clus>
<clus scale="   38.342">  2  5  1 -1</clus>
</clustering>
</event>
<event>
10    2  0.1898324E-006  0.1395173E+03  0.7546771E-02  0.1214270E+00
         -2   -1    0    0    0  501 -0.00000000000E+00  0.00000000000E+00  0.14667609112E+03  0.14667609112E+03  0.00000000000E+00 0.  1.
          2   -1    0    0  502    0  0.00000000000E+00 -0.00000000000E+00 -0.12031751597E+04  0.12031751597E+04  0.00000000000E+00 0. -1.
         23    2    1    2    0    0  0.95963862596E+02 -0.41624951375E+02  0.84666336050E+02  0.16240962461E+03  0.90921934677E+02 0.  0.
         23    2    1    2    0    0 -0.14332248238E+03  0.17361985556E+02 -0.82051696551E+03  0.83820989740E+03  0.92222388382E+02 0.  0.
        -11    1    3    3    0    0  0.28856161117E+02  0.10588407335E+02  0.69562745467E+02  0.76051087837E+02  0.00000000000E+00 0. -1.
         11    1    3    3    0    0  0.67107701480E+02 -0.52213358710E+02  0.15103590583E+02  0.86358536776E+02  0.00000000000E+00 0.  1.
        -13    1    4    4    0    0 -0.28676750230E+02  0.36662737516E+02 -0.13245860842E+03  0.14039870110E+03  0.00000000000E+00 0.  1.
         13    1    4    4    0    0 -0.11464573215E+03 -0.19300751961E+02 -0.68805835709E+03  0.69781119631E+03  0.00000000000E+00 0. -1.
         21    1    1    2  502  503  0.63093480037E+02  0.47901646777E+02 -0.30821490855E+03  0.31823228127E+03  0.00000000000E+00 0.  1.
         21    1    1    2  503  501 -0.15734860258E+02 -0.23638680957E+02 -0.12433530561E+02  0.30999447526E+02  0.00000000000E+00 0. -1.
<scales pt_clust_5="13000.00000" pt_clust_6="13000.00000" pt_clust_7="13000.00000" pt_clust_8="13000.00000" pt_clust_9="78.23992" pt_clust_10="28.39671"></scales>
<clustering>
<clus scale="   28.397">  1 10  2 -1</clus>
<clus scale="   78.240">  2  9  1 -1</clus>
<clus scale="   90.922">  5  6 -1 -1</clus>
<clus scale="   92.222">  7  8 -1 -1</clus>
<clus scale="  138.661">  1  5  2 -1</clus>
<clus scale="   78.240">  2  5  1 -1</clus>
</clustering>
</event>
<event>
10    2  0.1898324E-006  0.9519361E+02  0.7546771E-02  0.1291233E+00
         -1   -1    0    0    0  501 -0.00000000000E+00  0.00000000000E+00  0.43238636118E+03  0.43238636118E+03  0.00000000000E+00 0.  1.
          1   -1    0    0  502    0  0.00000000000E+00 -0.00000000000E+00 -0.50099172940E+02  0.50099172940E+02  0.00000000000E+00 0. -1.
         23    2    1    2    0    0  0.31380888008E+02  0.19437154076E+01  0.16289831342E+03  0.18935257994E+03  0.91268838342E+02 0.  0.
         23    2    1    2    0    0 -0.11748498335E+02  0.29701531335E+02  0.34912346889E+02  0.10199885746E+03  0.90358656369E+02 0.  0.
        -11    1    3    3    0    0  0.96982775625E+01  0.25490719637E+02  0.15362483875E+03  0.15602699913E+03  0.00000000000E+00 0. -1.
         11    1    3    3    0    0  0.21682610445E+02 -0.23547004229E+02  0.92734746680E+01  0.33325580810E+02  0.00000000000E+00 0.  1.
        -11    1    4    4    0    0 -0.17912334867E+01  0.54288996379E+02  0.47937372390E+02  0.72446499687E+02  0.00000000000E+00 0.  1.
         11    1    4    4    0    0 -0.99572648479E+01 -0.24587465044E+02 -0.13025025501E+02  0.29552357772E+02  0.00000000000E+00 0. -1.
         21    1    1    2  502  503 -0.20712960018E+02 -0.10999219059E+02  0.51867842637E+02  0.56923480502E+02  0.00000000000E+00 0. -1.
         21    1    1    2  503  501  0.10805703450E+01 -0.20646027683E+02  0.13260868530E+03  0.13421061623E+03  0.00000000000E+00 0. -1.
<scales pt_clust_5="13000.00000" pt_clust_6="13000.00000" pt_clust_7="13000.00000" pt_clust_8="13000.00000" pt_clust_9="25.27147" pt_clust_10="20.67429"></scales>
<clustering>
<clus scale="   20.674">  1 10  2 -1</clus>
<clus scale="   25.271">  1  9  2 -1</clus>
<clus scale="   90.359">  7  8 -1 -1</clus>
<clus scale="   91.269">  5  6 -1 -1</clus>
<clus scale="   94.321">  2  7  1 -1</clus>
<clus scale="   94.321">  2  5  1 -1</clus>
</clustering>
</event>
<event>
10    2  0.1898324E-006  0.9837933E+02  0.7546771E-02  0.1285040E+00
          1   -1    0    0  502    0  0.00000000000E+00  0.00000000000E+00  0.17337343495E+03  0.17337343495E+03  0.00000000000E+00 0. -1.
         -1   -1    0    0    0  501 -0.00000000000E+00 -0.00000000000E+00 -0.14531849274E+03  0.14531849274E+03  0.00000000000E+00 0.  1.
         23    2    1    2    0    0  0.25879980607E+02 -0.37813650808E+01 -0.11134378620E+02  0.96142738843E+02  0.91844323325E+02 0.  0.
         23    2    1    2    0    0 -0.20300707273E+02 -0.30279987255E+02  0.33013625477E+02  0.10638559243E+03  0.94334503053E+02 0.  0.
        -11    1    4    4    0    0 -0.19851799634E+02 -0.62864659182E+02  0.10447580111E+02  0.66747368884E+02  0.00000000000E+00 0.  1.
         11    1    4    4    0    0 -0.44890763946E+00  0.32584671927E+02  0.22566045366E+02  0.39638223549E+02  0.00000000000E+00 0. -1.
        -13    1    3    3    0    0  0.46917544790E+02  0.23256246174E+02  0.13343356947E+02  0.54038450847E+02  0.00000000000E+00 0. -1.
         13    1    3    3    0    0 -0.21037564184E+02 -0.27037611255E+02 -0.24477735567E+02  0.42104287996E+02  0.00000000000E+00 0.  1.
         21    1    1    2  502  503 -0.23151272546E+02  0.43875803066E+02  0.48449602699E+02  0.69342854836E+02  0.00000000000E+00 0.  1.
         21    1    1    2  503  501  0.17571999212E+02 -0.98144507302E+01 -0.42273907343E+02  0.46820741574E+02  0.00000000000E+00 0. -1.
<scales pt_clust_5="13000.00000" pt_clust_6="13000.00000" pt_clust_7="13000.00000" pt_clust_8="13000.00000" pt_clust_9="47.87268" pt_clust_10="20.12706"></scales>
<clustering>
<clus scale="   20.127">  2 10  1 -1</clus>
<clus scale="   47.873">  1  9  2 -1</clus>
<clus scale="   91.844">  7  8 -1 -1</clus>
<clus scale="   94.335">  5  6 -1 -1</clus>
<clus scale="   95.994">  2  7  1 -1</clus>
<clus scale="   47.873">  1  5  2 -1</clus>
</clustering>
</event>
<event>
10    2  0.1898324E-006  0.1085951E+03  0.7546771E-02  0.1263919E+00
          2   -1    0    0  502    0  0.00000000000E+00  0.00000000000E+00  0.48029346536E+03  0.48029346536E+03  0.00000000000E+00 0. -1.
         -2   -1    0    0    0  501 -0.00000000000E+00 -0.00000000000E+00 -0.25213600848E+03  0.25213600848E+03  0.00000000000E+00 0.  1.
         23    2    1    2    0    0 -0.42743705204E+02 -0.40173269689E+02 -0.13611062912E+03  0.17341071712E+03  0.90023649791E+02 0.  0.
         23    2    1    2    0    0  0.63786323584E+02  0.90998909969E+01 -0.32247549822E+02  0.11672609756E+03  0.91834494004E+02 0.  0.
        -13    1    3    3    0    0 -0.22476285653E+01  0.24017737897E+02 -0.97709778539E+01  0.26026439943E+02  0.00000000000E+00 0. -1.
         13    1    3    3    0    0 -0.40496076639E+02 -0.64191007586E+02 -0.12633965127E+03  0.14738427718E+03  0.00000000000E+00 0.  1.
        -13    1    4    4    0    0  0.84836079370E+02  0.95671383864E+01 -0.40012235791E+02  0.94285043951E+02  0.00000000000E+00 0. -1.
         13    1    4    4    0    0 -0.21049755786E+02 -0.46724738946E+00  0.77646859688E+01  0.22441053607E+02  0.00000000000E+00 0.  1.
         21    1    1    2  502  503  0.30884947187E+02  0.35639027609E+02  0.38630653823E+03  0.38917446182E+03  0.00000000000E+00 0. -1.
         21    1    1    2  503  501 -0.51927565567E+02 -0.45656489165E+01  0.10209097592E+02  0.53118197347E+02  0.00000000000E+00 0. -1.
<scales pt_clust_5="13000.00000" pt_clust_6="13000.00000" pt_clust_7="13000.00000" pt_clust_8="13000.00000" pt_clust_9="47.15952" pt_clust_10="42.05872"></scales>
<clustering>
<clus scale="   47.160">  1  9  2 -1</clus>
<clus scale="   42.059">  1 10  2 -1</clus>
<clus scale="   90.024">  5  6 -1 -1</clus>
<clus scale="   91.834">  7  8 -1 -1</clus>
<clus scale="  107.068">  2  5  1 -1</clus>
<clus scale="   47.160">  1  5  2 -1</clus>
</clustering>
</event>
<event>
10    2  0.1898324E-006  0.1101706E+03  0.7546771E-02  0.1263147E+00
          2   -1    0    0  502    0  0.00000000000E+00  0.00000000000E+00  0.36472029012E+03  0.36472029012E+03  0.00000000000E+00 0. -1.
         -2   -1    0    0    0  501 -0.00000000000E+00 -0.00000000000E+00 -0.14452865110E+03  0.14452865110E+03  0.00000000000E+00 0.  1.
         23    2    1    2    0    0 -0.13957380283E+02 -0.30254642619E+02 -0.24034429174E+02  0.97071038000E+02  0.87948739436E+02 0.  0.
         23    2    1    2    0    0  0.86411890886E+02  0.29155467545E+02  0.13112380794E+02  0.13238281957E+03  0.95059035405E+02 0.  0.
        -11    1    3    3    0    0  0.31498174096E+02 -0.29688104301E+02 -0.27821643627E+02  0.51454468830E+02  0.00000000000E+00 0. -1.
         11    1    3    3    0    0 -0.45455554379E+02 -0.56653831784E+00  0.37872144539E+01  0.45616569171E+02  0.00000000000E+00 0.  1.
        -13    1    4    4    0    0  0.50636530102E+02  0.43937336679E+02 -0.30857380419E+02  0.73801935351E+02  0.00000000000E+00 0.  1.
         13    1    4    4    0    0  0.35775360785E+02 -0.14781869134E+02  0.43969761213E+02  0.58580884216E+02  0.00000000000E+00 0. -1.
         21    1    1    2  502  503 -0.54018041651E+02  0.27108403749E+02  0.23935393094E+03  0.24686660089E+03  0.00000000000E+00 0. -1.
         21    1    1    2  503  501 -0.18436468952E+02 -0.26009228674E+02 -0.82402435443E+01  0.32928482767E+02  0.00000000000E+00 0. -1.
<scales pt_clust_5="13000.00000" pt_clust_6="13000.00000" pt_clust_7="13000.00000" pt_clust_8="13000.00000" pt_clust_9="60.59188" pt_clust_10="31.88077"></scales>
<clustering>
<clus scale="   31.881">  2 10  1 -1</clus>
<clus scale="   60.592">  1  9  2 -1</clus>
<clus scale="   87.949">  5  6 -1 -1</clus>
<clus scale="   95.059">  7  8 -1 -1</clus>
<clus scale="  104.098">  2  5  1 -1</clus>
<clus scale="   60.592">  1  5  2 -1</clus>
</clustering>
</event>
<event>
10    2  0.1898324E-006  0.2359524E+03  0.7546771E-02  0.1122551E+00
         -2   -1    0    0    0  501 -0.00000000000E+00  0.00000000000E+00  0.16928213108E+03  0.16928213108E+03  0.00000000000E+00 0.  1.
          2   -1    0    0  503    0  0.00000000000E+00 -0.00000000000E+00 -0.72979066276E+03  0.72979066276E+03  0.00000000000E+00 0. -1.
         23    2    1    2    0    0  0.22910642568E+03 -0.32326538363E+02 -0.97878487867E+02  0.26771606559E+03  0.92503697318E+02 0.  0.
         23    2    1    2    0    0 -0.20911643874E+03  0.36471795898E+02 -0.47080499517E+03  0.52475147926E+03  0.92988680259E+02 0.  0.
        -11    1    3    3    0    0  0.18787846254E+03 -0.22250862574E+02 -0.35850882739E+02  0.19255831160E+03  0.00000000000E+00 0.  1.
         11    1    3    3    0    0  0.41227963138E+02 -0.10075675790E+02 -0.62027605128E+02  0.75157753992E+02  0.00000000000E+00 0. -1.
        -13    1    4    4    0    0 -0.17913122808E+03  0.64486584359E+02 -0.37625325158E+03  0.42167881825E+03  0.00000000000E+00 0. -1.
         13    1    4    4    0    0 -0.29985210656E+02 -0.28014788461E+02 -0.94551743597E+02  0.10307266101E+03  0.00000000000E+00 0.  1.
         21    1    1    2  502  501  0.21796492798E+02  0.31573737133E+02 -0.21660215877E+02  0.44058517073E+02  0.00000000000E+00 0. -1.
         21    1    1    2  503  502 -0.41786479744E+02 -0.35718994668E+02  0.29835167237E+02  0.62546731918E+02  0.00000000000E+00 0. -1.
<scales pt_clust_5="13000.00000" pt_clust_6="13000.00000" pt_clust_7="13000.00000" pt_clust_8="13000.00000" pt_clust_9="38.36650" pt_clust_10="44.23017"></scales>
<clustering>
<clus scale="   38.366">  1  9  2 -1</clus>
<clus scale="   44.230">  1 10  2 -1</clus>
<clus scale="   92.504">  5  6 -1 -1</clus>
<clus scale="   92.989">  7  8 -1 -1</clus>
<clus scale="  235.762">  1  5  2 -1</clus>
<clus scale="  235.952">  2  5  1 -1</clus>
</clustering>
</event>
<event>
10    2  0.1898324E-006  0.1058494E+03  0.7546771E-02  0.1272211E+00
         -4   -1    0    0    0  501 -0.00000000000E+00  0.00000000000E+00  0.20666069329E+03  0.20666069329E+03  0.00000000000E+00 0.  1.
          4   -1    0    0  502    0  0.00000000000E+00 -0.00000000000E+00 -0.11968729365E+03  0.11968729365E+03  0.00000000000E+00 0. -1.
         23    2    1    2    0    0 -0.31454402444E+02  0.39048468784E+02  0.86169676210E+02  0.13987741197E+03  0.98113785643E+02 0.  0.
         23    2    1    2    0    0 -0.79485231167E+01 -0.25608271555E+02 -0.39113742073E+02  0.10178910909E+03  0.90067615263E+02 0.  0.
        -13    1    3    3    0    0 -0.64000535391E+02  0.73825476313E+01  0.45011467235E+02  0.78591365445E+02  0.00000000000E+00 0. -1.
         13    1    3    3    0    0  0.32546132948E+02  0.31665921153E+02  0.41158208975E+02  0.61286046522E+02  0.00000000000E+00 0.  1.
        -13    1    4    4    0    0  0.14332893523E+02  0.28615222447E+02 -0.27125336550E+02  0.41952910214E+02  0.00000000000E+00 0.  1.
         13    1    4    4    0    0 -0.22281416640E+02 -0.54223494003E+02 -0.11988405523E+02  0.59836198879E+02  0.00000000000E+00 0. -1.
         21    1    1    2  502  503  0.25549780417E+01 -0.24438981839E+02 -0.54906820918E+01  0.25178151957E+02  0.00000000000E+00 0. -1.
         21    1    1    2  503  501  0.36847947519E+02  0.10998784610E+02  0.45408147599E+02  0.59503313921E+02  0.00000000000E+00 0.  1.
<scales pt_clust_5="13000.00000" pt_clust_6="13000.00000" pt_clust_7="13000.00000" pt_clust_8="13000.00000" pt_clust_9="24.57217" pt_clust_10="38.18256"></scales>
<clustering>
<clus scale="   24.572">  2  9  1 -1</clus>
<clus scale="   38.183">  1 10  2 -1</clus>
<clus scale="   90.068">  7  8 -1 -1</clus>
<clus scale="   98.114">  5  6 -1 -1</clus>
<clus scale="   98.438">  2  7  1 -1</clus>
<clus scale="   24.572">  2  5  1 -1</clus>
</clustering>
</event>
<event>
10    2  0.1898324E-006  0.1136376E+03  0.7546771E-02  0.1258419E+00
         -1   -1    0    0    0  501 -0.00000000000E+00  0.00000000000E+00  0.96208015495E+02  0.96208015495E+02  0.00000000000E+00 0.  1.
          1   -1    0    0  502    0  0.00000000000E+00 -0.00000000000E+00 -0.68657773538E+03  0.68657773538E+03  0.00000000000E+00 0. -1.
         23    2    1    2    0    0 -0.44011223741E+02  0.32502552431E+02 -0.64983882603E+02  0.12456446808E+03  0.91104324704E+02 0.  0.
         23    2    1    2    0    0  0.36537585155E+02  0.23555510776E+02 -0.32076481116E+03  0.33935267307E+03  0.10188383298E+03 0.  0.
        -13    1    4    4    0    0 -0.14914990668E+02 -0.28465681261E+02 -0.15280383044E+03  0.15614660596E+03  0.00000000000E+00 0.  1.
         13    1    4    4    0    0  0.51452575823E+02  0.52021192036E+02 -0.16796098073E+03  0.18320606711E+03  0.00000000000E+00 0. -1.
        -13    1    3    3    0    0 -0.16739682482E+02  0.48324827902E+02  0.13058408693E+01  0.51158686278E+02  0.00000000000E+00 0.  1.
         13    1    3    3    0    0 -0.27271541259E+02 -0.15822275471E+02 -0.66289723472E+02  0.73405781800E+02  0.00000000000E+00 0. -1.
         21    1    1    2  502  503  0.23850801356E+02 -0.23397576187E+02 -0.25469779786E+03  0.25687988542E+03  0.00000000000E+00 0. -1.
         21    1    1    2  503  501 -0.16377162770E+02 -0.32660487019E+02  0.50076771745E+02  0.61988724306E+02  0.00000000000E+00 0.  1.
<scales pt_clust_5="13000.00000" pt_clust_6="13000.00000" pt_clust_7="13000.00000" pt_clust_8="13000.00000" pt_clust_9="33.41119" pt_clust_10="36.68054"></scales>
<clustering>
<clus scale="   33.411">  2  9  1 -1</clus>
<clus scale="   36.681">  1 10  2 -1</clus>
<clus scale="   91.104">  7  8 -1 -1</clus>
<clus scale="  101.884">  5  6 -1 -1</clus>
<clus scale="  104.083">  1  7  2 -1</clus>
<clus scale="   33.411">  2  5  1 -1</clus>
</clustering>
</event>
<event>
10    2  0.1898324E-006  0.1186906E+03  0.7546771E-02  0.1257631E+00
         -1   -1    0    0    0  501 -0.00000000000E+00  0.00000000000E+00  0.11652099150E+03  0.11652099150E+03  0.00000000000E+00 0.  1.
          1   -1    0    0  502    0  0.00000000000E+00 -0.00000000000E+00 -0.19469511885E+03  0.19469511885E+03  0.00000000000E+00 0. -1.
         23    2    1    2    0    0  0.11664076878E+02  0.26811804981E+02 -0.15578190975E+02  0.96905438061E+02  0.91066241363E+02 0.  0.
         23    2    1    2    0    0 -0.17362594544E+02 -0.39451696864E+01 -0.81790827012E+02  0.14415092600E+03  0.11735725810E+03 0.  0.
        -13    1    4    4    0    0  0.36004827722E+02  0.35382537799E+02 -0.48354956435E+02  0.69903314744E+02  0.00000000000E+00 0.  1.
         13    1    4    4    0    0 -0.53367422266E+02 -0.39327707485E+02 -0.33435870576E+02  0.74247611251E+02  0.00000000000E+00 0. -1.
        -13    1    3    3    0    0  0.25983392475E+02 -0.19267985905E+02  0.19024400055E+02  0.37527586691E+02  0.00000000000E+00 0. -1.
         13    1    3    3    0    0 -0.14319315597E+02  0.46079790886E+02 -0.34602591031E+02  0.59377851370E+02  0.00000000000E+00 0.  1.
         21    1    1    2  502  503  0.26649190782E+02 -0.37377408809E+01 -0.10688120911E+02  0.28954896043E+02  0.00000000000E+00 0.  1.
         21    1    1    2  503  501 -0.20950673116E+02 -0.19128894414E+02  0.29883011546E+02  0.41204850255E+02  0.00000000000E+00 0. -1.
<scales pt_clust_5="13000.00000" pt_clust_6="13000.00000" pt_clust_7="13000.00000" pt_clust_8="13000.00000" pt_clust_9="26.91004" pt_clust_10="27.82240"></scales>
<clustering>
<clus scale="   26.910">  2  9  1 -1</clus>
<clus scale="   27.822">  1 10  2 -1</clus>
<clus scale="   91.066">  7  8 -1 -1</clus>
<clus scale="   92.778">  1  7  2 -1</clus>
<clus scale="  117.357">  5  6 -1 -1</clus>
<clus scale="   26.910">  2  5  1 -1</clus>
</clustering>
</event>
<event>
10    2  0.1898324E-006  0.1126671E+03  0.7546771E-02  0.1256622E+00
          1   -1    0    0  502    0  0.00000000000E+00  0.00000000000E+00  0.25019746338E+03  0.25019746338E+03  0.00000000000E+00 0. -1.
         -1   -1    0    0    0  501 -0.00000000000E+00 -0.00000000000E+00 -0.13761627684E+03  0.13761627684E+03  0.00000000000E+00 0.  1.
         23    2    1    2    0    0  0.63993598383E+01  0.36536269728E+02 -0.70153456163E+02  0.12017255687E+03  0.90244585440E+02 0.  0.
         23    2    1    2    0    0  0.25874161183E+02 -0.81354637366E+02  0.12779989367E+03  0.17948626711E+03  0.92706299796E+02 0.  0.
        -11    1    3    3    0    0 -0.24034365423E+02 -0.26475964356E+01 -0.66110642940E+02  0.70393732662E+02  0.00000000000E+00 0.  1.
         11    1    3    3    0    0  0.30433725261E+02  0.39183866164E+02 -0.40428132226E+01  0.49778824208E+02  0.00000000000E+00 0. -1.
        -13    1    4    4    0    0  0.55053526764E+02 -0.26835681225E+02  0.82890079646E+02  0.10306216522E+03  0.00000000000E+00 0.  1.
         13    1    4    4    0    0 -0.29179365582E+02 -0.54518956141E+02  0.44909814025E+02  0.76424101893E+02  0.00000000000E+00 0. -1.
         21    1    1    2  502  503 -0.15476467548E+02  0.15464930168E+02  0.49209594123E+02  0.53854148091E+02  0.00000000000E+00 0.  1.
         21    1    1    2  503  501 -0.16797053473E+02  0.29353437469E+02  0.57251549095E+01  0.34300768145E+02  0.00000000000E+00 0.  1.
<scales pt_clust_5="13000.00000" pt_clust_6="13000.00000" pt_clust_7="13000.00000" pt_clust_8="13000.00000" pt_clust_9="21.87887" pt_clust_10="35.95075"></scales>
<clustering>
<clus scale="   21.879">  1  9  2 -1</clus>
<clus scale="   35.951">  2 10  1 -1</clus>
<clus scale="   90.245">  5  6 -1 -1</clus>
<clus scale="   92.706">  7  8 -1 -1</clus>
<clus scale="  110.650">  2  5  1 -1</clus>
<clus scale="   21.879">  1  5  2 -1</clus>
</clustering>
</event>
<event>
10    2  0.1898324E-006  0.1306102E+03  0.7546771E-02  0.1243255E+00
         -1   -1    0    0    0  501 -0.00000000000E+00  0.00000000000E+00  0.64844423481E+03  0.64844423481E+03  0.00000000000E+00 0.  1.
          1   -1    0    0  502    0  0.00000000000E+00 -0.00000000000E+00 -0.17308744248E+03  0.17308744248E+03  0.00000000000E+00 0. -1.
         23    2    1    2    0    0 -0.50489329924E+02  0.78924740929E+02  0.19476938826E+03  0.23545751069E+03  0.93417544222E+02 0.  0.
         23    2    1    2    0    0 -0.67733525703E+02  0.16734739140E+02 -0.97024941984E+01  0.11580455702E+03  0.91916674416E+02 0.  0.
        -11    1    4    4    0    0 -0.46663668712E+02  0.32989696043E+02 -0.44192832063E+02  0.72241431522E+02  0.00000000000E+00 0. -1.
         11    1    4    4    0    0 -0.21069856991E+02 -0.16254956903E+02  0.34490337864E+02  0.43563125502E+02  0.00000000000E+00 0.  1.
        -13    1    3    3    0    0 -0.42755525513E+02 -0.91636746362E+01  0.69850805478E+02  0.82408391082E+02  0.00000000000E+00 0. -1.
         13    1    3    3    0    0 -0.77338044110E+01  0.88088415565E+02  0.12491858279E+03  0.15304911961E+03  0.00000000000E+00 0.  1.
         21    1    1    2  502  503  0.82372168384E+02 -0.12156114905E+02 -0.63677971062E+02  0.10482284700E+03  0.00000000000E+00 0. -1.
         21    1    1    2  503  501  0.35850687244E+02 -0.83503365164E+02  0.35396786933E+03  0.36544676259E+03  0.00000000000E+00 0.  1.
<scales pt_clust_5="13000.00000" pt_clust_6="13000.00000" pt_clust_7="13000.00000" pt_clust_8="13000.00000" pt_clust_9="83.26431" pt_clust_10="91.28075"></scales>
<clustering>
<clus scale="   83.264">  2  9  1 -1</clus>
<clus scale="   91.917">  5  6 -1 -1</clus>
<clus scale="   92.770">  2  5  1 -1</clus>
<clus scale="   91.281">  1 10  2 -1</clus>
<clus scale="   93.418">  7  8 -1 -1</clus>
<clus scale="   83.264">  2  5  1 -1</clus>
</clustering>
</event>
<event>
10    2  0.1898324E-006  0.1016831E+03  0.7546771E-02  0.1280435E+00
          1   -1    0    0  502    0  0.00000000000E+00  0.00000000000E+00  0.10156164656E+03  0.10156164656E+03  0.00000000000E+00 0. -1.
         -1   -1    0    0    0  501 -0.00000000000E+00 -0.00000000000E+00 -0.39911609409E+03  0.39911609409E+03  0.00000000000E+00 0.  1.
         23    2    1    2    0    0 -0.20476583063E+02 -0.15462817543E+02 -0.19086063235E+03  0.21212604438E+03  0.88945424528E+02 0.  0.
         23    2    1    2    0    0  0.63604980134E+02  0.10364188031E+02 -0.55332188157E+02  0.12832053455E+03  0.96184711095E+02 0.  0.
        -11    1    4    4    0    0  0.69495469774E+02 -0.29207620749E+02 -0.41077620264E+02  0.85849148601E+02  0.00000000000E+00 0.  1.
         11    1    4    4    0    0 -0.58904896398E+01  0.39571808780E+02 -0.14254567893E+02  0.42471385945E+02  0.00000000000E+00 0. -1.
        -11    1    3    3    0    0 -0.44504630262E+02 -0.38818331960E+02 -0.12036789659E+03  0.13407444030E+03  0.00000000000E+00 0. -1.
         11    1    3    3    0    0  0.24028047198E+02  0.23355514417E+02 -0.70492735755E+02  0.78051604084E+02  0.00000000000E+00 0.  1.
         21    1    1    2  502  503 -0.39014103557E+02 -0.20508089964E+02  0.43476760903E+02  0.61910506128E+02  0.00000000000E+00 0. -1.
         21    1    1    2  503  501 -0.41142935130E+01  0.25606719476E+02 -0.94838387926E+02  0.98320655601E+02  0.00000000000E+00 0.  1.
<scales pt_clust_5="13000.00000" pt_clust_6="13000.00000" pt_clust_7="13000.00000" pt_clust_8="13000.00000" pt_clust_9="43.83023" pt_clust_10="25.93514"></scales>
<clustering>
<clus scale="   25.935">  2 10  1 -1</clus>
<clus scale="   43.830">  1  9  2 -1</clus>
<clus scale="   88.945">  7  8 -1 -1</clus>
<clus scale="   94.864">  2  7  1 -1</clus>
<clus scale="   96.185">  5  6 -1 -1</clus>
<clus scale="   43.830">  1  5  2 -1</clus>
</clustering>
</event>
<event>
10    2  0.1898324E-006  0.1665442E+03  0.7546771E-02  0.1201217E+00
          1   -1    0    0  502    0  0.00000000000E+00  0.00000000000E+00  0.56398795564E+03  0.56398795564E+03  0.00000000000E+00 0. -1.
         -1   -1    0    0    0  501 -0.00000000000E+00 -0.00000000000E+00 -0.24731466455E+03  0.24731466455E+03  0.00000000000E+00 0.  1.
         23    2    1    2    0    0  0.58688123190E+02 -0.11825346140E+02 -0.94869483894E+02  0.14407591420E+03  0.90407496718E+02 0.  0.
         23    2    1    2    0    0  0.89160361649E+02 -0.57818588563E+02  0.62977713740E+02  0.15476286865E+03  0.93235153312E+02 0.  0.
        -11    1    3    3    0    0  0.50903787527E+02  0.17286227984E+02 -0.10886211435E+02  0.54849966836E+02  0.00000000000E+00 0. -1.
         11    1    3    3    0    0  0.77843356631E+01 -0.29111574124E+02 -0.83983272460E+02  0.89225947362E+02  0.00000000000E+00 0.  1.
        -11    1    4    4    0    0  0.22940242722E+02 -0.16095897368E+01  0.63885763012E+02  0.67898720392E+02  0.00000000000E+00 0. -1.
         11    1    4    4    0    0  0.66220118927E+02 -0.56208998826E+02 -0.90804927162E+00  0.86864148262E+02  0.00000000000E+00 0.  1.
         21    1    1    2  502  503 -0.14541332098E+03  0.30873891009E+02  0.41204542140E+03  0.43804070628E+03  0.00000000000E+00 0. -1.
         21    1    1    2  503  501 -0.24351638614E+01  0.38770043694E+02 -0.63480360150E+02  0.74423131054E+02  0.00000000000E+00 0. -1.
<scales pt_clust_5="13000.00000" pt_clust_6="13000.00000" pt_clust_7="13000.00000" pt_clust_8="13000.00000" pt_clust_9="138.00064" pt_clust_10="38.84645"></scales>
<clustering>
<clus scale="   38.846">  2 10  1 -1</clus>
<clus scale="   90.407">  5  6 -1 -1</clus>
<clus scale="   93.235">  7  8 -1 -1</clus>
<clus scale="  107.838">  2  5  1 -1</clus>
<clus scale="  138.001">  1  9  2 -1</clus>
<clus scale="  138.001">  1  5  2 -1</clus>
</clustering>
</event>
<event>
10    2  0.1898324E-006  0.3074574E+03  0.7546771E-02  0.1102097E+00
         -1   -1    0    0    0  501 -0.00000000000E+00  0.00000000000E+00  0.37474406694E+03  0.37474406694E+03  0.00000000000E+00 0.  1.
          1   -1    0    0  502    0  0.00000000000E+00 -0.00000000000E+00 -0.21969279723E+04  0.21969279723E+04  0.00000000000E+00 0. -1.
         23    2    1    2    0    0 -0.17376717210E+02  0.18447544111E+03  0.23977657773E+03  0.31544668560E+03  0.87639406405E+02 0.  0.
         23    2    1    2    0    0 -0.25846829078E+03 -0.15187885105E+03 -0.50215701281E+03  0.59207242373E+03  0.92277010612E+02 0.  0.
        -11    1    3    3    0    0 -0.29788743309E+02  0.13067332461E+02  0.29880447866E+02  0.44169735909E+02  0.00000000000E+00 0.  1.
         11    1    3    3    0    0  0.12412026099E+02  0.17140810864E+03  0.20989612986E+03  0.27127694969E+03  0.00000000000E+00 0. -1.
        -13    1    4    4    0    0 -0.17203347436E+03 -0.14657929048E+03 -0.34050731653E+03  0.40868843550E+03  0.00000000000E+00 0.  1.
         13    1    4    4    0    0 -0.86434816420E+02 -0.52995605732E+01 -0.16164969628E+03  0.18338398823E+03  0.00000000000E+00 0. -1.
         21    1    1    2  502  503  0.30026375559E+03  0.73548932524E+01 -0.15834593176E+04  0.16116934659E+04  0.00000000000E+00 0. -1.
         21    1    1    2  503  501 -0.24418747594E+02 -0.39951483303E+02  0.23655847348E+02  0.52459464026E+02  0.00000000000E+00 0. -1.
<scales pt_clust_5="13000.00000" pt_clust_6="13000.00000" pt_clust_7="13000.00000" pt_clust_8="13000.00000" pt_clust_9="293.28318" pt_clust_10="46.82303"></scales>
<clustering>
<clus scale="   46.823">  1 10  2 -1</clus>
<clus scale="   87.639">  5  6 -1 -1</clus>
<clus scale="   92.277">  7  8 -1 -1</clus>
<clus scale="  179.026">  1  5  2 -1</clus>
<clus scale="  293.283">  2  9  1 -1</clus>
<clus scale="  293.283">  2  5  1 -1</clus>
</clustering>
</event>
<event>
10    2  0.5201830E-006  0.1683226E+03  0.7546771E-02  0.1185379E+00
          1   -1    0    0  502    0  0.00000000000E+00  0.00000000000E+00  0.37092111308E+03  0.37092111308E+03  0.00000000000E+00 0. -1.
         -1   -1    0    0    0  501 -0.00000000000E+00 -0.00000000000E+00 -0.39045482819E+03  0.39045482819E+03  0.00000000000E+00 0.  1.
         23    2    1    2    0    0 -0.14135453384E+02  0.11785788209E+03 -0.33400401542E+03  0.36593003988E+03  0.90861544996E+02 0.  0.
         23    2    1    2    0    0  0.28782094656E+02 -0.79368862127E+02  0.25955389591E+03  0.29866655499E+03  0.12126689961E+03 0.  0.
        -11    1    3    3    0    0 -0.43335729032E+02  0.29185129065E+02 -0.82438417505E+02  0.97600460297E+02  0.00000000000E+00 0. -1.
         11    1    3    3    0    0  0.29200275648E+02  0.88672753020E+02 -0.25156559791E+03  0.26832957958E+03  0.00000000000E+00 0.  1.
        -13    1    4    4    0    0 -0.23202559127E+02 -0.91452510229E+02  0.16913897408E+03  0.19367476069E+03  0.00000000000E+00 0. -1.
         13    1    4    4    0    0  0.51984653783E+02  0.12083648102E+02  0.90414921833E+02  0.10499179430E+03  0.00000000000E+00 0.  1.
         21    1    1    2  502  503 -0.25442936047E+02 -0.39199604607E+01  0.54819939071E+02  0.60563477480E+02  0.00000000000E+00 0.  1.
         21    1    1    2  503  501  0.10796294775E+02 -0.34569059498E+02  0.96465323303E-01  0.36215868911E+02  0.00000000000E+00 0. -1.
<scales pt_clust_5="13000.00000" pt_clust_6="13000.00000" pt_clust_7="13000.00000" pt_clust_8="13000.00000" pt_clust_9="25.74314" pt_clust_10="36.02321"></scales>
<clustering>
<clus scale="   25.743">  1  9  2 -1</clus>
<clus scale="   36.023">  1 10  2 -1</clus>
<clus scale="   90.862">  5  6 -1 -1</clus>
<clus scale="  121.267">  7  8 -1 -1</clus>
<clus scale="  147.928">  2  5  1 -1</clus>
<clus scale="   25.743">  1  5  2 -1</clus>
</clustering>
</event>
<event>
10    2  0.1898324E-006  0.2424814E+03  0.7546771E-02  0.1118254E+00
         -2   -1    0    0    0  501 -0.00000000000E+00  0.00000000000E+00  0.64905975871E+03  0.64905975871E+03  0.00000000000E+00 0.  1.
          2   -1    0    0  502    0  0.00000000000E+00 -0.00000000000E+00 -0.39505940462E+03  0.39505940462E+03  0.00000000000E+00 0. -1.
         23    2    1    2    0    0 -0.23629770132E+03  0.66207682853E+02  0.51856612870E+03  0.58107792550E+03  0.92307446911E+02 0.  0.
         23    2    1    2    0    0  0.14812254625E+03  0.13727403709E+02 -0.62879726124E+02  0.18520350581E+03  0.90651796930E+02 0.  0.
        -11    1    4    4    0    0  0.55959931723E+02 -0.10342925975E+02  0.18583986730E+02  0.59865304133E+02  0.00000000000E+00 0.  1.
         11    1    4    4    0    0  0.92162614522E+02  0.24070329684E+02 -0.81463712854E+02  0.12533820167E+03  0.00000000000E+00 0. -1.
        -13    1    3    3    0    0 -0.22955240035E+03  0.42476072878E+02  0.43172714316E+03  0.49080224879E+03  0.00000000000E+00 0.  1.
         13    1    3    3    0    0 -0.67453009709E+01  0.23731609975E+02  0.86838985532E+02  0.90275676710E+02  0.00000000000E+00 0. -1.
         21    1    1    2  502  503  0.50652015935E+00  0.38675067363E+02 -0.19147964337E+02  0.43158567359E+02  0.00000000000E+00 0. -1.
         21    1    1    2  503  501  0.87668634917E+02 -0.11861015393E+03 -0.18253808415E+03  0.23467916466E+03  0.00000000000E+00 0. -1.
<scales pt_clust_5="13000.00000" pt_clust_6="13000.00000" pt_clust_7="13000.00000" pt_clust_8="13000.00000" pt_clust_9="38.67838" pt_clust_10="130.52742"></scales>
<clustering>
<clus scale="   38.678">  2  9  1 -1</clus>
<clus scale="   90.652">  5  6 -1 -1</clus>
<clus scale="   92.307">  7  8 -1 -1</clus>
<clus scale="  130.527">  2 10  1 -1</clus>
<clus scale="  241.856">  2  5  1 -1</clus>
<clus scale="   38.678">  2  5  1 -1</clus>
</clustering>
</event>
<event>
10    2  0.1898324E-006  0.1138314E+03  0.7546771E-02  0.1253991E+00
         -2   -1    0    0    0  501 -0.00000000000E+00  0.00000000000E+00  0.17336606325E+03  0.17336606325E+03  0.00000000000E+00 0.  1.
          2   -1    0    0  502    0  0.00000000000E+00 -0.00000000000E+00 -0.37579853647E+03  0.37579853647E+03  0.00000000000E+00 0. -1.
         23    2    1    2    0    0  0.49910367919E+02 -0.74313231521E+02  0.69057291849E+02  0.14535259198E+03  0.91350781236E+02 0.  0.
         23    2    1    2    0    0 -0.11037474027E+01  0.49897199574E+02 -0.29381127474E+03  0.31199805566E+03  0.92340526238E+02 0.  0.
        -11    1    3    3    0    0 -0.21622357221E+02 -0.29925744573E+02  0.44165190867E+02  0.57564230250E+02  0.00000000000E+00 0.  1.
         11    1    3    3    0    0  0.71532725140E+02 -0.44387486949E+02  0.24892100982E+02  0.87788361728E+02  0.00000000000E+00 0. -1.
        -13    1    4    4    0    0 -0.45467891818E+02  0.13195714500E+02 -0.12810703493E+03  0.13657550463E+03  0.00000000000E+00 0.  1.
         13    1    4    4    0    0  0.44364144415E+02  0.36701485074E+02 -0.16570423981E+03  0.17542255102E+03  0.00000000000E+00 0. -1.
         21    1    1    2  502  503 -0.26612325945E+02  0.98694145589E+01 -0.24827764030E+02  0.37709933740E+02  0.00000000000E+00 0. -1.
         21    1    1    2  503  501 -0.22194294572E+02  0.14546617388E+02  0.47149273709E+02  0.54104018338E+02  0.00000000000E+00 0. -1.
<scales pt_clust_5="13000.00000" pt_clust_6="13000.00000" pt_clust_7="13000.00000" pt_clust_8="13000.00000" pt_clust_9="29.74256" pt_clust_10="26.53659"></scales>
<clustering>
<clus scale="   26.537">  1 10  2 -1</clus>
<clus scale="   29.743">  2  9  1 -1</clus>
<clus scale="   91.351">  5  6 -1 -1</clus>
<clus scale="   92.341">  7  8 -1 -1</clus>
<clus scale="  113.030">  1  5  2 -1</clus>
<clus scale="   29.743">  2  5  1 -1</clus>
</clustering>
</event>
<event>
10    2  0.1898324E-006  0.2034036E+03  0.7546771E-02  0.1150591E+00
         -1   -1    0    0    0  501 -0.00000000000E+00  0.00000000000E+00  0.37679299067E+03  0.37679299067E+03  0.00000000000E+00 0.  1.
          1   -1    0    0  502    0  0.00000000000E+00 -0.00000000000E+00 -0.38399150867E+03  0.38399150867E+03  0.00000000000E+00 0. -1.
         23    2    1    2    0    0  0.29471858474E+01  0.11731218155E+03  0.58398208273E+02  0.17986434920E+03  0.12316655202E+03 0.  0.
         23    2    1    2    0    0 -0.72640140181E+01 -0.20116743579E+03 -0.42488457821E+02  0.22548241185E+03  0.92281882735E+02 0.  0.
        -11    1    3    3    0    0 -0.56266457751E+02  0.67114614834E+02  0.94394733520E+01  0.88087396654E+02  0.00000000000E+00 0. -1.
         11    1    3    3    0    0  0.59213643599E+02  0.50197566720E+02  0.48958734921E+02  0.91776952542E+02  0.00000000000E+00 0.  1.
        -13    1    4    4    0    0 -0.28091478413E+02 -0.46884664471E+02  0.19332908169E+02  0.57974686375E+02  0.00000000000E+00 0.  1.
         13    1    4    4    0    0  0.20827464395E+02 -0.15428277132E+03 -0.61821365991E+02  0.16750772547E+03  0.00000000000E+00 0. -1.
         21    1    1    2  502  503 -0.17561878435E+02  0.23634906571E+02 -0.18186819421E+03  0.18423644712E+03  0.00000000000E+00 0. -1.
         21    1    1    2  503  501  0.21878706606E+02  0.60220347667E+02  0.15875992575E+03  0.17120129118E+03  0.00000000000E+00 0.  1.
<scales pt_clust_5="13000.00000" pt_clust_6="13000.00000" pt_clust_7="13000.00000" pt_clust_8="13000.00000" pt_clust_9="29.44535" pt_clust_10="64.57813"></scales>
<clustering>
<clus scale="   29.445">  2  9  1 -1</clus>
<clus scale="   64.578">  1 10  2 -1</clus>
<clus scale="   92.282">  7  8 -1 -1</clus>
<clus scale="  123.167">  5  6 -1 -1</clus>
<clus scale="  186.330">  2  7  1 -1</clus>
<clus scale="   29.445">  2  5  1 -1</clus>
</clustering>
</event>
<event>
10    2  0.1898324E-006  0.1411449E+03  0.7546771E-02  0.1212053E+00
          1   -1    0    0  502    0  0.00000000000E+00  0.00000000000E+00  0.12549827595E+04  0.12549827595E+04  0.00000000000E+00 0. -1.
         -1   -1    0    0    0  501 -0.00000000000E+00 -0.00000000000E+00 -0.41945541101E+02  0.41945541101E+02  0.00000000000E+00 0.  1.
         23    2    1    2    0    0 -0.16599573920E+03  0.38667459963E+02  0.54172903930E+03  0.57521541856E+03  0.91392931018E+02 0.  0.
         23    2    1    2    0    0  0.39572391755E+02 -0.58223565068E+02  0.27723148493E+03  0.30063561663E+03  0.92566300708E+02 0.  0.
        -11    1    3    3    0    0 -0.43197451631E+02  0.53402379478E+02  0.22269385017E+03  0.23304588575E+03  0.00000000000E+00 0.  1.
         11    1    3    3    0    0 -0.12279828757E+03 -0.14734919515E+02  0.31903518913E+03  0.34216953281E+03  0.00000000000E+00 0. -1.
        -11    1    4    4    0    0  0.56942798516E+02 -0.28793669165E+02  0.24667072093E+03  0.25479011412E+03  0.00000000000E+00 0.  1.
         11    1    4    4    0    0 -0.17370406760E+02 -0.29429895903E+02  0.30560764001E+02  0.45845502508E+02  0.00000000000E+00 0. -1.
         21    1    1    2  502  503  0.28767229281E+02  0.18448413348E+02  0.20936915425E+03  0.21213990710E+03  0.00000000000E+00 0. -1.
         21    1    1    2  503  501  0.97656118165E+02  0.11076917564E+01  0.18470753996E+03  0.20893735835E+03  0.00000000000E+00 0.  1.
<scales pt_clust_5="13000.00000" pt_clust_6="13000.00000" pt_clust_7="13000.00000" pt_clust_8="13000.00000" pt_clust_9="34.17451" pt_clust_10="103.18026"></scales>
<clustering>
<clus scale="   34.175">  1  9  2 -1</clus>
<clus scale="   91.393">  5  6 -1 -1</clus>
<clus scale="   92.566">  7  8 -1 -1</clus>
<clus scale="  103.180">  2 10  1 -1</clus>
<clus scale="  140.378">  2  5  1 -1</clus>
<clus scale="   34.175">  1  5  2 -1</clus>
</clustering>
</event>
<event>
10    2  0.1898324E-006  0.1185315E+03  0.7546771E-02  0.1245798E+00
          2   -1    0    0  502    0  0.00000000000E+00  0.00000000000E+00  0.76861921985E+03  0.76861921985E+03  0.00000000000E+00 0. -1.
         -2   -1    0    0    0  501 -0.00000000000E+00 -0.00000000000E+00 -0.46999660719E+02  0.46999660719E+02  0.00000000000E+00 0.  1.
         23    2    1    2    0    0 -0.25083412353E+02  0.73474294297E+02  0.95162174888E+02  0.15340723854E+03  0.91925468775E+02 0.  0.
         23    2    1    2    0    0  0.40115412651E+02 -0.35203773832E+02  0.40819921133E+03  0.42163967408E+03  0.91131040840E+02 0.  0.
        -13    1    4    4    0    0  0.69640687619E+02 -0.28295566133E+02  0.28167280304E+03  0.29153049996E+03  0.00000000000E+00 0. -1.
         13    1    4    4    0    0 -0.29525274968E+02 -0.69082076991E+01  0.12652640829E+03  0.13010917412E+03  0.00000000000E+00 0.  1.
        -13    1    3    3    0    0  0.15343513283E+02 -0.13385431270E+02  0.34345924248E+02  0.39927881018E+02  0.00000000000E+00 0. -1.
         13    1    3    3    0    0 -0.40426925636E+02  0.86859725567E+02  0.60816250641E+02  0.11347935752E+03  0.00000000000E+00 0.  1.
         21    1    1    2  502  503 -0.31943709452E+02 -0.56639503049E+02  0.19804498720E+03  0.20844723753E+03  0.00000000000E+00 0. -1.
         21    1    1    2  503  501  0.16911709154E+02  0.18368982584E+02  0.20213185712E+02  0.32124730416E+02  0.00000000000E+00 0.  1.
<scales pt_clust_5="13000.00000" pt_clust_6="13000.00000" pt_clust_7="13000.00000" pt_clust_8="13000.00000" pt_clust_9="61.95035" pt_clust_10="24.96849"></scales>
<clustering>
<clus scale="   24.968">  2 10  1 -1</clus>
<clus scale="   61.950">  1  9  2 -1</clus>
<clus scale="   91.131">  5  6 -1 -1</clus>
<clus scale="   91.925">  7  8 -1 -1</clus>
<clus scale="  117.916">  1  5  2 -1</clus>
<clus scale="   61.950">  1  5  2 -1</clus>
</clustering>
</event>
<event>
10    2  0.1898324E-006  0.1535000E+03  0.7546771E-02  0.1196443E+00
          4   -1    0    0  502    0  0.00000000000E+00  0.00000000000E+00  0.39857707788E+03  0.39857707788E+03  0.00000000000E+00 0. -1.
         -4   -1    0    0    0  501 -0.00000000000E+00 -0.00000000000E+00 -0.86639914429E+02  0.86639914429E+02  0.00000000000E+00 0.  1.
         23    2    1    2    0    0 -0.93656684375E+02  0.68616051441E+02  0.13141273877E+03  0.19683495035E+03  0.89414499538E+02 0.  0.
         23    2    1    2    0    0  0.10109942225E+03 -0.85573864974E+02  0.14794739609E+03  0.21826208682E+03  0.90586571800E+02 0.  0.
        -11    1    3    3    0    0 -0.58761206974E+01  0.57196723009E+02  0.43715875175E+02  0.72229299178E+02  0.00000000000E+00 0. -1.
         11    1    3    3    0    0 -0.87780563678E+02  0.11419328432E+02  0.87696863591E+02  0.12460565118E+03  0.00000000000E+00 0.  1.
        -11    1    4    4    0    0  0.11278041138E+03 -0.67581895342E+02  0.14637302072E+03  0.19675313203E+03  0.00000000000E+00 0. -1.
         11    1    4    4    0    0 -0.11680989134E+02 -0.17991969632E+02  0.15743753642E+01  0.21508954790E+02  0.00000000000E+00 0.  1.
         21    1    1    2  502  503 -0.21539791509E+02 -0.67261621166E+01  0.35853884262E+02  0.42363957461E+02  0.00000000000E+00 0.  1.
         21    1    1    2  503  501  0.14097053634E+02  0.23683975650E+02 -0.32768556614E+01  0.27755997672E+02  0.00000000000E+00 0.  1.
<scales pt_clust_5="13000.00000" pt_clust_6="13000.00000" pt_clust_7="13000.00000" pt_clust_8="13000.00000" pt_clust_9="22.56555" pt_clust_10="26.99485"></scales>
<clustering>
<clus scale="   22.566">  1  9  2 -1</clus>
<clus scale="   26.995">  2 10  1 -1</clus>
<clus scale="   89.414">  5  6 -1 -1</clus>
<clus scale="   90.587">  7  8 -1 -1</clus>
<clus scale="  152.811">  2  5  1 -1</clus>
<clus scale="   22.566">  1  5  2 -1</clus>
</clustering>
</event>
<event>
10    2  0.1898324E-006  0.9375050E+02  0.7546771E-02  0.1295397E+00
         -2   -1    0    0    0  501 -0.00000000000E+00  0.00000000000E+00  0.33776985105E+03  0.33776985105E+03  0.00000000000E+00 0.  1.
          2   -1    0    0  502    0  0.00000000000E+00 -0.00000000000E+00 -0.68549627328E+02  0.68549627328E+02  0.00000000000E+00 0. -1.
         23    2    1    2    0    0 -0.99116164043E+01  0.17078950808E+02  0.14868782999E+03  0.17502294638E+03  0.90194402668E+02 0.  0.
         23    2    1    2    0    0 -0.27763259023E+02 -0.22692088341E+02  0.65386380389E+01  0.99517034922E+02  0.92602143752E+02 0.  0.
        -13    1    4    4    0    0 -0.28518359442E+02 -0.57439705146E+02  0.85811102509E+01  0.64701251964E+02  0.00000000000E+00 0.  1.
         13    1    4    4    0    0  0.75510041939E+00  0.34747616805E+02 -0.20424722120E+01  0.34815782958E+02  0.00000000000E+00 0. -1.
        -13    1    3    3    0    0 -0.31277514211E+02 -0.26690328924E+02  0.88587042025E+02  0.97664325974E+02  0.00000000000E+00 0.  1.
         13    1    3    3    0    0  0.21365897807E+02  0.43769279732E+02  0.60100787967E+02  0.77358620409E+02  0.00000000000E+00 0. -1.
         21    1    1    2  502  503  0.13887469251E+02  0.22599657395E+02  0.19648858585E+02  0.33010361408E+02  0.00000000000E+00 0. -1.
         21    1    1    2  503  501  0.23787406176E+02 -0.16986519863E+02  0.94344897106E+02  0.98769135663E+02  0.00000000000E+00 0. -1.
<scales pt_clust_5="13000.00000" pt_clust_6="13000.00000" pt_clust_7="13000.00000" pt_clust_8="13000.00000" pt_clust_9="26.52558" pt_clust_10="29.17967"></scales>
<clustering>
<clus scale="   26.526">  2  9  1 -1</clus>
<clus scale="   29.180">  1 10  2 -1</clus>
<clus scale="   90.194">  7  8 -1 -1</clus>
<clus scale="   91.373">  1  7  2 -1</clus>
<clus scale="   92.602">  5  6 -1 -1</clus>
<clus scale="   26.526">  2  5  1 -1</clus>
</clustering>
</event>
<event>
10    2  0.1898324E-006  0.1596120E+03  0.7546771E-02  0.1189559E+00
         -2   -1    0    0    0  501 -0.00000000000E+00  0.00000000000E+00  0.76639889722E+02  0.76639889722E+02  0.00000000000E+00 0.  1.
          2   -1    0    0  502    0  0.00000000000E+00 -0.00000000000E+00 -0.91125025828E+03  0.91125025828E+03  0.00000000000E+00 0. -1.
         23    2    1    2    0    0  0.28027976665E+01  0.10157568598E+03 -0.91716684641E+02  0.16538001503E+03  0.92806914995E+02 0.  0.
         23    2    1    2    0    0 -0.32522767726E+02 -0.13579517023E+03 -0.56368344306E+03  0.58768772047E+03  0.90220696798E+02 0.  0.
        -11    1    3    3    0    0  0.37367949949E+02  0.80187454591E+02 -0.33975644822E+02  0.94766745213E+02  0.00000000000E+00 0.  1.
         11    1    3    3    0    0 -0.34565152282E+02  0.21388231391E+02 -0.57741039819E+02  0.70613269813E+02  0.00000000000E+00 0. -1.
        -11    1    4    4    0    0  0.98555031180E+00 -0.12289962390E+03 -0.34867204992E+03  0.36969918482E+03  0.00000000000E+00 0. -1.
         11    1    4    4    0    0 -0.33508318038E+02 -0.12895546336E+02 -0.21501139314E+03  0.21798853565E+03  0.00000000000E+00 0.  1.
         21    1    1    2  502  503  0.49109862217E+02  0.80442799382E+02 -0.14897254101E+03  0.17628284237E+03  0.00000000000E+00 0.  1.
         21    1    1    2  503  501 -0.19389892157E+02 -0.46223315132E+02 -0.30237699847E+02  0.58539570136E+02  0.00000000000E+00 0. -1.
<scales pt_clust_5="13000.00000" pt_clust_6="13000.00000" pt_clust_7="13000.00000" pt_clust_8="13000.00000" pt_clust_9="83.43600" pt_clust_10="50.12547"></scales>
<clustering>
<clus scale="   50.125">  1 10  2 -1</clus>
<clus scale="   83.436">  1  9  2 -1</clus>
<clus scale="   90.221">  7  8 -1 -1</clus>
<clus scale="   92.807">  5  6 -1 -1</clus>
<clus scale="  158.122">  2  7  1 -1</clus>
<clus scale="  158.122">  2  5  1 -1</clus>
</clustering>
</event>
<event>
10    2  0.1898324E-006  0.2328513E+03  0.7546771E-02  0.1124758E+00
          1   -1    0    0  502    0  0.00000000000E+00  0.00000000000E+00  0.90932870307E+03  0.90932870307E+03  0.00000000000E+00 0. -1.
         -1   -1    0    0    0  501 -0.00000000000E+00 -0.00000000000E+00 -0.99573714066E+02  0.99573714066E+02  0.00000000000E+00 0.  1.
         23    2    1    2    0    0  0.19660772178E+03 -0.11741007453E+03  0.15973032723E+03  0.29311176609E+03  0.89224481584E+02 0.  0.
         23    2    1    2    0    0 -0.18438509602E+03  0.66865518828E+02  0.56533977170E+03  0.60525435186E+03  0.90856544857E+02 0.  0.
        -13    1    4    4    0    0 -0.69123087359E+02  0.21322026363E+02  0.98277790252E+02  0.12202931644E+03  0.00000000000E+00 0.  1.
         13    1    4    4    0    0 -0.11526200866E+03  0.45543492465E+02  0.46706198144E+03  0.48322503542E+03  0.00000000000E+00 0. -1.
        -13    1    3    3    0    0  0.11943183278E+03 -0.19698074363E+02  0.84740255023E+02  0.14775956022E+03  0.00000000000E+00 0.  1.
         13    1    3    3    0    0  0.77175889003E+02 -0.97712000171E+02  0.74990072212E+02  0.14535220587E+03  0.00000000000E+00 0. -1.
         21    1    1    2  502  503 -0.15536660251E+02  0.21523699559E+02  0.75322232786E+02  0.79862983956E+02  0.00000000000E+00 0.  1.
         21    1    1    2  503  501  0.33140344923E+01  0.29020856146E+02  0.93626572891E+01  0.30673315236E+02  0.00000000000E+00 0.  1.
<scales pt_clust_5="13000.00000" pt_clust_6="13000.00000" pt_clust_7="13000.00000" pt_clust_8="13000.00000" pt_clust_9="26.54538" pt_clust_10="29.68484"></scales>
<clustering>
<clus scale="   26.545">  1  9  2 -1</clus>
<clus scale="   29.685">  2 10  1 -1</clus>
<clus scale="   89.224">  7  8 -1 -1</clus>
<clus scale="   90.857">  5  6 -1 -1</clus>
<clus scale="  232.219">  2  7  1 -1</clus>
<clus scale="   26.545">  1  5  2 -1</clus>
</clustering>
</event>
<event>
10    2  0.1898324E-006  0.2316350E+03  0.7546771E-02  0.1127211E+00
         -2   -1    0    0    0  501 -0.00000000000E+00  0.00000000000E+00  0.14618781357E+03  0.14618781357E+03  0.00000000000E+00 0.  1.
          2   -1    0    0  502    0  0.00000000000E+00 -0.00000000000E+00 -0.70277445667E+03  0.70277445667E+03  0.00000000000E+00 0. -1.
         23    2    1    2    0    0 -0.18637638093E+03  0.38891933061E+02 -0.34962865250E+02  0.21702950183E+03  0.98135951061E+02 0.  0.
         23    2    1    2    0    0  0.19614175105E+03 -0.50360227448E+02 -0.43666708595E+03  0.48677551099E+03  0.72556978527E+02 0.  0.
        -13    1    4    4    0    0  0.16480411648E+03 -0.13269702896E+02 -0.31449473507E+03  0.35530750092E+03  0.00000000000E+00 0.  1.
         13    1    4    4    0    0  0.31337634573E+02 -0.37090524552E+02 -0.12217235087E+03  0.13146801006E+03  0.00000000000E+00 0. -1.
        -13    1    3    3    0    0 -0.10457251007E+03  0.70243569026E+02 -0.12523685050E+02  0.12659546413E+03  0.00000000000E+00 0.  1.
         13    1    3    3    0    0 -0.81803870867E+02 -0.31351635965E+02 -0.22439180200E+02  0.90434037699E+02  0.00000000000E+00 0. -1.
         21    1    1    2  502  503  0.22160409874E+02  0.83356784761E+01 -0.10479714702E+03  0.10743839782E+03  0.00000000000E+00 0. -1.
         21    1    1    2  503  501 -0.31925779993E+02  0.31326159112E+01  0.19840455121E+02  0.37718859607E+02  0.00000000000E+00 0.  1.
<scales pt_clust_5="13000.00000" pt_clust_6="13000.00000" pt_clust_7="13000.00000" pt_clust_8="13000.00000" pt_clust_9="23.67630" pt_clust_10="31.76126"></scales>
<clustering>
<clus scale="   23.676">  2  9  1 -1</clus>
<clus scale="   31.761">  1 10  2 -1</clus>
<clus scale="   72.557">  5  6 -1 -1</clus>
<clus scale="   98.136">  7  8 -1 -1</clus>
<clus scale="  222.010">  2  5  1 -1</clus>
<clus scale="   23.676">  2  5  1 -1</clus>
</clustering>
</event>
<event>
10    2  0.1898324E-006  0.1234279E+03  0.7546771E-02  0.1238287E+00
          3   -1    0    0  502    0  0.00000000000E+00  0.00000000000E+00  0.16442629629E+03  0.16442629629E+03  0.00000000000E+00 0. -1.
         -3   -1    0    0    0  501 -0.00000000000E+00 -0.00000000000E+00 -0.24026583214E+03  0.24026583214E+03  0.00000000000E+00 0.  1.
         23    2    1    2    0    0  0.66370673255E+02 -0.26547287403E+02 -0.40510278720E+02  0.12526511865E+03  0.94553913364E+02 0.  0.
         23    2    1    2    0    0 -0.56414413692E+02  0.58057667202E+02  0.30715772088E+02  0.12642937749E+03  0.92128443192E+02 0.  0.
        -11    1    3    3    0    0 -0.12670972695E+02 -0.33508010927E+02  0.74897951948E+00  0.35831568702E+02  0.00000000000E+00 0. -1.
         11    1    3    3    0    0  0.79041645950E+02  0.69607235233E+01 -0.41259258240E+02  0.89433549952E+02  0.00000000000E+00 0.  1.
        -11    1    4    4    0    0  0.12223476079E+02  0.28769224127E+02 -0.19167275792E+02  0.36666961773E+02  0.00000000000E+00 0.  1.
         11    1    4    4    0    0 -0.68637889772E+02  0.29288443074E+02  0.49883047880E+02  0.89762415720E+02  0.00000000000E+00 0. -1.
         21    1    1    2  502  503 -0.20406969551E+02 -0.30736238386E+00  0.38402535255E+02  0.43489005414E+02  0.00000000000E+00 0. -1.
         21    1    1    2  503  501  0.10450709988E+02 -0.31203017415E+02 -0.10444756447E+03  0.10950862687E+03  0.00000000000E+00 0.  1.
<scales pt_clust_5="13000.00000" pt_clust_6="13000.00000" pt_clust_7="13000.00000" pt_clust_8="13000.00000" pt_clust_9="20.40928" pt_clust_10="32.78220"></scales>
<clustering>
<clus scale="   20.409">  1  9  2 -1</clus>
<clus scale="   32.782">  2 10  1 -1</clus>
<clus scale="   92.128">  7  8 -1 -1</clus>
<clus scale="   94.554">  5  6 -1 -1</clus>
<clus scale="  121.580">  1  7  2 -1</clus>
<clus scale="   20.409">  1  5  2 -1</clus>
</clustering>
</event>
<event>
10    2  0.1898324E-006  0.9418800E+02  0.7546771E-02  0.1295079E+00
         -1   -1    0    0    0  501 -0.00000000000E+00  0.00000000000E+00  0.10569220688E+03  0.10569220688E+03  0.00000000000E+00 0.  1.
          1   -1    0    0  502    0  0.00000000000E+00 -0.00000000000E+00 -0.20327457474E+03  0.20327457474E+03  0.00000000000E+00 0. -1.
         23    2    1    2    0    0  0.13593446099E+02 -0.51063779986E+02  0.51646347108E+01  0.10551525036E+03  0.91183897725E+02 0.  0.
         23    2    1    2    0    0 -0.24669552200E+02 -0.46385016867E+01 -0.10753471482E+03  0.14089927746E+03  0.87514507334E+02 0.  0.
        -11    1    3    3    0    0 -0.47111286950E+01  0.25566631203E+02 -0.35911884761E+01  0.26243932619E+02  0.00000000000E+00 0.  1.
         11    1    3    3    0    0  0.18304574794E+02 -0.76630411189E+02  0.87558231869E+01  0.79271317745E+02  0.00000000000E+00 0. -1.
        -13    1    4    4    0    0  0.19271798256E+02  0.19235797431E+02 -0.78466151514E+02  0.83056336568E+02  0.00000000000E+00 0.  1.
         13    1    4    4    0    0 -0.43941350456E+02 -0.23874299117E+02 -0.29068563303E+02  0.57842940890E+02  0.00000000000E+00 0. -1.
         21    1    1    2  502  503  0.75653430147E+01  0.29345000776E+02 -0.10266581599E+02  0.31996346403E+02  0.00000000000E+00 0.  1.
         21    1    1    2  503  501  0.35107630865E+01  0.26357280897E+02  0.15054293843E+02  0.30555907397E+02  0.00000000000E+00 0.  1.
<scales pt_clust_5="13000.00000" pt_clust_6="13000.00000" pt_clust_7="13000.00000" pt_clust_8="13000.00000" pt_clust_9="62.36876" pt_clust_10="24.14534"></scales>
<clustering>
<clus scale="   24.145">  9 10 -1 -1</clus>
<clus scale="   62.369">  1  9  2 -1</clus>
<clus scale="   87.515">  7  8 -1 -1</clus>
<clus scale="   90.640">  2  7  1 -1</clus>
<clus scale="   91.184">  5  6 -1 -1</clus>
<clus scale="   90.640">  2  5  1 -1</clus>
</clustering>
</event>
<event>
10    2  0.1898324E-006  0.1099471E+03  0.7546771E-02  0.1262079E+00
         -2   -1    0    0    0  501 -0.00000000000E+00  0.00000000000E+00  0.80327746787E+02  0.80327746787E+02  0.00000000000E+00 0.  1.
          2   -1    0    0  502    0  0.00000000000E+00 -0.00000000000E+00 -0.45801520507E+03  0.45801520507E+03  0.00000000000E+00 0. -1.
         23    2    1    2    0    0  0.54310948016E+02  0.18124764641E+02 -0.32912813257E+02  0.11335471691E+03  0.92129541422E+02 0.  0.
         23    2    1    2    0    0 -0.53878888759E+02 -0.14697929072E+01 -0.95531170808E+02  0.14095455437E+03  0.88526193049E+02 0.  0.
        -11    1    4    4    0    0 -0.19071403192E+02  0.35884678039E+02 -0.10832583652E+02  0.42056787873E+02  0.00000000000E+00 0.  1.
         11    1    4    4    0    0 -0.34807485566E+02 -0.37354470946E+02 -0.84698587156E+02  0.98897766493E+02  0.00000000000E+00 0. -1.
        -11    1    3    3    0    0  0.76061408953E+02  0.31254279878E+02 -0.19040141223E+02  0.84407907925E+02  0.00000000000E+00 0.  1.
         11    1    3    3    0    0 -0.21750460936E+02 -0.13129515237E+02 -0.13872672035E+02  0.28946808990E+02  0.00000000000E+00 0. -1.
         21    1    1    2  502  503 -0.27663427649E+02 -0.15776895438E+02 -0.25433115211E+03  0.25631720698E+03  0.00000000000E+00 0. -1.
         21    1    1    2  503  501  0.27231368392E+02 -0.87807629577E+00  0.50876778914E+01  0.27716473599E+02  0.00000000000E+00 0.  1.
<scales pt_clust_5="13000.00000" pt_clust_6="13000.00000" pt_clust_7="13000.00000" pt_clust_8="13000.00000" pt_clust_9="31.48621" pt_clust_10="27.24552"></scales>
<clustering>
<clus scale="   27.246">  1 10  2 -1</clus>
<clus scale="   31.486">  2  9  1 -1</clus>
<clus scale="   88.526">  5  6 -1 -1</clus>
<clus scale="   92.130">  7  8 -1 -1</clus>
<clus scale="  106.946">  2  5  1 -1</clus>
<clus scale="   31.486">  2  5  1 -1</clus>
</clustering>
</event>
<event>
10    2  0.1898324E-006  0.1795869E+03  0.7546771E-02  0.1168572E+00
         -1   -1    0    0    0  501 -0.00000000000E+00  0.00000000000E+00  0.46734893414E+03  0.46734893414E+03  0.00000000000E+00 0.  1.
          1   -1    0    0  502    0  0.00000000000E+00 -0.00000000000E+00 -0.23016700429E+03  0.23016700429E+03  0.00000000000E+00 0. -1.
         23    2    1    2    0    0 -0.82520650560E+02 -0.11252069418E+03  0.15502467812E+03  0.22799753476E+03  0.92085072870E+02 0.  0.
         23    2    1    2    0    0  0.85060040838E+02  0.11088497683E+03  0.37570637750E+01  0.16578047572E+03  0.89097485765E+02 0.  0.
        -11    1    3    3    0    0 -0.29611906619E+00 -0.75947725121E+02  0.57220797637E+02  0.95091347240E+02  0.00000000000E+00 0. -1.
         11    1    3    3    0    0 -0.82224531494E+02 -0.36572969057E+02  0.97803880479E+02  0.13290618752E+03  0.00000000000E+00 0.  1.
        -13    1    4    4    0    0 -0.46591888549E+01  0.34327877306E+02  0.28985691818E+02  0.45169475659E+02  0.00000000000E+00 0.  1.
         13    1    4    4    0    0  0.89719229693E+02  0.76557099523E+02 -0.25228628043E+02  0.12061100007E+03  0.00000000000E+00 0. -1.
         21    1    1    2  502  503  0.27123791300E+02  0.59886137018E+02 -0.96644787259E+02  0.11688568931E+03  0.00000000000E+00 0. -1.
         21    1    1    2  503  501 -0.29663181578E+02 -0.58250419668E+02  0.17504497522E+03  0.18685223863E+03  0.00000000000E+00 0.  1.
<scales pt_clust_5="13000.00000" pt_clust_6="13000.00000" pt_clust_7="13000.00000" pt_clust_8="13000.00000" pt_clust_9="63.43490" pt_clust_10="65.36831"></scales>
<clustering>
<clus scale="   65.368">  1 10  2 -1</clus>
<clus scale="   63.435">  2  9  1 -1</clus>
<clus scale="   89.097">  7  8 -1 -1</clus>
<clus scale="   92.085">  5  6 -1 -1</clus>
<clus scale="  178.073">  2  7  1 -1</clus>
<clus scale="   63.435">  2  5  1 -1</clus>
</clustering>
</event>
<event>
10    2  0.1898324E-006  0.2173923E+03  0.7546771E-02  0.1168776E+00
         -1   -1    0    0    0  501 -0.00000000000E+00  0.00000000000E+00  0.33329296315E+03  0.33329296315E+03  0.00000000000E+00 0.  1.
          1   -1    0    0  502    0  0.00000000000E+00 -0.00000000000E+00 -0.43865336578E+03  0.43865336578E+03  0.00000000000E+00 0. -1.
         23    2    1    2    0    0  0.77908088987E+02 -0.17279837352E+03 -0.11638625472E+03  0.24040132574E+03  0.91203557531E+02 0.  0.
         23    2    1    2    0    0 -0.26671059238E+02 -0.27446226304E+02 -0.15433090093E+02  0.10004756171E+03  0.91141064267E+02 0.  0.
        -11    1    3    3    0    0  0.83217076513E+02 -0.14036592829E+03 -0.57590846570E+02  0.17304444879E+03  0.00000000000E+00 0.  1.
         11    1    3    3    0    0 -0.53089875256E+01 -0.32432445231E+02 -0.58795408153E+02  0.67356876947E+02  0.00000000000E+00 0. -1.
        -13    1    4    4    0    0 -0.26535156966E+02  0.29763951243E+02  0.28770852311E+01  0.39978556355E+02  0.00000000000E+00 0.  1.
         13    1    4    4    0    0 -0.13590227221E+00 -0.57210177547E+02 -0.18310175325E+02  0.60069005358E+02  0.00000000000E+00 0. -1.
         21    1    1    2  502  503 -0.19977421421E+02  0.20866135508E+01 -0.15782183110E+03  0.15909488267E+03  0.00000000000E+00 0. -1.
         21    1    1    2  503  501 -0.31259608327E+02  0.19815798628E+03  0.18428077328E+03  0.27240255880E+03  0.00000000000E+00 0.  1.
<scales pt_clust_5="13000.00000" pt_clust_6="13000.00000" pt_clust_7="13000.00000" pt_clust_8="13000.00000" pt_clust_9="20.08610" pt_clust_10="197.33561"></scales>
<clustering>
<clus scale="   20.086">  2  9  1 -1</clus>
<clus scale="   91.141">  7  8 -1 -1</clus>
<clus scale="   91.204">  5  6 -1 -1</clus>
<clus scale="   99.922">  2  7  1 -1</clus>
<clus scale="  197.336">  1 10  2 -1</clus>
<clus scale="   20.086">  2  5  1 -1</clus>
</clustering>
</event>
<event>
10    2  0.3211255E-006  0.9396566E+02  0.7546771E-02  0.1294490E+00
          1   -1    0    0  502    0  0.00000000000E+00  0.00000000000E+00  0.38425804924E+03  0.38425804924E+03  0.00000000000E+00 0. -1.
         -1   -1    0    0    0  501 -0.00000000000E+00 -0.00000000000E+00 -0.33606188510E+03  0.33606188510E+03  0.00000000000E+00 0.  1.
         23    2    1    2    0    0  0.59726459997E+02 -0.17506585873E+02 -0.11723582628E+03  0.16068801726E+03  0.90568589232E+02 0.  0.
         23    2    1    2    0    0 -0.22686252466E+02 -0.67250663572E+01  0.30611344480E+03  0.31961812068E+03  0.88827976529E+02 0.  0.
        -13    1    3    3    0    0  0.80277918589E+02  0.29707215411E+01 -0.78770221973E+02  0.11250829867E+03  0.00000000000E+00 0.  1.
         13    1    3    3    0    0 -0.20551458592E+02 -0.20477307414E+02 -0.38465604309E+02  0.48179718597E+02  0.00000000000E+00 0. -1.
        -13    1    4    4    0    0 -0.28978098814E+01  0.38880459957E+02  0.94162202987E+02  0.10191470914E+03  0.00000000000E+00 0.  1.
         13    1    4    4    0    0 -0.19788442585E+02 -0.45605526314E+02  0.21195124181E+03  0.21770341154E+03  0.00000000000E+00 0. -1.
         21    1    1    2  502  503 -0.56863027426E+02  0.29950550618E+02  0.27980074295E+02  0.70095106305E+02  0.00000000000E+00 0. -1.
         21    1    1    2  503  501  0.19822819895E+02 -0.57188983874E+01 -0.16866152867E+03  0.16991869008E+03  0.00000000000E+00 0.  1.
<scales pt_clust_5="13000.00000" pt_clust_6="13000.00000" pt_clust_7="13000.00000" pt_clust_8="13000.00000" pt_clust_9="61.71970" pt_clust_10="20.63129"></scales>
<clustering>
<clus scale="   20.631">  2 10  1 -1</clus>
<clus scale="   61.720">  2  9  1 -1</clus>
<clus scale="   88.828">  7  8 -1 -1</clus>
<clus scale="   90.569">  5  6 -1 -1</clus>
<clus scale="   92.289">  1  7  2 -1</clus>
<clus scale="   92.289">  1  5  2 -1</clus>
</clustering>
</event>
<event>
10    2  0.1898324E-006  0.9270633E+02  0.7546771E-02  0.1299533E+00
          2   -1    0    0  502    0  0.00000000000E+00  0.00000000000E+00  0.35672286225E+03  0.35672286225E+03  0.00000000000E+00 0. -1.
         -2   -1    0    0    0  501 -0.00000000000E+00 -0.00000000000E+00 -0.54601258934E+02  0.54601258934E+02  0.00000000000E+00 0.  1.
         23    2    1    2    0    0  0.17173456229E+02 -0.10334821819E+02  0.78942623704E+02  0.11753379949E+03  0.84737949253E+02 0.  0.
         23    2    1    2    0    0  0.41870835715E+02  0.32697510790E+02  0.12633098563E+03  0.16399685994E+03  0.90073070589E+02 0.  0.
        -11    1    3    3    0    0 -0.34495465576E+02 -0.31427257223E+01  0.27014441569E+02  0.43927143357E+02  0.00000000000E+00 0.  1.
         11    1    3    3    0    0  0.51668921805E+02 -0.71920960971E+01  0.51928182135E+02  0.73606656130E+02  0.00000000000E+00 0. -1.
        -11    1    4    4    0    0  0.70407015603E+01 -0.27446654013E+02  0.13285785560E+02  0.31295405301E+02  0.00000000000E+00 0. -1.
         11    1    4    4    0    0  0.34830134155E+02  0.60144164803E+02  0.11304520007E+03  0.13270145464E+03  0.00000000000E+00 0.  1.
         21    1    1    2  502  503 -0.32299192738E+02 -0.24160269029E+02  0.94664089667E+02  0.10289920468E+03  0.00000000000E+00 0. -1.
         21    1    1    2  503  501 -0.26745099206E+02  0.17975800582E+01  0.21839043144E+01  0.26894257076E+02  0.00000000000E+00 0. -1.
<scales pt_clust_5="13000.00000" pt_clust_6="13000.00000" pt_clust_7="13000.00000" pt_clust_8="13000.00000" pt_clust_9="42.35218" pt_clust_10="26.80544"></scales>
<clustering>
<clus scale="   26.805">  2 10  1 -1</clus>
<clus scale="   42.352">  1  9  2 -1</clus>
<clus scale="   84.738">  5  6 -1 -1</clus>
<clus scale="   87.532">  2  5  1 -1</clus>
<clus scale="   90.073">  7  8 -1 -1</clus>
<clus scale="   42.352">  1  5  2 -1</clus>
</clustering>
</event>
<event>
10    2  0.1898324E-006  0.1847061E+03  0.7546771E-02  0.1163410E+00
         -2   -1    0    0    0  501 -0.00000000000E+00  0.00000000000E+00  0.71209314042E+02  0.71209314042E+02  0.00000000000E+00 0.  1.
          2   -1    0    0  502    0  0.00000000000E+00 -0.00000000000E+00 -0.13859918701E+04  0.13859918701E+04  0.00000000000E+00 0. -1.
         23    2    1    2    0    0 -0.19516664872E+03 -0.43759387179E+02 -0.27844074961E+03  0.35535313735E+03  0.93497039740E+02 0.  0.
         23    2    1    2    0    0  0.12071214515E+03 -0.76526040028E+02 -0.31051542246E+03  0.35419509274E+03  0.92772190593E+02 0.  0.
        -11    1    4    4    0    0  0.10270457736E+03 -0.23709424653E+02 -0.25289887031E+03  0.27398577633E+03  0.00000000000E+00 0. -1.
         11    1    4    4    0    0  0.18007567794E+02 -0.52816615374E+02 -0.57616552150E+02  0.80209316411E+02  0.00000000000E+00 0.  1.
        -11    1    3    3    0    0 -0.98643926802E+02  0.17729134779E+02 -0.17195184630E+03  0.19902860086E+03  0.00000000000E+00 0. -1.
         11    1    3    3    0    0 -0.96522721921E+02 -0.61488521958E+02 -0.10648890331E+03  0.15632453649E+03  0.00000000000E+00 0.  1.
         21    1    1    2  502  503  0.68078366393E+02  0.86053570564E+02 -0.68613184872E+03  0.69485019594E+03  0.00000000000E+00 0. -1.
         21    1    1    2  503  501  0.63761371764E+01  0.34231856643E+02 -0.39694535315E+02  0.52802758151E+02  0.00000000000E+00 0.  1.
<scales pt_clust_5="13000.00000" pt_clust_6="13000.00000" pt_clust_7="13000.00000" pt_clust_8="13000.00000" pt_clust_9="111.80852" pt_clust_10="34.82061"></scales>
<clustering>
<clus scale="   34.821">  1 10  2 -1</clus>
<clus scale="   92.772">  5  6 -1 -1</clus>
<clus scale="   93.497">  7  8 -1 -1</clus>
<clus scale="  111.809">  2  9  1 -1</clus>
<clus scale="  184.340">  2  5  1 -1</clus>
<clus scale="  111.809">  2  5  1 -1</clus>
</clustering>
</event>
<event>
10    2  0.1898324E-006  0.3793614E+03  0.7546771E-02  0.1076083E+00
         -1   -1    0    0    0  501 -0.00000000000E+00  0.00000000000E+00  0.19179729958E+03  0.19179729958E+03  0.00000000000E+00 0.  1.
          1   -1    0    0  502    0  0.00000000000E+00 -0.00000000000E+00 -0.20167425891E+04  0.20167425891E+04  0.00000000000E+00 0. -1.
         23    2    1    2    0    0 -0.17228001921E+03 -0.21062699986E+02 -0.11847931539E+03  0.22903365897E+03  0.91077035625E+02 0.  0.
         23    2    1    2    0    0 -0.63950750973E+02  0.29970881930E+03 -0.16301037191E+03  0.35888159329E+03  0.91151202615E+02 0.  0.
        -11    1    3    3    0    0 -0.43218889136E+02  0.15817737775E+02  0.54501972276E+01  0.46344124291E+02  0.00000000000E+00 0.  1.
         11    1    3    3    0    0 -0.12906113007E+03 -0.36880437761E+02 -0.12392951261E+03  0.18268953468E+03  0.00000000000E+00 0. -1.
        -13    1    4    4    0    0 -0.82934941407E+02  0.25660733537E+03 -0.12026230180E+03  0.29527707379E+03  0.00000000000E+00 0.  1.
         13    1    4    4    0    0  0.18984190434E+02  0.43101483936E+02 -0.42748070103E+02  0.63604519505E+02  0.00000000000E+00 0. -1.
         21    1    1    2  502  503  0.21720248753E+03 -0.32190435052E+03 -0.15181275973E+04  0.15670069347E+04  0.00000000000E+00 0. -1.
         21    1    1    2  503  501  0.19028282652E+02  0.43258231207E+02 -0.25328004844E+02  0.53617701715E+02  0.00000000000E+00 0.  1.
<scales pt_clust_5="13000.00000" pt_clust_6="13000.00000" pt_clust_7="13000.00000" pt_clust_8="13000.00000" pt_clust_9="368.24787" pt_clust_10="47.25833"></scales>
<clustering>
<clus scale="   47.258">  1 10  2 -1</clus>
<clus scale="   91.077">  5  6 -1 -1</clus>
<clus scale="   91.151">  7  8 -1 -1</clus>
<clus scale="  189.811">  1  5  2 -1</clus>
<clus scale="  368.248">  2  9  1 -1</clus>
<clus scale="  368.248">  2  5  1 -1</clus>
</clustering>
</event>
<event>
10    2  0.1898324E-006  0.1462197E+03  0.7546771E-02  0.1207367E+00
         -3   -1    0    0    0  501 -0.00000000000E+00  0.00000000000E+00  0.17361859968E+03  0.17361859968E+03  0.00000000000E+00 0.  1.
          3   -1    0    0  503    0  0.00000000000E+00 -0.00000000000E+00 -0.20849495251E+03  0.20849495251E+03  0.00000000000E+00 0. -1.
         23    2    1    2    0    0  0.27318125134E+02 -0.98432462555E+02 -0.17757311593E+02  0.14332102400E+03  0.98946269060E+02 0.  0.
         23    2    1    2    0    0 -0.86528777936E+02  0.86013161389E+02 -0.10137262894E+02  0.15124443227E+03  0.88806648689E+02 0.  0.
        -11    1    3    3    0    0  0.20093812898E+02 -0.19463870709E+02  0.37415408728E+02  0.46717409924E+02  0.00000000000E+00 0. -1.
         11    1    3    3    0    0  0.72243122365E+01 -0.78968591846E+02 -0.55172720322E+02  0.96603614079E+02  0.00000000000E+00 0.  1.
        -11    1    4    4    0    0 -0.36492002789E+02  0.27171208727E+02 -0.47212940592E+02  0.65566779779E+02  0.00000000000E+00 0.  1.
         11    1    4    4    0    0 -0.50036775147E+02  0.58841952662E+02  0.37075677698E+02  0.85677652494E+02  0.00000000000E+00 0. -1.
         21    1    1    2  502  501  0.21905490425E+02  0.36695883428E+02 -0.24006849115E+01  0.42804224784E+02  0.00000000000E+00 0. -1.
         21    1    1    2  503  502  0.37305162377E+02 -0.24276582262E+02 -0.45810934276E+01  0.44743871126E+02  0.00000000000E+00 0.  1.
<scales pt_clust_5="13000.00000" pt_clust_6="13000.00000" pt_clust_7="13000.00000" pt_clust_8="13000.00000" pt_clust_9="42.73685" pt_clust_10="44.64344"></scales>
<clustering>
<clus scale="   42.737">  1  9  2 -1</clus>
<clus scale="   44.643">  2 10  1 -1</clus>
<clus scale="   88.807">  7  8 -1 -1</clus>
<clus scale="   98.946">  5  6 -1 -1</clus>
<clus scale="  139.558">  2  7  1 -1</clus>
<clus scale="   44.643">  2  5  1 -1</clus>
</clustering>
</event>
<event>
10    2  0.1898324E-006  0.1667103E+03  0.7546771E-02  0.1208520E+00
         -2   -1    0    0    0  501 -0.00000000000E+00  0.00000000000E+00  0.13657430205E+03  0.13657430205E+03  0.00000000000E+00 0.  1.
          2   -1    0    0  502    0  0.00000000000E+00 -0.00000000000E+00 -0.81872984147E+03  0.81872984147E+03  0.00000000000E+00 0. -1.
         23    2    1    2    0    0 -0.87737370574E+01  0.16985246546E+02  0.47293074894E+02  0.10428207092E+03  0.90954045106E+02 0.  0.
         23    2    1    2    0    0 -0.88623476657E+02  0.73334843649E+02 -0.10278989928E+03  0.19080267647E+03  0.11228436243E+03 0.  0.
        -11    1    3    3    0    0  0.20807155125E+02  0.44633191458E+02  0.12279601021E+02  0.50752813571E+02  0.00000000000E+00 0. -1.
         11    1    3    3    0    0 -0.29580892182E+02 -0.27647944912E+02  0.35013473873E+02  0.53529257354E+02  0.00000000000E+00 0.  1.
        -13    1    4    4    0    0 -0.90259970301E+02  0.65059489812E+01 -0.78113756623E+02  0.11954475557E+03  0.00000000000E+00 0.  1.
         13    1    4    4    0    0  0.16364936442E+01  0.66828894668E+02 -0.24676142657E+02  0.71257920896E+02  0.00000000000E+00 0. -1.
         21    1    1    2  502  503  0.10257902339E+03 -0.70412267520E+02 -0.62741666194E+03  0.63963427921E+03  0.00000000000E+00 0.  1.
         21    1    1    2  503  501 -0.51818096783E+01 -0.19907822676E+02  0.75794690852E+00  0.20585116923E+02  0.00000000000E+00 0.  1.
<scales pt_clust_5="13000.00000" pt_clust_6="13000.00000" pt_clust_7="13000.00000" pt_clust_8="13000.00000" pt_clust_9="123.22555" pt_clust_10="20.57116"></scales>
<clustering>
<clus scale="   20.571">  1 10  2 -1</clus>
<clus scale="   90.954">  5  6 -1 -1</clus>
<clus scale="   91.865">  1  5  2 -1</clus>
<clus scale="  112.284">  7  8 -1 -1</clus>
<clus scale="  123.226">  2  9  1 -1</clus>
<clus scale="  123.226">  2  5  1 -1</clus>
</clustering>
</event>
<event>
10    2  0.1898324E-006  0.1344629E+03  0.7546771E-02  0.1222045E+00
          1   -1    0    0  502    0  0.00000000000E+00  0.00000000000E+00  0.67639589023E+03  0.67639589023E+03  0.00000000000E+00 0. -1.
         -1   -1    0    0    0  501 -0.00000000000E+00 -0.00000000000E+00 -0.52918584773E+02  0.52918584773E+02  0.00000000000E+00 0.  1.
         23    2    1    2    0    0 -0.85198762334E+02 -0.87905960190E+02  0.22451165328E+03  0.27052299289E+03  0.88266189932E+02 0.  0.
         23    2    1    2    0    0  0.61123751965E+02  0.40846967689E+02  0.26018964554E+03  0.28580230270E+03  0.92626760505E+02 0.  0.
        -11    1    4    4    0    0 -0.18675964922E+02  0.14328392388E+02  0.12031824757E+03  0.12259924629E+03  0.00000000000E+00 0.  1.
         11    1    4    4    0    0  0.79799716887E+02  0.26518575302E+02  0.13987139797E+03  0.16320305641E+03  0.00000000000E+00 0. -1.
        -11    1    3    3    0    0 -0.35022517847E+02 -0.13209516835E+02  0.14721036455E+03  0.15189456712E+03  0.00000000000E+00 0. -1.
         11    1    3    3    0    0 -0.50176244487E+02 -0.74696443356E+02  0.77301288729E+02  0.11862842577E+03  0.00000000000E+00 0.  1.
         21    1    1    2  502  503 -0.30568032273E+01  0.52301016067E+02  0.13536033959E+03  0.14514531291E+03  0.00000000000E+00 0. -1.
         21    1    1    2  503  501  0.27131813596E+02 -0.52420235657E+01  0.34156670581E+01  0.27843866498E+02  0.00000000000E+00 0.  1.
<scales pt_clust_5="13000.00000" pt_clust_6="13000.00000" pt_clust_7="13000.00000" pt_clust_8="13000.00000" pt_clust_9="51.67135" pt_clust_10="27.63357"></scales>
<clustering>
<clus scale="   27.634">  2 10  1 -1</clus>
<clus scale="   51.671">  1  9  2 -1</clus>
<clus scale="   88.266">  7  8 -1 -1</clus>
<clus scale="   92.627">  5  6 -1 -1</clus>
<clus scale="  131.497">  2  7  1 -1</clus>
<clus scale="   51.671">  1  5  2 -1</clus>
</clustering>
</event>
<event>
10    2  0.1898324E-006  0.3765011E+03  0.7546771E-02  0.1052553E+00
          1   -1    0    0  502    0  0.00000000000E+00  0.00000000000E+00  0.13194667774E+04  0.13194667774E+04  0.00000000000E+00 0. -1.
         -1   -1    0    0    0  501 -0.00000000000E+00 -0.00000000000E+00 -0.22821849597E+03  0.22821849597E+03  0.00000000000E+00 0.  1.
         23    2    1    2    0    0  0.25087633387E+03 -0.21516959531E+03  0.66154484834E+02  0.34572555404E+03  0.76895079224E+02 0.  0.
         23    2    1    2    0    0 -0.33538760916E+03  0.23150326123E+03  0.64149838303E+03  0.76554182289E+03  0.91953786399E+02 0.  0.
        -11    1    3    3    0    0  0.46080983917E+02 -0.59440451018E+01  0.61784856166E+01  0.46871765866E+02  0.00000000000E+00 0.  1.
         11    1    3    3    0    0  0.20479534996E+03 -0.20922555020E+03  0.59975999217E+02  0.29885378817E+03  0.00000000000E+00 0. -1.
        -13    1    4    4    0    0 -0.18470056581E+03  0.13403131292E+03  0.44035809408E+03  0.49597776449E+03  0.00000000000E+00 0. -1.
         13    1    4    4    0    0 -0.15068704335E+03  0.97471948310E+02  0.20114028895E+03  0.26956405840E+03  0.00000000000E+00 0.  1.
         21    1    1    2  502  503  0.68269159288E+02  0.18032142586E+02  0.39131214386E+03  0.39763177716E+03  0.00000000000E+00 0. -1.
         21    1    1    2  503  501  0.16242115998E+02 -0.34365808507E+02 -0.77167302453E+01  0.38786119323E+02  0.00000000000E+00 0.  1.
<scales pt_clust_5="13000.00000" pt_clust_6="13000.00000" pt_clust_7="13000.00000" pt_clust_8="13000.00000" pt_clust_9="70.71960" pt_clust_10="38.01072"></scales>
<clustering>
<clus scale="   38.011">  2 10  1 -1</clus>
<clus scale="   70.720">  1  9  2 -1</clus>
<clus scale="   76.895">  5  6 -1 -1</clus>
<clus scale="   91.954">  7  8 -1 -1</clus>
<clus scale="  373.109">  2  5  1 -1</clus>
<clus scale="   70.720">  1  5  2 -1</clus>
</clustering>
</event>
<event>
10    2  0.1898324E-006  0.1184166E+03  0.7546771E-02  0.1246477E+00
         -2   -1    0    0    0  501 -0.00000000000E+00  0.00000000000E+00  0.10708175174E+03  0.10708175174E+03  0.00000000000E+00 0.  1.
          2   -1    0    0  502    0  0.00000000000E+00 -0.00000000000E+00 -0.26234717806E+03  0.26234717806E+03  0.00000000000E+00 0. -1.
         23    2    1    2    0    0 -0.43051234434E+02  0.25082047444E+02 -0.14411449997E+02  0.10375201063E+03  0.89856952590E+02 0.  0.
         23    2    1    2    0    0  0.85995506518E+02 -0.59262402965E+02 -0.12608553937E+03  0.18786317871E+03  0.92128991812E+02 0.  0.
        -13    1    4    4    0    0  0.57139758641E+01  0.23307579012E+02 -0.24540160934E+02  0.34323639933E+02  0.00000000000E+00 0.  1.
         13    1    4    4    0    0  0.80281530654E+02 -0.82569981977E+02 -0.10154537843E+03  0.15353953878E+03  0.00000000000E+00 0. -1.
        -13    1    3    3    0    0  0.20248175592E+02 -0.94258661345E+01  0.13890012665E+02  0.26301483209E+02  0.00000000000E+00 0. -1.
         13    1    3    3    0    0 -0.63299410026E+02  0.34507913578E+02 -0.28301462662E+02  0.77450527422E+02  0.00000000000E+00 0.  1.
         21    1    1    2  502  503 -0.23292585288E+02  0.16805965748E+02 -0.34572014435E+02  0.44946737326E+02  0.00000000000E+00 0. -1.
         21    1    1    2  503  501 -0.19651686796E+02  0.17374389773E+02  0.19803577478E+02  0.32867003132E+02  0.00000000000E+00 0. -1.
<scales pt_clust_5="13000.00000" pt_clust_6="13000.00000" pt_clust_7="13000.00000" pt_clust_8="13000.00000" pt_clust_9="30.39990" pt_clust_10="26.23086"></scales>
<clustering>
<clus scale="   26.231">  1 10  2 -1</clus>
<clus scale="   30.400">  2  9  1 -1</clus>
<clus scale="   89.857">  7  8 -1 -1</clus>
<clus scale="   92.129">  5  6 -1 -1</clus>
<clus scale="  116.658">  1  7  2 -1</clus>
<clus scale="   30.400">  2  5  1 -1</clus>
</clustering>
</event>
<event>
10    2  0.1898324E-006  0.1041829E+03  0.7546771E-02  0.1273980E+00
          2   -1    0    0  502    0  0.00000000000E+00  0.00000000000E+00  0.14753894780E+03  0.14753894780E+03  0.00000000000E+00 0. -1.
         -2   -1    0    0    0  501 -0.00000000000E+00 -0.00000000000E+00 -0.29853676347E+03  0.29853676347E+03  0.00000000000E+00 0.  1.
         23    2    1    2    0    0 -0.19667260354E+02  0.64562802556E+02 -0.77176813827E+02  0.13851457424E+03  0.93138982609E+02 0.  0.
         23    2    1    2    0    0 -0.84551096292E+02 -0.23313722351E+02  0.12041017127E+02  0.12495867974E+03  0.88188820230E+02 0.  0.
        -11    1    4    4    0    0 -0.25699387704E+02 -0.26442463109E+02 -0.34011866301E+02  0.50164423977E+02  0.00000000000E+00 0.  1.
         11    1    4    4    0    0 -0.58851708588E+02  0.31287407581E+01  0.46052883427E+02  0.74794255758E+02  0.00000000000E+00 0. -1.
        -13    1    3    3    0    0 -0.57138789630E+02  0.44352101395E+02 -0.51554292431E+02  0.88824519400E+02  0.00000000000E+00 0. -1.
         13    1    3    3    0    0  0.37471529275E+02  0.20210701161E+02 -0.25622521396E+02  0.49690054843E+02  0.00000000000E+00 0.  1.
         21    1    1    2  502  503  0.61439665604E+02  0.30025944062E+01  0.16026756219E+02  0.63566539921E+02  0.00000000000E+00 0.  1.
         21    1    1    2  503  501  0.42778691043E+02 -0.44251674610E+02 -0.10188877519E+03  0.11903591736E+03  0.00000000000E+00 0.  1.
<scales pt_clust_5="13000.00000" pt_clust_6="13000.00000" pt_clust_7="13000.00000" pt_clust_8="13000.00000" pt_clust_9="61.51299" pt_clust_10="64.87939"></scales>
<clustering>
<clus scale="   61.513">  1  9  2 -1</clus>
<clus scale="   64.879">  2 10  1 -1</clus>
<clus scale="   88.189">  5  6 -1 -1</clus>
<clus scale="   93.139">  7  8 -1 -1</clus>
<clus scale="   99.782">  1  5  2 -1</clus>
<clus scale="   61.513">  1  5  2 -1</clus>
</clustering>
</event>
<event>
10    2  0.1898324E-006  0.9409186E+02  0.7546771E-02  0.1294248E+00
         -1   -1    0    0    0  501 -0.00000000000E+00  0.00000000000E+00  0.80964347994E+02  0.80964347994E+02  0.00000000000E+00 0.  1.
          1   -1    0    0  502    0  0.00000000000E+00 -0.00000000000E+00 -0.23170636625E+03  0.23170636625E+03  0.00000000000E+00 0. -1.
         23    2    1    2    0    0 -0.14410228910E+02  0.13145638040E+02 -0.34186099026E+02  0.98557068979E+02  0.90356759472E+02 0.  0.
         23    2    1    2    0    0  0.14178395039E+02 -0.37106977535E+01 -0.78119597813E+02  0.12169520166E+03  0.92153428483E+02 0.  0.
        -11    1    4    4    0    0  0.16266352621E+00 -0.41116776397E+02 -0.93514171395E+01  0.42167105227E+02  0.00000000000E+00 0.  1.
         11    1    4    4    0    0  0.14015731513E+02  0.37406078644E+02 -0.68768180674E+02  0.79528096435E+02  0.00000000000E+00 0. -1.
        -13    1    3    3    0    0 -0.36030929708E+02 -0.23763389147E+02  0.99422200001E+00  0.43173082317E+02  0.00000000000E+00 0.  1.
         13    1    3    3    0    0  0.21620700799E+02  0.36909027188E+02 -0.35180321026E+02  0.55383986661E+02  0.00000000000E+00 0. -1.
         21    1    1    2  502  503 -0.89463198400E+01 -0.42878419748E+02 -0.37602818226E+02  0.57728393857E+02  0.00000000000E+00 0.  1.
         21    1    1    2  503  501  0.91781537104E+01  0.33443479461E+02 -0.83350319329E+00  0.34690049749E+02  0.00000000000E+00 0. -1.
<scales pt_clust_5="13000.00000" pt_clust_6="13000.00000" pt_clust_7="13000.00000" pt_clust_8="13000.00000" pt_clust_9="38.36408" pt_clust_10="34.68003"></scales>
<clustering>
<clus scale="   34.680">  1 10  2 -1</clus>
<clus scale="   38.364">  2  9  1 -1</clus>
<clus scale="   90.357">  7  8 -1 -1</clus>
<clus scale="   92.153">  5  6 -1 -1</clus>
<clus scale="   92.333">  1  7  2 -1</clus>
<clus scale="   38.364">  2  5  1 -1</clus>
</clustering>
</event>
<event>
10    2  0.1898324E-006  0.1287328E+03  0.7546771E-02  0.1229470E+00
         -2   -1    0    0    0  501 -0.00000000000E+00  0.00000000000E+00  0.14036967924E+03  0.14036967924E+03  0.00000000000E+00 0.  1.
          2   -1    0    0  502    0  0.00000000000E+00 -0.00000000000E+00 -0.21363441792E+03  0.21363441792E+03  0.00000000000E+00 0. -1.
         23    2    1    2    0    0 -0.96419156213E+02  0.24570930666E+02  0.24489073649E+02  0.13692933294E+03  0.90826995841E+02 0.  0.
         23    2    1    2    0    0  0.73040520984E+02 -0.14267890463E+02 -0.41875613554E+02  0.12499870091E+03  0.91283173782E+02 0.  0.
        -11    1    3    3    0    0 -0.47627076257E+02  0.25952045868E+02 -0.31442714319E+02  0.62693630947E+02  0.00000000000E+00 0. -1.
         11    1    3    3    0    0 -0.48792079956E+02 -0.13811152020E+01  0.55931787968E+02  0.74235701996E+02  0.00000000000E+00 0.  1.
        -13    1    4    4    0    0  0.96949407833E+01 -0.32878985850E+02 -0.47677731481E+02  0.58721253959E+02  0.00000000000E+00 0. -1.
         13    1    4    4    0    0  0.63345580201E+02  0.18611095386E+02  0.58021179270E+01  0.66277446955E+02  0.00000000000E+00 0.  1.
         21    1    1    2  502  503  0.30311610589E+02 -0.32432735365E+02 -0.52318513661E+02  0.68614159846E+02  0.00000000000E+00 0. -1.
         21    1    1    2  503  501 -0.69329753605E+01  0.22129695163E+02 -0.35596851167E+01  0.23461903449E+02  0.00000000000E+00 0.  1.
<scales pt_clust_5="13000.00000" pt_clust_6="13000.00000" pt_clust_7="13000.00000" pt_clust_8="13000.00000" pt_clust_9="43.09104" pt_clust_10="23.19029"></scales>
<clustering>
<clus scale="   23.190">  1 10  2 -1</clus>
<clus scale="   43.091">  2  9  1 -1</clus>
<clus scale="   90.827">  5  6 -1 -1</clus>
<clus scale="   91.283">  7  8 -1 -1</clus>
<clus scale="  128.410">  1  5  2 -1</clus>
<clus scale="   43.091">  2  5  1 -1</clus>
</clustering>
</event>
<event>
10    2  0.1898324E-006  0.1205743E+03  0.7546771E-02  0.1243395E+00
         -2   -1    0    0    0  501 -0.00000000000E+00  0.00000000000E+00  0.54825259889E+03  0.54825259889E+03  0.00000000000E+00 0.  1.
          2   -1    0    0  503    0  0.00000000000E+00 -0.00000000000E+00 -0.40331594192E+02  0.40331594192E+02  0.00000000000E+00 0. -1.
         23    2    1    2    0    0 -0.13910344575E+02  0.73461122486E+02  0.23267948526E+03  0.26004539730E+03  0.88847237389E+02 0.  0.
         23    2    1    2    0    0  0.22572954595E+02 -0.76459189634E+02  0.23151859193E+03  0.26184417297E+03  0.92768348882E+02 0.  0.
        -13    1    3    3    0    0 -0.46332279621E+02  0.17200332008E+02  0.12340804671E+03  0.13293636654E+03  0.00000000000E+00 0.  1.
         13    1    3    3    0    0  0.32421935046E+02  0.56260790478E+02  0.10927143856E+03  0.12710903076E+03  0.00000000000E+00 0. -1.
        -13    1    4    4    0    0  0.11078306105E+02 -0.36249192633E+02  0.14102938686E+02  0.40442869734E+02  0.00000000000E+00 0. -1.
         13    1    4    4    0    0  0.11494648490E+02 -0.40209997001E+02  0.21741565324E+03  0.22140130324E+03  0.00000000000E+00 0.  1.
         21    1    1    2  502  501 -0.11471187862E+02  0.23680903967E+02  0.12484254276E+02  0.29124387864E+02  0.00000000000E+00 0.  1.
         21    1    1    2  503  502  0.28085778418E+01 -0.20682836819E+02  0.31238673237E+02  0.37570234947E+02  0.00000000000E+00 0.  1.
<scales pt_clust_5="13000.00000" pt_clust_6="13000.00000" pt_clust_7="13000.00000" pt_clust_8="13000.00000" pt_clust_9="21.92010" pt_clust_10="20.87266"></scales>
<clustering>
<clus scale="   20.873">  2 10  1 -1</clus>
<clus scale="   21.920">  2  9  1 -1</clus>
<clus scale="   88.847">  5  6 -1 -1</clus>
<clus scale="   92.768">  7  8 -1 -1</clus>
<clus scale="  117.584">  1  5  2 -1</clus>
<clus scale="   20.873">  2  5  1 -1</clus>
</clustering>
</event>
<event>
10    2  0.1898324E-006  0.3019075E+03  0.7546771E-02  0.1084893E+00
          2   -1    0    0  502    0  0.00000000000E+00  0.00000000000E+00  0.69552589676E+03  0.69552589676E+03  0.00000000000E+00 0. -1.
         -2   -1    0    0    0  501 -0.00000000000E+00 -0.00000000000E+00 -0.10878875163E+04  0.10878875163E+04  0.00000000000E+00 0.  1.
         23    2    1    2    0    0 -0.26898849043E+03 -0.37316191413E+02 -0.88212135651E+03  0.92789308375E+03  0.95394869526E+02 0.  0.
         23    2    1    2    0    0  0.24808412986E+03  0.38992084534E+02  0.44958724880E+03  0.52647973809E+03  0.10948105856E+03 0.  0.
        -11    1    3    3    0    0 -0.52326552740E+02 -0.41651694084E+02 -0.14706308464E+03  0.16155643783E+03  0.00000000000E+00 0. -1.
         11    1    3    3    0    0 -0.21666193769E+03  0.43355026709E+01 -0.73505827187E+03  0.76633664591E+03  0.00000000000E+00 0.  1.
        -13    1    4    4    0    0  0.12243184860E+03  0.65004517683E+01  0.32170681433E+03  0.34427763188E+03  0.00000000000E+00 0. -1.
         13    1    4    4    0    0  0.12565228126E+03  0.32491632765E+02  0.12788043447E+03  0.18220210621E+03  0.00000000000E+00 0.  1.
         21    1    1    2  502  503  0.28784336109E+02  0.22240943150E+02  0.18169232190E+03  0.18529786128E+03  0.00000000000E+00 0. -1.
         21    1    1    2  503  501 -0.78799755379E+01 -0.23916836270E+02 -0.14151983371E+03  0.14374272992E+03  0.00000000000E+00 0.  1.
<scales pt_clust_5="13000.00000" pt_clust_6="13000.00000" pt_clust_7="13000.00000" pt_clust_8="13000.00000" pt_clust_9="36.33601" pt_clust_10="25.18152"></scales>
<clustering>
<clus scale="   25.182">  2 10  1 -1</clus>
<clus scale="   36.336">  1  9  2 -1</clus>
<clus scale="   95.395">  5  6 -1 -1</clus>
<clus scale="  109.481">  7  8 -1 -1</clus>
<clus scale="  297.090">  2  5  1 -1</clus>
<clus scale="   36.336">  1  5  2 -1</clus>
</clustering>
</event>
<event>
10    2  0.1898324E-006  0.9772355E+02  0.7546771E-02  0.1288079E+00
          1   -1    0    0  502    0  0.00000000000E+00  0.00000000000E+00  0.55551890835E+03  0.55551890835E+03  0.00000000000E+00 0. -1.
         -1   -1    0    0    0  501 -0.00000000000E+00 -0.00000000000E+00 -0.60163309102E+02  0.60163309102E+02  0.00000000000E+00 0.  1.
         23    2    1    2    0    0  0.74597589492E+01  0.79471986504E+01  0.64472898677E+02  0.10954465870E+03  0.87888973229E+02 0.  0.
         23    2    1    2    0    0  0.60090238160E+02  0.15308930363E+02  0.33461386419E+03  0.35288973048E+03  0.93378389877E+02 0.  0.
        -11    1    3    3    0    0 -0.67274901593E+01 -0.21675080020E+02  0.72301781888E+02  0.75780049366E+02  0.00000000000E+00 0.  1.
         11    1    3    3    0    0  0.14187249108E+02  0.29622278670E+02 -0.78288832117E+01  0.33764609330E+02  0.00000000000E+00 0. -1.
        -13    1    4    4    0    0 -0.14878317250E+02 -0.22107791836E+02  0.57276937393E+02  0.63172512545E+02  0.00000000000E+00 0.  1.
         13    1    4    4    0    0  0.74968555411E+02  0.37416722199E+02  0.27733692680E+03  0.28971721793E+03  0.00000000000E+00 0. -1.
         21    1    1    2  502  503 -0.22800733231E+02 -0.34748495059E+02  0.98585874725E+02  0.10698834535E+03  0.00000000000E+00 0.  1.
         21    1    1    2  503  501 -0.44749263878E+02  0.11492366045E+02 -0.23170383389E+01  0.46259482937E+02  0.00000000000E+00 0.  1.
<scales pt_clust_5="13000.00000" pt_clust_6="13000.00000" pt_clust_7="13000.00000" pt_clust_8="13000.00000" pt_clust_9="41.56118" pt_clust_10="46.89255"></scales>
<clustering>
<clus scale="   41.561">  1  9  2 -1</clus>
<clus scale="   46.893">  2 10  1 -1</clus>
<clus scale="   87.889">  5  6 -1 -1</clus>
<clus scale="   92.492">  2  5  1 -1</clus>
<clus scale="   93.378">  7  8 -1 -1</clus>
<clus scale="   41.561">  1  5  2 -1</clus>
</clustering>
</event>
<event>
10    2  0.1898324E-006  0.3426986E+03  0.7546771E-02  0.1065731E+00
          2   -1    0    0  502    0  0.00000000000E+00  0.00000000000E+00  0.12380621323E+04  0.12380621323E+04  0.00000000000E+00 0. -1.
         -2   -1    0    0    0  501 -0.00000000000E+00 -0.00000000000E+00 -0.82292664462E+03  0.82292664462E+03  0.00000000000E+00 0.  1.
         23    2    1    2    0    0 -0.13504453634E+02  0.46330609436E+03  0.67525907635E+02  0.47701806193E+03  0.90286077886E+02 0.  0.
         23    2    1    2    0    0 -0.97112625931E+02 -0.34728068528E+03  0.64866096216E+03  0.74797049254E+03  0.93081026019E+02 0.  0.
        -11    1    4    4    0    0 -0.54142780425E+02 -0.30683762419E+03  0.51594174550E+03  0.60272435909E+03  0.00000000000E+00 0. -1.
         11    1    4    4    0    0 -0.42969845505E+02 -0.40443061090E+02  0.13271921666E+03  0.14524613345E+03  0.00000000000E+00 0.  1.
        -13    1    3    3    0    0 -0.13599832079E+02  0.11782309661E+03  0.56459254373E+02  0.13135785066E+03  0.00000000000E+00 0. -1.
         13    1    3    3    0    0  0.95378445097E-01  0.34548299776E+03  0.11066653262E+02  0.34566021126E+03  0.00000000000E+00 0.  1.
         21    1    1    2  502  503  0.11028577554E+03  0.76203620931E+02  0.23277646632E+03  0.26861650619E+03  0.00000000000E+00 0.  1.
         21    1    1    2  503  501  0.33130402788E+00 -0.19222903001E+03 -0.53382784842E+03  0.56738371627E+03  0.00000000000E+00 0.  1.
<scales pt_clust_5="13000.00000" pt_clust_6="13000.00000" pt_clust_7="13000.00000" pt_clust_8="13000.00000" pt_clust_9="134.05202" pt_clust_10="190.94687"></scales>
<clustering>
<clus scale="   90.286">  7  8 -1 -1</clus>
<clus scale="   93.081">  5  6 -1 -1</clus>
<clus scale="  134.052">  1  9  2 -1</clus>
<clus scale="  190.947">  2 10  1 -1</clus>
<clus scale="  341.950">  2  7  1 -1</clus>
<clus scale="  134.052">  1  5  2 -1</clus>
</clustering>
</event>
<event>
10    2  0.1898324E-006  0.1239119E+03  0.7546771E-02  0.1236896E+00
          1   -1    0    0  502    0  0.00000000000E+00  0.00000000000E+00  0.49058860885E+03  0.49058860885E+03  0.00000000000E+00 0. -1.
         -1   -1    0    0    0  501 -0.00000000000E+00 -0.00000000000E+00 -0.72879128603E+02  0.72879128603E+02  0.00000000000E+00 0.  1.
         23    2    1    2    0    0 -0.75472923596E+02  0.11009139185E+03  0.12961685041E+03  0.20756120512E+03  0.92004615128E+02 0.  0.
         23    2    1    2    0    0  0.28323425247E+02 -0.27788727926E+02  0.15618540091E+03  0.18536629114E+03  0.91609784492E+02 0.  0.
        -13    1    3    3    0    0 -0.29888311964E+02  0.71912076165E+02  0.12583060651E+03  0.14797972640E+03  0.00000000000E+00 0. -1.
         13    1    3    3    0    0 -0.45584611631E+02  0.38179315690E+02  0.37862439023E+01  0.59581478724E+02  0.00000000000E+00 0.  1.
        -13    1    4    4    0    0  0.11995650589E+02 -0.42513832419E+02  0.15726669459E+03  0.16335279247E+03  0.00000000000E+00 0.  1.
         13    1    4    4    0    0  0.16327774658E+02  0.14725104493E+02 -0.10812936788E+01  0.22013498669E+02  0.00000000000E+00 0. -1.
         21    1    1    2  502  503  0.28854740764E+02 -0.49622809600E+02  0.11682409878E+03  0.13016485452E+03  0.00000000000E+00 0.  1.
         21    1    1    2  503  501  0.18294757585E+02 -0.32679854329E+02  0.15083130149E+02  0.40375386675E+02  0.00000000000E+00 0.  1.
<scales pt_clust_5="13000.00000" pt_clust_6="13000.00000" pt_clust_7="13000.00000" pt_clust_8="13000.00000" pt_clust_9="61.54931" pt_clust_10="37.45225"></scales>
<clustering>
<clus scale="   37.452">  2 10  1 -1</clus>
<clus scale="   61.549">  1  9  2 -1</clus>
<clus scale="   91.610">  7  8 -1 -1</clus>
<clus scale="   92.005">  5  6 -1 -1</clus>
<clus scale="  123.619">  1  7  2 -1</clus>
<clus scale="   61.549">  1  5  2 -1</clus>
</clustering>
</event>
<event>
10    2  0.1898324E-006  0.9374760E+02  0.7546771E-02  0.1296424E+00
          1   -1    0    0  502    0  0.00000000000E+00  0.00000000000E+00  0.81676670596E+02  0.81676670596E+02  0.00000000000E+00 0. -1.
         -1   -1    0    0    0  501 -0.00000000000E+00 -0.00000000000E+00 -0.23377507705E+03  0.23377507705E+03  0.00000000000E+00 0.  1.
         23    2    1    2    0    0  0.77639241276E+00  0.13635590345E+02 -0.84235531373E+02  0.12632254141E+03  0.93140901932E+02 0.  0.
         23    2    1    2    0    0 -0.17111740511E+02  0.36727334502E+02 -0.52580923574E+02  0.11104627101E+03  0.89021413261E+02 0.  0.
        -11    1    3    3    0    0 -0.20276959933E+02  0.11938784104E+02 -0.98214542044E+02  0.10099398962E+03  0.00000000000E+00 0.  1.
         11    1    3    3    0    0  0.21053352346E+02  0.16968062407E+01  0.13979010671E+02  0.25328551790E+02  0.00000000000E+00 0. -1.
        -11    1    4    4    0    0 -0.14579935572E+02  0.65561615711E+02 -0.45872622717E+02  0.81333864354E+02  0.00000000000E+00 0. -1.
         11    1    4    4    0    0 -0.25318049383E+01 -0.28834281208E+02 -0.67083008569E+01  0.29712406658E+02  0.00000000000E+00 0.  1.
         21    1    1    2  502  503 -0.18016101920E+02 -0.29967581456E+02  0.90594731090E+00  0.34977944583E+02  0.00000000000E+00 0. -1.
         21    1    1    2  503  501  0.34351450018E+02 -0.20395343391E+02 -0.16187898819E+02  0.43104990646E+02  0.00000000000E+00 0. -1.
<scales pt_clust_5="13000.00000" pt_clust_6="13000.00000" pt_clust_7="13000.00000" pt_clust_8="13000.00000" pt_clust_9="34.96621" pt_clust_10="40.58653"></scales>
<clustering>
<clus scale="   34.966">  1  9  2 -1</clus>
<clus scale="   40.587">  1 10  2 -1</clus>
<clus scale="   89.021">  7  8 -1 -1</clus>
<clus scale="   89.656">  1  7  2 -1</clus>
<clus scale="   93.141">  5  6 -1 -1</clus>
<clus scale="   34.966">  1  5  2 -1</clus>
</clustering>
</event>
<event>
10    2  0.1898324E-006  0.1828411E+03  0.7546771E-02  0.1167814E+00
          2   -1    0    0  502    0  0.00000000000E+00  0.00000000000E+00  0.22613988486E+03  0.22613988486E+03  0.00000000000E+00 0. -1.
         -2   -1    0    0    0  501 -0.00000000000E+00 -0.00000000000E+00 -0.27369337565E+03  0.27369337565E+03  0.00000000000E+00 0.  1.
         23    2    1    2    0    0  0.14981688063E+03 -0.20585050347E+02 -0.11740897542E+03  0.20377284955E+03  0.69782982777E+02 0.  0.
         23    2    1    2    0    0 -0.15302078439E+03  0.94294759167E+01  0.35576309972E+02  0.18327668778E+03  0.93916957889E+02 0.  0.
        -11    1    4    4    0    0 -0.12990783364E+03  0.24683542027E+02  0.61054249924E+02  0.14564664061E+03  0.00000000000E+00 0.  1.
         11    1    4    4    0    0 -0.23112950754E+02 -0.15254066111E+02 -0.25477939952E+02  0.37630047165E+02  0.00000000000E+00 0. -1.
        -13    1    3    3    0    0  0.70343550150E+02 -0.44375737845E+02 -0.51548976248E+02  0.97850488549E+02  0.00000000000E+00 0.  1.
         13    1    3    3    0    0  0.79473330482E+02  0.23790687498E+02 -0.65859999176E+02  0.10592236101E+03  0.00000000000E+00 0. -1.
         21    1    1    2  502  503 -0.15017675824E+02 -0.32620450457E+02  0.51112989574E+02  0.62467288066E+02  0.00000000000E+00 0. -1.
         21    1    1    2  503  501  0.18221579586E+02  0.43776024887E+02 -0.16833814917E+02  0.50316435110E+02  0.00000000000E+00 0. -1.
<scales pt_clust_5="13000.00000" pt_clust_6="13000.00000" pt_clust_7="13000.00000" pt_clust_8="13000.00000" pt_clust_9="35.91134" pt_clust_10="43.86950"></scales>
<clustering>
<clus scale="   35.911">  1  9  2 -1</clus>
<clus scale="   43.870">  2 10  1 -1</clus>
<clus scale="   69.783">  7  8 -1 -1</clus>
<clus scale="   93.917">  5  6 -1 -1</clus>
<clus scale="  171.698">  2  7  1 -1</clus>
<clus scale="   35.911">  1  5  2 -1</clus>
</clustering>
</event>
<event>
10    2  0.1898324E-006  0.1097546E+03  0.7546771E-02  0.1262590E+00
         -1   -1    0    0    0  501 -0.00000000000E+00  0.00000000000E+00  0.94850622028E+02  0.94850622028E+02  0.00000000000E+00 0.  1.
          1   -1    0    0  502    0  0.00000000000E+00 -0.00000000000E+00 -0.42964051927E+03  0.42964051927E+03  0.00000000000E+00 0. -1.
         23    2    1    2    0    0  0.54590573107E+02  0.57000297096E+02  0.75687178341E+01  0.12079815520E+03  0.91135856115E+02 0.  0.
         23    2    1    2    0    0  0.13221504765E+02 -0.65658482727E+02 -0.22183457084E+03  0.25043771716E+03  0.94987519271E+02 0.  0.
        -11    1    3    3    0    0  0.78397775146E+02  0.30689210664E+02 -0.13882418556E+01  0.84201935931E+02  0.00000000000E+00 0. -1.
         11    1    3    3    0    0 -0.23807202039E+02  0.26311086432E+02  0.89569596897E+01  0.36596219273E+02  0.00000000000E+00 0.  1.
        -13    1    4    4    0    0  0.29205661956E+02  0.95400253870E+01 -0.26698888534E+02  0.40703973070E+02  0.00000000000E+00 0.  1.
         13    1    4    4    0    0 -0.15984157192E+02 -0.75198508114E+02 -0.19513568230E+03  0.20973374409E+03  0.00000000000E+00 0. -1.
         21    1    1    2  502  503 -0.37167538709E+02  0.23840377362E+02 -0.10826799605E+03  0.11692625238E+03  0.00000000000E+00 0.  1.
         21    1    1    2  503  501 -0.30644539163E+02 -0.15182191731E+02 -0.12256048184E+02  0.36329016548E+02  0.00000000000E+00 0.  1.
<scales pt_clust_5="13000.00000" pt_clust_6="13000.00000" pt_clust_7="13000.00000" pt_clust_8="13000.00000" pt_clust_9="45.10238" pt_clust_10="34.19922"></scales>
<clustering>
<clus scale="   34.199">  1 10  2 -1</clus>
<clus scale="   45.102">  2  9  1 -1</clus>
<clus scale="   91.136">  5  6 -1 -1</clus>
<clus scale="   94.988">  7  8 -1 -1</clus>
<clus scale="  106.439">  1  5  2 -1</clus>
<clus scale="   45.102">  2  5  1 -1</clus>
</clustering>
</event>
<event>
10    2  0.1898324E-006  0.1125078E+03  0.7546771E-02  0.1256106E+00
          1   -1    0    0  503    0  0.00000000000E+00  0.00000000000E+00  0.46167386894E+03  0.46167386894E+03  0.00000000000E+00 0. -1.
         -1   -1    0    0    0  501 -0.00000000000E+00 -0.00000000000E+00 -0.91234761478E+02  0.91234761478E+02  0.00000000000E+00 0.  1.
         23    2    1    2    0    0  0.65341743226E+01  0.20406981155E+02 -0.24048109844E+02  0.97369864334E+02  0.91888185200E+02 0.  0.
         23    2    1    2    0    0 -0.31562192444E+02 -0.63264347815E+02  0.37896412132E+03  0.39637253072E+03  0.92189089171E+02 0.  0.
        -11    1    4    4    0    0  0.14118518204E+02 -0.65729443799E+02  0.17813717261E+03  0.19040100998E+03  0.00000000000E+00 0.  1.
         11    1    4    4    0    0 -0.45680710648E+02  0.24650959839E+01  0.20082694872E+03  0.20597152074E+03  0.00000000000E+00 0. -1.
        -13    1    3    3    0    0 -0.42444179324E+02  0.10420145724E+02 -0.54816183839E+01  0.44046974193E+02  0.00000000000E+00 0. -1.
         13    1    3    3    0    0  0.48978353647E+02  0.99868354304E+01 -0.18566491460E+02  0.53322890141E+02  0.00000000000E+00 0.  1.
         21    1    1    2  502  501  0.20187662203E+02  0.16363212809E+02  0.18744731193E+02  0.32041557174E+02  0.00000000000E+00 0. -1.
         21    1    1    2  503  502  0.48403559183E+01  0.26494153851E+02 -0.32216352073E+01  0.27124678194E+02  0.00000000000E+00 0. -1.
<scales pt_clust_5="13000.00000" pt_clust_6="13000.00000" pt_clust_7="13000.00000" pt_clust_8="13000.00000" pt_clust_9="25.98647" pt_clust_10="30.62170"></scales>
<clustering>
<clus scale="   25.986">  2  9  1 -1</clus>
<clus scale="   30.622">  2 10  1 -1</clus>
<clus scale="   91.888">  7  8 -1 -1</clus>
<clus scale="   92.189">  5  6 -1 -1</clus>
<clus scale="  112.261">  2  7  1 -1</clus>
<clus scale="  112.508">  1  5  2 -1</clus>
</clustering>
</event>
<event>
10    2  0.1898324E-006  0.1124102E+03  0.7546771E-02  0.1256476E+00
         -2   -1    0    0    0  501 -0.00000000000E+00  0.00000000000E+00  0.74903046535E+02  0.74903046535E+02  0.00000000000E+00 0.  1.
          2   -1    0    0  502    0  0.00000000000E+00 -0.00000000000E+00 -0.44381112470E+03  0.44381112470E+03  0.00000000000E+00 0. -1.
         23    2    1    2    0    0  0.41030402143E+02  0.70246044386E+02 -0.47090643401E+02  0.13084158230E+03  0.91016428800E+02 0.  0.
         23    2    1    2    0    0 -0.44178909519E+02 -0.23060603915E+02 -0.10328663730E+03  0.14589002078E+03  0.90178718215E+02 0.  0.
        -11    1    3    3    0    0  0.69294104860E+02  0.60585324842E+02 -0.32643059836E+02  0.97661783263E+02  0.00000000000E+00 0.  1.
         11    1    3    3    0    0 -0.28263702717E+02  0.96607195431E+01 -0.14447583566E+02  0.33179799039E+02  0.00000000000E+00 0. -1.
        -13    1    4    4    0    0  0.17991299410E+02 -0.27701081459E+02 -0.11585466492E+02  0.35003711265E+02  0.00000000000E+00 0.  1.
         13    1    4    4    0    0 -0.62170208929E+02  0.46404775438E+01 -0.91701170809E+02  0.11088630951E+03  0.00000000000E+00 0. -1.
         21    1    1    2  502  503  0.24369580791E+02  0.16786629238E+02 -0.11263193280E+03  0.11645436735E+03  0.00000000000E+00 0.  1.
         21    1    1    2  503  501 -0.21221073415E+02 -0.63972069708E+02 -0.10589886466E+03  0.12552820079E+03  0.00000000000E+00 0. -1.
<scales pt_clust_5="13000.00000" pt_clust_6="13000.00000" pt_clust_7="13000.00000" pt_clust_8="13000.00000" pt_clust_9="29.59168" pt_clust_10="59.43609"></scales>
<clustering>
<clus scale="   29.592">  2  9  1 -1</clus>
<clus scale="   59.436">  2 10  1 -1</clus>
<clus scale="   90.179">  7  8 -1 -1</clus>
<clus scale="   91.016">  5  6 -1 -1</clus>
<clus scale="  111.733">  2  7  1 -1</clus>
<clus scale="   29.592">  2  5  1 -1</clus>
</clustering>
</event>
<event>
10    2  0.1898324E-006  0.2060949E+03  0.7546771E-02  0.1167140E+00
          1   -1    0    0  503    0  0.00000000000E+00  0.00000000000E+00  0.12762550144E+03  0.12762550144E+03  0.00000000000E+00 0. -1.
         -1   -1    0    0    0  501 -0.00000000000E+00 -0.00000000000E+00 -0.71524515800E+03  0.71524515800E+03  0.00000000000E+00 0.  1.
         23    2    1    2    0    0  0.54866951999E+02  0.69181295568E+02 -0.16503700007E+03  0.20900803105E+03  0.93009201561E+02 0.  0.
         23    2    1    2    0    0 -0.10463795563E+03 -0.17286889132E+03 -0.78323787739E+02  0.23613679740E+03  0.93772149455E+02 0.  0.
        -11    1    3    3    0    0  0.79116346300E+02  0.54841761309E+02 -0.10360795962E+03  0.14142709900E+03  0.00000000000E+00 0.  1.
         11    1    3    3    0    0 -0.24249394300E+02  0.14339534259E+02 -0.61429040446E+02  0.67580932050E+02  0.00000000000E+00 0. -1.
        -11    1    4    4    0    0 -0.69417861677E+02 -0.11972796046E+03 -0.97811746000E+02  0.16947200858E+03  0.00000000000E+00 0.  1.
         11    1    4    4    0    0 -0.35220093955E+02 -0.53140930862E+02  0.19487958262E+02  0.66664788819E+02  0.00000000000E+00 0. -1.
         21    1    1    2  502  501 -0.45434535016E+02 -0.95633594290E+01 -0.49190295690E+02  0.67641998830E+02  0.00000000000E+00 0. -1.
         21    1    1    2  503  502  0.95205538649E+02  0.11325095518E+03 -0.29506857307E+03  0.33008383216E+03  0.00000000000E+00 0.  1.
<scales pt_clust_5="13000.00000" pt_clust_6="13000.00000" pt_clust_7="13000.00000" pt_clust_8="13000.00000" pt_clust_9="46.43011" pt_clust_10="183.52630"></scales>
<clustering>
<clus scale="   46.430">  2  9  1 -1</clus>
<clus scale="   93.009">  5  6 -1 -1</clus>
<clus scale="   93.772">  7  8 -1 -1</clus>
<clus scale="  121.760">  2  5  1 -1</clus>
<clus scale="  183.526">  2 10  1 -1</clus>
<clus scale="  206.095">  1  5  2 -1</clus>
</clustering>
</event>
<event>
10    2  0.1898324E-006  0.1560599E+03  0.7546771E-02  0.1193468E+00
          2   -1    0    0  502    0  0.00000000000E+00  0.00000000000E+00  0.94251865374E+03  0.94251865374E+03  0.00000000000E+00 0. -1.
         -2   -1    0    0    0  501 -0.00000000000E+00 -0.00000000000E+00 -0.56328764443E+02  0.56328764443E+02  0.00000000000E+00 0.  1.
         23    2    1    2    0    0 -0.50063152636E+02  0.12639122889E+03  0.28980006913E+03  0.33338863129E+03  0.93181743970E+02 0.  0.
         23    2    1    2    0    0  0.12903514201E+03 -0.48593420907E+02  0.29549139973E+03  0.33873872433E+03  0.91746213086E+02 0.  0.
        -11    1    3    3    0    0 -0.17021487032E+02  0.11877215965E+03  0.16467826337E+03  0.20375349654E+03  0.00000000000E+00 0.  1.
         11    1    3    3    0    0 -0.33041665603E+02  0.76190692459E+01  0.12512180576E+03  0.12963513474E+03  0.00000000000E+00 0. -1.
        -11    1    4    4    0    0  0.59400393412E+01 -0.40488122610E+02  0.93393618459E+02  0.10196538682E+03  0.00000000000E+00 0. -1.
         11    1    4    4    0    0  0.12309510266E+03 -0.81052982970E+01  0.20209778127E+03  0.23677333751E+03  0.00000000000E+00 0.  1.
         21    1    1    2  502  503 -0.27172996248E+02  0.30988740565E+01  0.10548756868E+03  0.10897523522E+03  0.00000000000E+00 0. -1.
         21    1    1    2  503  501 -0.51798993122E+02 -0.80896682043E+02  0.19541085176E+03  0.21774482736E+03  0.00000000000E+00 0. -1.
<scales pt_clust_5="13000.00000" pt_clust_6="13000.00000" pt_clust_7="13000.00000" pt_clust_8="13000.00000" pt_clust_9="27.34913" pt_clust_10="99.22381"></scales>
<clustering>
<clus scale="   27.349">  1  9  2 -1</clus>
<clus scale="   91.746">  7  8 -1 -1</clus>
<clus scale="   93.182">  5  6 -1 -1</clus>
<clus scale="   99.224">  1 10  2 -1</clus>
<clus scale="  155.207">  1  7  2 -1</clus>
<clus scale="   27.349">  1  5  2 -1</clus>
</clustering>
</event>
<event>
10    2  0.1898324E-006  0.1273174E+03  0.7546771E-02  0.1231596E+00
         -2   -1    0    0    0  501 -0.00000000000E+00  0.00000000000E+00  0.46966859447E+03  0.46966859447E+03  0.00000000000E+00 0.  1.
          2   -1    0    0  502    0  0.00000000000E+00 -0.00000000000E+00 -0.14841005184E+03  0.14841005184E+03  0.00000000000E+00 0. -1.
         23    2    1    2    0    0 -0.11783620692E+03  0.12538237186E+02  0.14130366203E+03  0.20600673900E+03  0.91812159103E+02 0.  0.
         23    2    1    2    0    0  0.60466186228E+02  0.45343938859E+02  0.61075760120E+02  0.13394713492E+03  0.92191941145E+02 0.  0.
        -11    1    4    4    0    0  0.26181339488E+02  0.71393197480E+02  0.41764203617E+02  0.86756555301E+02  0.00000000000E+00 0.  1.
         11    1    4    4    0    0  0.34284846739E+02 -0.26049258621E+02  0.19311556503E+02  0.47190579624E+02  0.00000000000E+00 0. -1.
        -13    1    3    3    0    0 -0.57264308843E+02 -0.35332423509E+02  0.38772482816E+02  0.77658783418E+02  0.00000000000E+00 0. -1.
         13    1    3    3    0    0 -0.60571898072E+02  0.47870660694E+02  0.10253117922E+03  0.12834795559E+03  0.00000000000E+00 0.  1.
         21    1    1    2  502  503  0.37707341453E+01  0.41961843810E+02 -0.55792917139E+02  0.69913263225E+02  0.00000000000E+00 0.  1.
         21    1    1    2  503  501  0.53599286542E+02 -0.99844019854E+02  0.17467203762E+03  0.20821150915E+03  0.00000000000E+00 0.  1.
<scales pt_clust_5="13000.00000" pt_clust_6="13000.00000" pt_clust_7="13000.00000" pt_clust_8="13000.00000" pt_clust_9="42.13092" pt_clust_10="106.52108"></scales>
<clustering>
<clus scale="   42.131">  2  9  1 -1</clus>
<clus scale="   91.812">  7  8 -1 -1</clus>
<clus scale="   92.192">  5  6 -1 -1</clus>
<clus scale="  106.521">  1 10  2 -1</clus>
<clus scale="  127.043">  1  7  2 -1</clus>
<clus scale="   42.131">  2  5  1 -1</clus>
</clustering>
</event>
<event>
10    2  0.1898324E-006  0.1054674E+03  0.7546771E-02  0.1269331E+00
          1   -1    0    0  502    0  0.00000000000E+00  0.00000000000E+00  0.38050180909E+03  0.38050180909E+03  0.00000000000E+00 0. -1.
         -1   -1    0    0    0  501 -0.00000000000E+00 -0.00000000000E+00 -0.74829179029E+02  0.74829179029E+02  0.00000000000E+00 0.  1.
         23    2    1    2    0    0 -0.50136921040E+01 -0.53339256625E+02  0.11952257199E+03  0.15971404496E+03  0.91393202902E+02 0.  0.
         23    2    1    2    0    0  0.37140598418E+02  0.46592499054E+02  0.14181764809E+03  0.17908359377E+03  0.91697345810E+02 0.  0.
        -11    1    3    3    0    0  0.34912907225E+02 -0.10176374803E+02  0.82687772802E+02  0.90331265163E+02  0.00000000000E+00 0.  1.
         11    1    3    3    0    0 -0.39926599329E+02 -0.43162881822E+02  0.36834799190E+02  0.69382779798E+02  0.00000000000E+00 0. -1.
        -13    1    4    4    0    0 -0.11451450710E+01  0.32001699797E+02  0.13348604353E+03  0.13727324563E+03  0.00000000000E+00 0. -1.
         13    1    4    4    0    0  0.38285743489E+02  0.14590799257E+02  0.83316045604E+01  0.41810348145E+02  0.00000000000E+00 0.  1.
         21    1    1    2  502  503 -0.22749774101E+02 -0.18432836063E+02  0.72145972879E+02  0.77861178194E+02  0.00000000000E+00 0. -1.
         21    1    1    2  503  501 -0.93771322122E+01  0.25179593634E+02 -0.27813562897E+02  0.38672171198E+02  0.00000000000E+00 0.  1.
<scales pt_clust_5="13000.00000" pt_clust_6="13000.00000" pt_clust_7="13000.00000" pt_clust_8="13000.00000" pt_clust_9="28.74478" pt_clust_10="26.86899"></scales>
<clustering>
<clus scale="   26.869">  2 10  1 -1</clus>
<clus scale="   28.745">  1  9  2 -1</clus>
<clus scale="   91.393">  5  6 -1 -1</clus>
<clus scale="   91.697">  7  8 -1 -1</clus>
<clus scale="  105.203">  2  5  1 -1</clus>
<clus scale="   28.745">  1  5  2 -1</clus>
</clustering>
</event>
<event>
10    2  0.1898324E-006  0.1522171E+03  0.7546771E-02  0.1197950E+00
         -1   -1    0    0    0  501 -0.00000000000E+00  0.00000000000E+00  0.53396555321E+03  0.53396555321E+03  0.00000000000E+00 0.  1.
          1   -1    0    0  502    0  0.00000000000E+00 -0.00000000000E+00 -0.16990811642E+03  0.16990811642E+03  0.00000000000E+00 0. -1.
         23    2    1    2    0    0  0.65128428827E+02  0.10922687065E+03  0.45318629993E+03  0.47916633281E+03  0.89723634219E+02 0.  0.
         23    2    1    2    0    0 -0.59228550149E+02 -0.65161560232E+02 -0.52020042952E+02  0.13669987750E+03  0.90701276485E+02 0.  0.
        -11    1    4    4    0    0 -0.34193661050E+02 -0.15868054236E+02 -0.69203685107E+02  0.78804515312E+02  0.00000000000E+00 0. -1.
         11    1    4    4    0    0 -0.25034889099E+02 -0.49293505996E+02  0.17183642154E+02  0.57895362191E+02  0.00000000000E+00 0.  1.
        -13    1    3    3    0    0  0.46921683323E+02  0.39621018063E+02  0.33667925912E+03  0.34223441230E+03  0.00000000000E+00 0.  1.
         13    1    3    3    0    0  0.18206745504E+02  0.69605852588E+02  0.11650704081E+03  0.13693192051E+03  0.00000000000E+00 0. -1.
         21    1    1    2  502  503  0.25301252736E+01 -0.20535574200E+02 -0.54008394536E+02  0.57836130766E+02  0.00000000000E+00 0.  1.
         21    1    1    2  503  501 -0.84300039517E+01 -0.23529736219E+02  0.16899574353E+02  0.30171328550E+02  0.00000000000E+00 0.  1.
<scales pt_clust_5="13000.00000" pt_clust_6="13000.00000" pt_clust_7="13000.00000" pt_clust_8="13000.00000" pt_clust_9="20.69085" pt_clust_10="26.07568"></scales>
<clustering>
<clus scale="   20.691">  2  9  1 -1</clus>
<clus scale="   26.076">  2 10  1 -1</clus>
<clus scale="   89.724">  7  8 -1 -1</clus>
<clus scale="   90.701">  5  6 -1 -1</clus>
<clus scale="  151.637">  1  7  2 -1</clus>
<clus scale="   20.691">  2  5  1 -1</clus>
</clustering>
</event>
<event>
10    2  0.1898324E-006  0.1129768E+03  0.7546771E-02  0.1255182E+00
         -2   -1    0    0    0  501 -0.00000000000E+00  0.00000000000E+00  0.31775814207E+03  0.31775814207E+03  0.00000000000E+00 0.  1.
          2   -1    0    0  503    0  0.00000000000E+00 -0.00000000000E+00 -0.76770745687E+03  0.76770745687E+03  0.00000000000E+00 0. -1.
         23    2    1    2    0    0  0.28728935790E+01 -0.66216536957E+02  0.25987307412E+03  0.28351166170E+03  0.91934565773E+02 0.  0.
         23    2    1    2    0    0  0.14794141662E+03  0.42073327491E+02 -0.48638403994E+03  0.51832828184E+03  0.91858292027E+02 0.  0.
        -11    1    3    3    0    0 -0.42640078310E+02 -0.40228903149E+02  0.16530471749E+03  0.17539153500E+03  0.00000000000E+00 0.  1.
         11    1    3    3    0    0  0.45512971889E+02 -0.25987633807E+02  0.94568356627E+02  0.10812012669E+03  0.00000000000E+00 0. -1.
        -13    1    4    4    0    0  0.56999154008E+02 -0.17617940410E+02 -0.26537037525E+03  0.27199399156E+03  0.00000000000E+00 0.  1.
         13    1    4    4    0    0  0.90942262609E+02  0.59691267901E+02 -0.22101366468E+03  0.24633429028E+03  0.00000000000E+00 0. -1.
         21    1    1    2  502  501 -0.74243067692E+02  0.19726324268E+02 -0.17946696652E+03  0.19521668228E+03  0.00000000000E+00 0. -1.
         21    1    1    2  503  502 -0.76571242504E+02  0.44168851972E+01 -0.43971382458E+02  0.88408973124E+02  0.00000000000E+00 0.  1.
<scales pt_clust_5="13000.00000" pt_clust_6="13000.00000" pt_clust_7="13000.00000" pt_clust_8="13000.00000" pt_clust_9="96.97192" pt_clust_10="76.69853"></scales>
<clustering>
<clus scale="   76.699">  2 10  1 -1</clus>
<clus scale="   91.858">  7  8 -1 -1</clus>
<clus scale="   91.935">  5  6 -1 -1</clus>
<clus scale="   96.972">  2  9  1 -1</clus>
<clus scale="  112.915">  2  7  1 -1</clus>
<clus scale="   76.699">  2  5  1 -1</clus>
</clustering>
</event>
<event>
10    2  0.1898324E-006  0.1106778E+03  0.7546771E-02  0.1260514E+00
         -1   -1    0    0    0  501 -0.00000000000E+00  0.00000000000E+00  0.61298195262E+02  0.61298195262E+02  0.00000000000E+00 0.  1.
          1   -1    0    0  502    0  0.00000000000E+00 -0.00000000000E+00 -0.61363992964E+03  0.61363992964E+03  0.00000000000E+00 0. -1.
         23    2    1    2    0    0  0.61706659365E+02  0.23273940855E+02 -0.52164944275E+02  0.12308040611E+03  0.89878900878E+02 0.  0.
         23    2    1    2    0    0 -0.46311219144E+02 -0.18852587155E+02 -0.13212452350E+03  0.16910656585E+03  0.92951556441E+02 0.  0.
        -11    1    3    3    0    0 -0.19642314450E+02 -0.55956157884E+01  0.29939619304E+01  0.20642074533E+02  0.00000000000E+00 0. -1.
         11    1    3    3    0    0  0.81348973815E+02  0.28869556644E+02 -0.55158906206E+02  0.10243833157E+03  0.00000000000E+00 0.  1.
        -13    1    4    4    0    0 -0.21950279246E+02  0.25754642628E+02 -0.10736347043E+03  0.11257011663E+03  0.00000000000E+00 0. -1.
         13    1    4    4    0    0 -0.24360939898E+02 -0.44607229782E+02 -0.24761053066E+02  0.56536449221E+02  0.00000000000E+00 0.  1.
         21    1    1    2  502  503  0.21171301724E+02 -0.38089704201E+02 -0.26235518807E+03  0.26594979656E+03  0.00000000000E+00 0. -1.
         21    1    1    2  503  501 -0.36566741945E+02  0.33668350500E+02 -0.10569707854E+03  0.11680135639E+03  0.00000000000E+00 0. -1.
<scales pt_clust_5="13000.00000" pt_clust_6="13000.00000" pt_clust_7="13000.00000" pt_clust_8="13000.00000" pt_clust_9="43.57809" pt_clust_10="36.79408"></scales>
<clustering>
<clus scale="   43.578">  2  9  1 -1</clus>
<clus scale="   36.794">  2 10  1 -1</clus>
<clus scale="   89.879">  5  6 -1 -1</clus>
<clus scale="   92.952">  7  8 -1 -1</clus>
<clus scale="  108.110">  1  5  2 -1</clus>
<clus scale="   43.578">  2  5  1 -1</clus>
</clustering>
</event>
<event>
10    2  0.1898324E-006  0.9594373E+02  0.7546771E-02  0.1290352E+00
          1   -1    0    0  502    0  0.00000000000E+00  0.00000000000E+00  0.17808696328E+03  0.17808696328E+03  0.00000000000E+00 0. -1.
         -1   -1    0    0    0  501 -0.00000000000E+00 -0.00000000000E+00 -0.39134669200E+03  0.39134669200E+03  0.00000000000E+00 0.  1.
         23    2    1    2    0    0  0.17343763482E+02  0.24079630890E+02 -0.12121238686E+03  0.15254337881E+03  0.87729156713E+02 0.  0.
         23    2    1    2    0    0 -0.26804663741E+02  0.99711778727E+02  0.45522276951E+02  0.14444070477E+03  0.90166017329E+02 0.  0.
        -11    1    4    4    0    0 -0.59216314992E+02  0.62534879580E+02  0.18086532539E+02  0.88001737396E+02  0.00000000000E+00 0. -1.
         11    1    4    4    0    0  0.32411651252E+02  0.37176899147E+02  0.27435744412E+02  0.56438967376E+02  0.00000000000E+00 0.  1.
        -13    1    3    3    0    0  0.35365613696E+02 -0.22447706740E+02 -0.45272654770E+02  0.61678516843E+02  0.00000000000E+00 0.  1.
         13    1    3    3    0    0 -0.18021850213E+02  0.46527337630E+02 -0.75939732085E+02  0.90864861972E+02  0.00000000000E+00 0. -1.
         21    1    1    2  502  503 -0.50292672009E+01 -0.80098024497E+02  0.39531502830E+02  0.89463549968E+02  0.00000000000E+00 0.  1.
         21    1    1    2  503  501  0.14490167459E+02 -0.43693385120E+02 -0.17710112165E+03  0.18298602172E+03  0.00000000000E+00 0.  1.
<scales pt_clust_5="13000.00000" pt_clust_6="13000.00000" pt_clust_7="13000.00000" pt_clust_8="13000.00000" pt_clust_9="85.32502" pt_clust_10="46.03343"></scales>
<clustering>
<clus scale="   46.033">  2 10  1 -1</clus>
<clus scale="   85.325">  1  9  2 -1</clus>
<clus scale="   87.729">  7  8 -1 -1</clus>
<clus scale="   90.166">  5  6 -1 -1</clus>
<clus scale="   93.657">  2  7  1 -1</clus>
<clus scale="   85.325">  1  5  2 -1</clus>
</clustering>
</event>
<event>
10    2  0.1898324E-006  0.1393678E+03  0.7546771E-02  0.1214533E+00
         -2   -1    0    0    0  501 -0.00000000000E+00  0.00000000000E+00  0.16131354419E+03  0.16131354419E+03  0.00000000000E+00 0.  1.
          2   -1    0    0  502    0  0.00000000000E+00 -0.00000000000E+00 -0.24723855043E+03  0.24723855043E+03  0.00000000000E+00 0. -1.
         23    2    1    2    0    0  0.53380393438E+02  0.83618397774E+02  0.15570865251E+02  0.13633415877E+03  0.92211974028E+02 0.  0.
         23    2    1    2    0    0 -0.94452928684E+02 -0.55591416856E+02 -0.87323929012E+02  0.16689467713E+03  0.90645481477E+02 0.  0.
        -13    1    3    3    0    0 -0.21723859518E+02 -0.42283358241E+00 -0.35425454610E+01  0.22014869724E+02  0.00000000000E+00 0.  1.
         13    1    3    3    0    0  0.75104252956E+02  0.84041231357E+02  0.19113410712E+02  0.11431928905E+03  0.00000000000E+00 0. -1.
        -13    1    4    4    0    0 -0.99908010558E+02 -0.14998038241E+02 -0.57672610149E+02  0.11633005496E+03  0.00000000000E+00 0.  1.
         13    1    4    4    0    0  0.54550818738E+01 -0.40593378615E+02 -0.29651318862E+02  0.50564622177E+02  0.00000000000E+00 0. -1.
         21    1    1    2  502  503  0.11252348697E+02 -0.18902268535E+02 -0.51903380196E+02  0.56372617314E+02  0.00000000000E+00 0.  1.
         21    1    1    2  503  501  0.29820186548E+02 -0.91247123834E+01  0.37731437708E+02  0.48950641399E+02  0.00000000000E+00 0. -1.
<scales pt_clust_5="13000.00000" pt_clust_6="13000.00000" pt_clust_7="13000.00000" pt_clust_8="13000.00000" pt_clust_9="21.99798" pt_clust_10="31.66115"></scales>
<clustering>
<clus scale="   21.998">  2  9  1 -1</clus>
<clus scale="   31.661">  1 10  2 -1</clus>
<clus scale="   90.645">  7  8 -1 -1</clus>
<clus scale="   92.212">  5  6 -1 -1</clus>
<clus scale="  138.336">  2  7  1 -1</clus>
<clus scale="   21.998">  2  5  1 -1</clus>
</clustering>
</event>
<event>
10    2  0.1898324E-006  0.1453911E+03  0.7546771E-02  0.1206429E+00
          1   -1    0    0  502    0  0.00000000000E+00  0.00000000000E+00  0.10521970607E+04  0.10521970607E+04  0.00000000000E+00 0. -1.
         -1   -1    0    0    0  501 -0.00000000000E+00 -0.00000000000E+00 -0.57742773716E+02  0.57742773716E+02  0.00000000000E+00 0.  1.
         23    2    1    2    0    0  0.13661721776E+03 -0.62376719294E+02  0.17061557696E+03  0.24477062509E+03  0.90817754378E+02 0.  0.
         23    2    1    2    0    0 -0.99415831915E+02  0.34474053047E+02  0.55894828649E+03  0.57583318219E+03  0.89937193491E+02 0.  0.
        -13    1    3    3    0    0  0.84684164617E+02  0.57485395032E+01  0.56030613450E+02  0.10170488232E+03  0.00000000000E+00 0.  1.
         13    1    3    3    0    0  0.51933053143E+02 -0.68125258797E+02  0.11458496351E+03  0.14306574278E+03  0.00000000000E+00 0. -1.
        -13    1    4    4    0    0 -0.79149985255E+00  0.32928930773E+02  0.74673391789E+02  0.81615295105E+02  0.00000000000E+00 0.  1.
         13    1    4    4    0    0 -0.98624332062E+02  0.15451222744E+01  0.48427489470E+03  0.49421788708E+03  0.00000000000E+00 0. -1.
         21    1    1    2  502  503  0.17987874950E+02  0.33528065372E+02  0.20166635701E+03  0.20522430256E+03  0.00000000000E+00 0. -1.
         21    1    1    2  503  501 -0.55189260796E+02 -0.56253991253E+01  0.63224066555E+02  0.84111724594E+02  0.00000000000E+00 0. -1.
<scales pt_clust_5="13000.00000" pt_clust_6="13000.00000" pt_clust_7="13000.00000" pt_clust_8="13000.00000" pt_clust_9="38.04858" pt_clust_10="53.69669"></scales>
<clustering>
<clus scale="   38.049">  1  9  2 -1</clus>
<clus scale="   53.697">  2 10  1 -1</clus>
<clus scale="   89.937">  7  8 -1 -1</clus>
<clus scale="   90.818">  5  6 -1 -1</clus>
<clus scale="  144.843">  1  7  2 -1</clus>
<clus scale="   38.049">  1  5  2 -1</clus>
</clustering>
</event>
<event>
10    2  0.1898324E-006  0.9422558E+02  0.7546771E-02  0.1293046E+00
          1   -1    0    0  502    0  0.00000000000E+00  0.00000000000E+00  0.12543125038E+03  0.12543125038E+03  0.00000000000E+00 0. -1.
         -1   -1    0    0    0  501 -0.00000000000E+00 -0.00000000000E+00 -0.16073525994E+03  0.16073525994E+03  0.00000000000E+00 0.  1.
         23    2    1    2    0    0 -0.24720109582E+02  0.36768754641E+02 -0.13705661759E+02  0.10274345657E+03  0.91680682633E+02 0.  0.
         23    2    1    2    0    0  0.11134087439E+02  0.14862400223E+02 -0.43506523255E+01  0.93847903437E+02  0.91889291870E+02 0.  0.
        -11    1    3    3    0    0 -0.41951257399E+02 -0.16858452357E+02 -0.99300451503E+01  0.46289536722E+02  0.00000000000E+00 0.  1.
         11    1    3    3    0    0  0.17231147817E+02  0.53627206997E+02 -0.37756166091E+01  0.56453919848E+02  0.00000000000E+00 0. -1.
        -11    1    4    4    0    0 -0.27594826504E+02 -0.12136296993E+02 -0.27912838893E+02  0.41083947346E+02  0.00000000000E+00 0.  1.
         11    1    4    4    0    0  0.38728913943E+02  0.26998697216E+02  0.23562186567E+02  0.52763956091E+02  0.00000000000E+00 0. -1.
         21    1    1    2  502  503  0.12343107730E+02 -0.28590345649E+02  0.25992745334E+02  0.40563320658E+02  0.00000000000E+00 0. -1.
         21    1    1    2  503  501  0.12429144130E+01 -0.23040809214E+02 -0.43240440810E+02  0.49011829663E+02  0.00000000000E+00 0.  1.
<scales pt_clust_5="13000.00000" pt_clust_6="13000.00000" pt_clust_7="13000.00000" pt_clust_8="13000.00000" pt_clust_9="32.52092" pt_clust_10="23.07431"></scales>
<clustering>
<clus scale="   23.074">  2 10  1 -1</clus>
<clus scale="   32.521">  1  9  2 -1</clus>
<clus scale="   91.681">  5  6 -1 -1</clus>
<clus scale="   91.889">  7  8 -1 -1</clus>
<clus scale="   94.022">  2  5  1 -1</clus>
<clus scale="   32.521">  1  5  2 -1</clus>
</clustering>
</event>
<event>
10    2  0.1898324E-006  0.1374803E+03  0.7546771E-02  0.1217180E+00
          2   -1    0    0  502    0  0.00000000000E+00  0.00000000000E+00  0.87322005451E+03  0.87322005451E+03  0.00000000000E+00 0. -1.
         -2   -1    0    0    0  501 -0.00000000000E+00 -0.00000000000E+00 -0.22141811336E+03  0.22141811336E+03  0.00000000000E+00 0.  1.
         23    2    1    2    0    0 -0.11642319927E+03  0.21525928714E+02  0.20636580313E+02  0.15094839473E+03  0.91333578098E+02 0.  0.
         23    2    1    2    0    0  0.47592751973E+02  0.15212173743E+02  0.30329190923E+03  0.32117974142E+03  0.93134117374E+02 0.  0.
        -11    1    3    3    0    0 -0.30323792750E+02  0.40002202322E+02  0.35716995676E+02  0.61606918260E+02  0.00000000000E+00 0. -1.
         11    1    3    3    0    0 -0.86099406521E+02 -0.18476273608E+02 -0.15080415364E+02  0.89341476466E+02  0.00000000000E+00 0.  1.
        -11    1    4    4    0    0 -0.25969448593E+02 -0.41443565122E+01  0.11774634162E+03  0.12064737427E+03  0.00000000000E+00 0.  1.
         11    1    4    4    0    0  0.73562200566E+02  0.19356530255E+02  0.18554556761E+03  0.20053236715E+03  0.00000000000E+00 0. -1.
         21    1    1    2  502  503  0.68013714633E+02 -0.16227118904E+02  0.47188778925E+03  0.47704011405E+03  0.00000000000E+00 0. -1.
         21    1    1    2  503  501  0.81673266408E+00 -0.20510983553E+02 -0.14401433766E+03  0.14546991768E+03  0.00000000000E+00 0. -1.
<scales pt_clust_5="13000.00000" pt_clust_6="13000.00000" pt_clust_7="13000.00000" pt_clust_8="13000.00000" pt_clust_9="70.11247" pt_clust_10="20.52724"></scales>
<clustering>
<clus scale="   20.527">  2 10  1 -1</clus>
<clus scale="   70.112">  1  9  2 -1</clus>
<clus scale="   91.334">  5  6 -1 -1</clus>
<clus scale="   93.134">  7  8 -1 -1</clus>
<clus scale="  136.267">  2  5  1 -1</clus>
<clus scale="   70.112">  1  5  2 -1</clus>
</clustering>
</event>
<event>
10    2  0.1898324E-006  0.9483008E+02  0.7546771E-02  0.1293304E+00
         -1   -1    0    0    0  501 -0.00000000000E+00  0.00000000000E+00  0.35727129659E+03  0.35727129659E+03  0.00000000000E+00 0.  1.
          1   -1    0    0  502    0  0.00000000000E+00 -0.00000000000E+00 -0.18625178493E+03  0.18625178493E+03  0.00000000000E+00 0. -1.
         23    2    1    2    0    0  0.14882032440E+02 -0.20300107317E+02  0.16393231401E+03  0.19051535511E+03  0.93748214434E+02 0.  0.
         23    2    1    2    0    0  0.14094087010E+02 -0.27628492065E+02 -0.12450669396E+03  0.15711686052E+03  0.90674219917E+02 0.  0.
        -11    1    3    3    0    0  0.40159836794E+02  0.23378498298E+02  0.83591858567E+02  0.95639769409E+02  0.00000000000E+00 0.  1.
         11    1    3    3    0    0 -0.25277804354E+02 -0.43678605615E+02  0.80340455442E+02  0.94875585701E+02  0.00000000000E+00 0. -1.
        -13    1    4    4    0    0  0.36126676794E+02 -0.48086018046E+02 -0.10581754321E+03  0.12171587554E+03  0.00000000000E+00 0. -1.
         13    1    4    4    0    0 -0.22032589784E+02  0.20457525982E+02 -0.18689150747E+02  0.35400984980E+02  0.00000000000E+00 0.  1.
         21    1    1    2  502  503 -0.25831041951E+02  0.14647605849E+02 -0.23102697724E+02  0.37623526250E+02  0.00000000000E+00 0.  1.
         21    1    1    2  503  501 -0.31450774999E+01  0.33280993532E+02  0.15469658934E+03  0.15826733964E+03  0.00000000000E+00 0.  1.
<scales pt_clust_5="13000.00000" pt_clust_6="13000.00000" pt_clust_7="13000.00000" pt_clust_8="13000.00000" pt_clust_9="29.69503" pt_clust_10="33.62527"></scales>
<clustering>
<clus scale="   29.695">  2  9  1 -1</clus>
<clus scale="   33.625">  1 10  2 -1</clus>
<clus scale="   90.674">  7  8 -1 -1</clus>
<clus scale="   91.792">  2  7  1 -1</clus>
<clus scale="   93.748">  5  6 -1 -1</clus>
<clus scale="   29.695">  2  5  1 -1</clus>
</clustering>
</event>
<event>
10    2  0.1898324E-006  0.1137142E+03  0.7546771E-02  0.1256180E+00
          1   -1    0    0  502    0  0.00000000000E+00  0.00000000000E+00  0.83135545562E+02  0.83135545562E+02  0.00000000000E+00 0. -1.
         -1   -1    0    0    0  501 -0.00000000000E+00 -0.00000000000E+00 -0.59281976643E+03  0.59281976643E+03  0.00000000000E+00 0.  1.
         23    2    1    2    0    0  0.11279995086E+03  0.22025073677E+02 -0.32266331216E+03  0.35525334481E+03  0.94257059125E+02 0.  0.
         23    2    1    2    0    0 -0.17383934643E+02 -0.40632060366E+02 -0.80220145328E+02  0.12699821900E+03  0.87977897225E+02 0.  0.
        -11    1    4    4    0    0  0.13907279363E+02 -0.55119626182E+02 -0.71658865490E+02  0.91469003564E+02  0.00000000000E+00 0.  1.
         11    1    4    4    0    0 -0.31291214006E+02  0.14487565815E+02 -0.85612798378E+01  0.35529215439E+02  0.00000000000E+00 0. -1.
        -13    1    3    3    0    0  0.42578126447E+02  0.36776556925E+02 -0.57077807718E+02  0.80145418615E+02  0.00000000000E+00 0. -1.
         13    1    3    3    0    0  0.70221824417E+02 -0.14751483248E+02 -0.26558550445E+03  0.27510792619E+03  0.00000000000E+00 0.  1.
         21    1    1    2  502  503 -0.38646412360E+02  0.12386556999E+02  0.26647061999E+02  0.48549334658E+02  0.00000000000E+00 0. -1.
         21    1    1    2  503  501 -0.56769603861E+02  0.62204296905E+01 -0.13344782538E+03  0.14515441353E+03  0.00000000000E+00 0.  1.
<scales pt_clust_5="13000.00000" pt_clust_6="13000.00000" pt_clust_7="13000.00000" pt_clust_8="13000.00000" pt_clust_9="40.58290" pt_clust_10="62.22951"></scales>
<clustering>
<clus scale="   40.583">  1  9  2 -1</clus>
<clus scale="   62.230">  2 10  1 -1</clus>
<clus scale="   87.978">  5  6 -1 -1</clus>
<clus scale="   94.257">  7  8 -1 -1</clus>
<clus scale="  108.566">  1  5  2 -1</clus>
<clus scale="   40.583">  1  5  2 -1</clus>
</clustering>
</event>
<event>
10    2  0.1898324E-006  0.2117261E+03  0.7546771E-02  0.1140383E+00
         -1   -1    0    0    0  501 -0.00000000000E+00  0.00000000000E+00  0.44630133900E+02  0.44630133900E+02  0.00000000000E+00 0.  1.
          1   -1    0    0  502    0  0.00000000000E+00 -0.00000000000E+00 -0.18181709090E+04  0.18181709090E+04  0.00000000000E+00 0. -1.
         23    2    1    2    0    0 -0.13273863428E+03  0.85704796801E+02 -0.50190131591E+03  0.53440849957E+03  0.93395161938E+02 0.  0.
         23    2    1    2    0    0  0.16791852403E+03 -0.14903157798E+03 -0.10352965990E+04  0.10632909319E+04  0.91331901179E+02 0.  0.
        -11    1    3    3    0    0 -0.21150240356E+02  0.47417835409E+02 -0.26168521080E+03  0.26678630649E+03  0.00000000000E+00 0. -1.
         11    1    3    3    0    0 -0.11158839392E+03  0.38286961392E+02 -0.24021610511E+03  0.26762219307E+03  0.00000000000E+00 0.  1.
        -13    1    4    4    0    0  0.75929246373E+02 -0.11635023464E+03 -0.48959872493E+03  0.50892979772E+03  0.00000000000E+00 0. -1.
         13    1    4    4    0    0  0.91989277660E+02 -0.32681343331E+02 -0.54569787403E+03  0.55436113421E+03  0.00000000000E+00 0.  1.
         21    1    1    2  502  503 -0.11050795445E+02  0.26492150296E+02 -0.21363949671E+03  0.21555924629E+03  0.00000000000E+00 0.  1.
         21    1    1    2  503  501 -0.24129094309E+02  0.36834630879E+02 -0.22703363503E+02  0.49542365088E+02  0.00000000000E+00 0. -1.
<scales pt_clust_5="13000.00000" pt_clust_6="13000.00000" pt_clust_7="13000.00000" pt_clust_8="13000.00000" pt_clust_9="28.70460" pt_clust_10="44.66988"></scales>
<clustering>
<clus scale="   28.705">  2  9  1 -1</clus>
<clus scale="   44.670">  1 10  2 -1</clus>
<clus scale="   91.332">  7  8 -1 -1</clus>
<clus scale="   93.395">  5  6 -1 -1</clus>
<clus scale="  210.824">  2  7  1 -1</clus>
<clus scale="   28.705">  2  5  1 -1</clus>
</clustering>
</event>
<event>
10    2  0.2238916E-006  0.2019250E+03  0.7546771E-02  0.1148379E+00
         -1   -1    0    0    0  501 -0.00000000000E+00  0.00000000000E+00  0.81767828101E+02  0.81767828101E+02  0.00000000000E+00 0.  1.
          1   -1    0    0  502    0  0.00000000000E+00 -0.00000000000E+00 -0.94806973200E+03  0.94806973200E+03  0.00000000000E+00 0. -1.
         23    2    1    2    0    0 -0.16773481693E+03 -0.61462237551E+02 -0.10392041654E+03  0.22685000914E+03  0.93535545208E+02 0.  0.
         23    2    1    2    0    0  0.16006627729E+03  0.50098777296E+02 -0.69178021970E+03  0.71760067188E+03  0.90883173900E+02 0.  0.
        -13    1    4    4    0    0  0.18732248781E+02  0.45514769299E+02 -0.19074315235E+03  0.19699096816E+03  0.00000000000E+00 0.  1.
         13    1    4    4    0    0  0.14133402851E+03  0.45840079963E+01 -0.50103706735E+03  0.52060970371E+03  0.00000000000E+00 0. -1.
        -13    1    3    3    0    0 -0.97131576854E+02 -0.16016184887E+02 -0.71093936645E+01  0.98699568787E+02  0.00000000000E+00 0.  1.
         13    1    3    3    0    0 -0.70603240075E+02 -0.45446052664E+02 -0.96811022878E+02  0.12815044035E+03  0.00000000000E+00 0. -1.
         21    1    1    2  502  503  0.19334611246E+02 -0.10507671232E+02 -0.42897575746E+02  0.48212450173E+02  0.00000000000E+00 0. -1.
         21    1    1    2  503  501 -0.11666071611E+02  0.21871131487E+02 -0.27703691911E+02  0.37174428911E+02  0.00000000000E+00 0. -1.
<scales pt_clust_5="13000.00000" pt_clust_6="13000.00000" pt_clust_7="13000.00000" pt_clust_8="13000.00000" pt_clust_9="22.00542" pt_clust_10="24.13160"></scales>
<clustering>
<clus scale="   22.005">  2  9  1 -1</clus>
<clus scale="   24.132">  1 10  2 -1</clus>
<clus scale="   90.883">  5  6 -1 -1</clus>
<clus scale="   93.536">  7  8 -1 -1</clus>
<clus scale="  200.710">  2  5  1 -1</clus>
<clus scale="   22.005">  2  5  1 -1</clus>
</clustering>
</event>
<event>
10    2  0.1898324E-006  0.1025876E+03  0.7546771E-02  0.1279743E+00
          1   -1    0    0  502    0  0.00000000000E+00  0.00000000000E+00  0.14220516391E+03  0.14220516391E+03  0.00000000000E+00 0. -1.
         -1   -1    0    0    0  501 -0.00000000000E+00 -0.00000000000E+00 -0.22459143342E+03  0.22459143342E+03  0.00000000000E+00 0.  1.
         23    2    1    2    0    0 -0.32477747902E+01 -0.33060470232E+02 -0.40918641617E+02  0.10627953502E+03  0.92290094802E+02 0.  0.
         23    2    1    2    0    0  0.24674946831E+02 -0.27908825859E+02 -0.21866279633E+02  0.11020981890E+03  0.10139188545E+03 0.  0.
        -11    1    4    4    0    0  0.20341169359E+02  0.36929149216E+02 -0.17983763567E+01  0.42199044897E+02  0.00000000000E+00 0.  1.
         11    1    4    4    0    0  0.43337774721E+01 -0.64837975076E+02 -0.20067903276E+02  0.68010774007E+02  0.00000000000E+00 0. -1.
        -13    1    3    3    0    0 -0.46744643254E+02 -0.10351287972E+02 -0.12130781354E+02  0.49389945251E+02  0.00000000000E+00 0.  1.
         13    1    3    3    0    0  0.43496868464E+02 -0.22709182260E+02 -0.28787860263E+02  0.56889589765E+02  0.00000000000E+00 0. -1.
         21    1    1    2  502  503  0.86527622207E+01  0.33430183031E+02  0.55199639428E+02  0.65111040727E+02  0.00000000000E+00 0.  1.
         21    1    1    2  503  501 -0.30079934261E+02  0.27539113060E+02 -0.74800987681E+02  0.85196202682E+02  0.00000000000E+00 0.  1.
<scales pt_clust_5="13000.00000" pt_clust_6="13000.00000" pt_clust_7="13000.00000" pt_clust_8="13000.00000" pt_clust_9="34.53183" pt_clust_10="41.85277"></scales>
<clustering>
<clus scale="   34.532">  1  9  2 -1</clus>
<clus scale="   41.853">  2 10  1 -1</clus>
<clus scale="   92.290">  7  8 -1 -1</clus>
<clus scale="   93.602">  2  7  1 -1</clus>
<clus scale="  101.392">  5  6 -1 -1</clus>
<clus scale="   34.532">  1  5  2 -1</clus>
</clustering>
</event>
<event>
10    2  0.1898324E-006  0.9236324E+02  0.7546771E-02  0.1298543E+00
          1   -1    0    0  502    0  0.00000000000E+00  0.00000000000E+00  0.32549854137E+03  0.32549854137E+03  0.00000000000E+00 0. -1.
         -1   -1    0    0    0  501 -0.00000000000E+00 -0.00000000000E+00 -0.25538866860E+03  0.25538866860E+03  0.00000000000E+00 0.  1.
         23    2    1    2    0    0  0.52903214469E+02 -0.28477648526E+02 -0.58149848711E+02  0.12440776762E+03  0.92120362420E+02 0.  0.
         23    2    1    2    0    0  0.78951745994E+02 -0.21236807029E+02  0.16125829352E+03  0.20191476092E+03  0.89894122612E+02 0.  0.
        -11    1    3    3    0    0  0.37634538918E+02 -0.13164763917E+02  0.19084835527E+02  0.44202946459E+02  0.00000000000E+00 0. -1.
         11    1    3    3    0    0  0.15268675551E+02 -0.15312884609E+02 -0.77234684239E+02  0.80204821162E+02  0.00000000000E+00 0.  1.
        -11    1    4    4    0    0  0.36414808858E+01  0.21924525900E+02  0.79942772186E+02  0.82974646994E+02  0.00000000000E+00 0.  1.
         11    1    4    4    0    0  0.75310265108E+02 -0.43161332929E+02  0.81315521331E+02  0.11894011392E+03  0.00000000000E+00 0. -1.
         21    1    1    2  502  503 -0.79435584274E+02  0.29961937256E+01  0.85550464776E+02  0.11678129666E+03  0.00000000000E+00 0.  1.
         21    1    1    2  503  501 -0.52419376188E+02  0.46718261829E+02 -0.11854903681E+03  0.13778338476E+03  0.00000000000E+00 0.  1.
<scales pt_clust_5="13000.00000" pt_clust_6="13000.00000" pt_clust_7="13000.00000" pt_clust_8="13000.00000" pt_clust_9="86.31227" pt_clust_10="70.21671"></scales>
<clustering>
<clus scale="   70.217">  2 10  1 -1</clus>
<clus scale="   86.312">  1  9  2 -1</clus>
<clus scale="   89.894">  7  8 -1 -1</clus>
<clus scale="   90.143">  1  7  2 -1</clus>
<clus scale="   92.120">  5  6 -1 -1</clus>
<clus scale="   86.312">  1  5  2 -1</clus>
</clustering>
</event>
<event>
10    2  0.1898324E-006  0.1026401E+03  0.7546771E-02  0.1276792E+00
         -2   -1    0    0    0  501 -0.00000000000E+00  0.00000000000E+00  0.18470188318E+03  0.18470188318E+03  0.00000000000E+00 0.  1.
          2   -1    0    0  502    0  0.00000000000E+00 -0.00000000000E+00 -0.16844486006E+03  0.16844486006E+03  0.00000000000E+00 0. -1.
         23    2    1    2    0    0 -0.65390597876E+01  0.87067185051E+01  0.57422949828E+02  0.11108381714E+03  0.94465088855E+02 0.  0.
         23    2    1    2    0    0  0.49629312697E+02  0.49701839595E+02 -0.74119191266E+02  0.13635003156E+03  0.90356710066E+02 0.  0.
        -11    1    4    4    0    0  0.39738291047E+02  0.78801316439E+01 -0.83097401784E+02  0.92446776219E+02  0.00000000000E+00 0. -1.
         11    1    4    4    0    0  0.98910216499E+01  0.41821707951E+02  0.89782105183E+01  0.43903255338E+02  0.00000000000E+00 0.  1.
        -13    1    3    3    0    0  0.10689409628E+02 -0.40054021394E+02  0.36716028148E+02  0.55377385555E+02  0.00000000000E+00 0.  1.
         13    1    3    3    0    0 -0.17228469416E+02  0.48760739899E+02  0.20706921680E+02  0.55706431580E+02  0.00000000000E+00 0. -1.
         21    1    1    2  502  503 -0.20579397739E+02 -0.11692610292E+02 -0.20446305028E+02  0.31277470103E+02  0.00000000000E+00 0. -1.
         21    1    1    2  503  501 -0.22510855170E+02 -0.46715947808E+02  0.53399569587E+02  0.74435424444E+02  0.00000000000E+00 0.  1.
<scales pt_clust_5="13000.00000" pt_clust_6="13000.00000" pt_clust_7="13000.00000" pt_clust_8="13000.00000" pt_clust_9="23.66915" pt_clust_10="53.30198"></scales>
<clustering>
<clus scale="   23.669">  2  9  1 -1</clus>
<clus scale="   53.302">  1 10  2 -1</clus>
<clus scale="   90.357">  5  6 -1 -1</clus>
<clus scale="   94.465">  7  8 -1 -1</clus>
<clus scale="   98.872">  2  5  1 -1</clus>
<clus scale="   23.669">  2  5  1 -1</clus>
</clustering>
</event>
<event>
10    2  0.1898324E-006  0.1597389E+03  0.7546771E-02  0.1189249E+00
          1   -1    0    0  502    0  0.00000000000E+00  0.00000000000E+00  0.56311373503E+03  0.56311373503E+03  0.00000000000E+00 0. -1.
         -1   -1    0    0    0  501 -0.00000000000E+00 -0.00000000000E+00 -0.10405181581E+03  0.10405181581E+03  0.00000000000E+00 0.  1.
         23    2    1    2    0    0  0.36095145375E+02 -0.12698433318E+03  0.24153223743E+02  0.16118107951E+03  0.89264112497E+02 0.  0.
         23    2    1    2    0    0 -0.33557166654E+02  0.12832551442E+03  0.29597936811E+03  0.33682959831E+03  0.90867325622E+02 0.  0.
        -11    1    4    4    0    0  0.25269950729E+02  0.31503990020E+02  0.39728010198E+02  0.56651448273E+02  0.00000000000E+00 0.  1.
         11    1    4    4    0    0 -0.58827117383E+02  0.96821524399E+02  0.25625135791E+03  0.28017815003E+03  0.00000000000E+00 0. -1.
        -11    1    3    3    0    0  0.37984670539E+02 -0.96982573630E+02  0.55272801745E+02  0.11791326217E+03  0.00000000000E+00 0. -1.
         11    1    3    3    0    0 -0.18895251646E+01 -0.30001759555E+02 -0.31119578002E+02  0.43267817333E+02  0.00000000000E+00 0.  1.
         21    1    1    2  502  503  0.32294887489E+02  0.42645605849E+01  0.12820668264E+03  0.13228038293E+03  0.00000000000E+00 0. -1.
         21    1    1    2  503  501 -0.34832866210E+02 -0.56057418193E+01  0.10722644734E+02  0.36874490096E+02  0.00000000000E+00 0. -1.
<scales pt_clust_5="13000.00000" pt_clust_6="13000.00000" pt_clust_7="13000.00000" pt_clust_8="13000.00000" pt_clust_9="32.57524" pt_clust_10="33.49087"></scales>
<clustering>
<clus scale="   32.575">  1  9  2 -1</clus>
<clus scale="   33.491">  2 10  1 -1</clus>
<clus scale="   89.264">  7  8 -1 -1</clus>
<clus scale="   90.867">  5  6 -1 -1</clus>
<clus scale="  158.832">  2  7  1 -1</clus>
<clus scale="   32.575">  1  5  2 -1</clus>
</clustering>
</event>
<event>
10    2  0.1898324E-006  0.1057710E+03  0.7546771E-02  0.1269567E+00
          2   -1    0    0  502    0  0.00000000000E+00  0.00000000000E+00  0.18477373286E+03  0.18477373286E+03  0.00000000000E+00 0. -1.
         -2   -1    0    0    0  501 -0.00000000000E+00 -0.00000000000E+00 -0.17755604055E+03  0.17755604055E+03  0.00000000000E+00 0.  1.
         23    2    1    2    0    0 -0.41791461845E+02 -0.16774916671E+01 -0.39967142631E+02  0.10648340744E+03  0.89398005054E+02 0.  0.
         23    2    1    2    0    0  0.66857999229E+02  0.51338543801E+02  0.34302705245E+02  0.12916002639E+03  0.91651506756E+02 0.  0.
        -11    1    4    4    0    0  0.37044977537E+02  0.82601408229E+01 -0.28435296220E+02  0.47424955016E+02  0.00000000000E+00 0.  1.
         11    1    4    4    0    0  0.29813021691E+02  0.43078402978E+02  0.62738001465E+02  0.81735071379E+02  0.00000000000E+00 0. -1.
        -13    1    3    3    0    0 -0.22464573421E+02  0.39254761527E+02 -0.41229452055E+02  0.61200172208E+02  0.00000000000E+00 0. -1.
         13    1    3    3    0    0 -0.19326888423E+02 -0.40932253194E+02  0.12623094235E+01  0.45283235228E+02  0.00000000000E+00 0.  1.
         21    1    1    2  502  503 -0.41167572222E+02 -0.15181260882E+02  0.54714553007E+02  0.70135026879E+02  0.00000000000E+00 0. -1.
         21    1    1    2  503  501  0.16101034838E+02 -0.34479791252E+02 -0.41832423316E+02  0.56551312701E+02  0.00000000000E+00 0.  1.
<scales pt_clust_5="13000.00000" pt_clust_6="13000.00000" pt_clust_7="13000.00000" pt_clust_8="13000.00000" pt_clust_9="43.74607" pt_clust_10="38.05390"></scales>
<clustering>
<clus scale="   38.054">  2 10  1 -1</clus>
<clus scale="   43.746">  1  9  2 -1</clus>
<clus scale="   89.398">  7  8 -1 -1</clus>
<clus scale="   91.652">  5  6 -1 -1</clus>
<clus scale="  103.824">  2  7  1 -1</clus>
<clus scale="   43.746">  1  5  2 -1</clus>
</clustering>
</event>
<event>
10    2  0.1898324E-006  0.3086478E+03  0.7546771E-02  0.1106029E+00
         -2   -1    0    0    0  501 -0.00000000000E+00  0.00000000000E+00  0.15037412712E+04  0.15037412712E+04  0.00000000000E+00 0.  1.
          2   -1    0    0  502    0  0.00000000000E+00 -0.00000000000E+00 -0.17160689163E+03  0.17160689163E+03  0.00000000000E+00 0. -1.
         23    2    1    2    0    0  0.36210558793E+03 -0.20352524465E+03  0.31219131344E+03  0.52754847919E+03  0.91109822124E+02 0.  0.
         23    2    1    2    0    0 -0.12311559630E+03  0.32797622437E+02  0.13269673336E+03  0.20513682471E+03  0.90772020561E+02 0.  0.
        -11    1    3    3    0    0  0.25100203475E+02  0.11665572658E+01  0.44054041340E+02  0.50716265918E+02  0.00000000000E+00 0.  1.
         11    1    3    3    0    0  0.33700538446E+03 -0.20469180192E+03  0.26813727210E+03  0.47683221327E+03  0.00000000000E+00 0. -1.
        -11    1    4    4    0    0 -0.27853621128E+01 -0.21838452382E+02  0.32675004282E+02  0.39399646565E+02  0.00000000000E+00 0. -1.
         11    1    4    4    0    0 -0.12033023418E+03  0.54636074819E+02  0.10002172908E+03  0.16573717814E+03  0.00000000000E+00 0.  1.
         21    1    1    2  502  503 -0.15985303127E+02  0.14769627178E+02  0.95848456404E+01  0.23781107397E+02  0.00000000000E+00 0.  1.
         21    1    1    2  503  501 -0.22300468851E+03  0.15595799504E+03  0.87766148715E+03  0.91888175156E+03  0.00000000000E+00 0.  1.
<scales pt_clust_5="13000.00000" pt_clust_6="13000.00000" pt_clust_7="13000.00000" pt_clust_8="13000.00000" pt_clust_9="21.76400" pt_clust_10="294.89396"></scales>
<clustering>
<clus scale="   21.764">  2  9  1 -1</clus>
<clus scale="   90.772">  7  8 -1 -1</clus>
<clus scale="   91.110">  5  6 -1 -1</clus>
<clus scale="  159.924">  2  7  1 -1</clus>
<clus scale="  294.894">  1 10  2 -1</clus>
<clus scale="   21.764">  2  5  1 -1</clus>
</clustering>
</event>
<event>
10    2  0.1898324E-006  0.2891145E+03  0.7546771E-02  0.1091194E+00
         -1   -1    0    0    0  501 -0.00000000000E+00  0.00000000000E+00  0.90605752248E+02  0.90605752248E+02  0.00000000000E+00 0.  1.
          1   -1    0    0  502    0  0.00000000000E+00 -0.00000000000E+00 -0.14072210496E+04  0.14072210496E+04  0.00000000000E+00 0. -1.
         23    2    1    2    0    0 -0.26088601845E+03 -0.66504295990E+02 -0.36688569706E+03  0.46573125883E+03  0.99076509538E+02 0.  0.
         23    2    1    2    0    0  0.26616147975E+03  0.11764164100E+03 -0.75786758232E+03  0.81681949476E+03  0.90273615667E+02 0.  0.
        -11    1    3    3    0    0 -0.22937185487E+02 -0.14315672201E+02 -0.21477571844E+01  0.27123160021E+02  0.00000000000E+00 0. -1.
         11    1    3    3    0    0 -0.23794883296E+03 -0.52188623789E+02 -0.36473793987E+03  0.43860809881E+03  0.00000000000E+00 0.  1.
        -13    1    4    4    0    0  0.16238350683E+02  0.28210944753E+02 -0.40769520798E+02  0.52169869301E+02  0.00000000000E+00 0.  1.
         13    1    4    4    0    0  0.24992312907E+03  0.89430696248E+02 -0.71709806152E+03  0.76464962546E+03  0.00000000000E+00 0. -1.
         21    1    1    2  502  503 -0.33098300819E+02 -0.16205279572E+02 -0.14859159865E+03  0.15309334340E+03  0.00000000000E+00 0.  1.
         21    1    1    2  503  501  0.27822839516E+02 -0.34932065438E+02 -0.43270419308E+02  0.62182704844E+02  0.00000000000E+00 0.  1.
<scales pt_clust_5="13000.00000" pt_clust_6="13000.00000" pt_clust_7="13000.00000" pt_clust_8="13000.00000" pt_clust_9="36.85253" pt_clust_10="44.35055"></scales>
<clustering>
<clus scale="   36.853">  2  9  1 -1</clus>
<clus scale="   44.351">  1 10  2 -1</clus>
<clus scale="   90.274">  7  8 -1 -1</clus>
<clus scale="   99.077">  5  6 -1 -1</clus>
<clus scale="  286.217">  2  7  1 -1</clus>
<clus scale="   36.853">  2  5  1 -1</clus>
</clustering>
</event>
<event>
10    2  0.1898324E-006  0.1097792E+03  0.7546771E-02  0.1263122E+00
          1   -1    0    0  502    0  0.00000000000E+00  0.00000000000E+00  0.17569133357E+03  0.17569133357E+03  0.00000000000E+00 0. -1.
         -1   -1    0    0    0  501 -0.00000000000E+00 -0.00000000000E+00 -0.14591853340E+03  0.14591853340E+03  0.00000000000E+00 0.  1.
         23    2    1    2    0    0  0.46645460228E+02  0.68471247244E+01 -0.39855678288E+02  0.11403016927E+03  0.95873470448E+02 0.  0.
         23    2    1    2    0    0 -0.43408573481E+02 -0.16067993159E+02  0.32393010771E+02  0.10683313230E+03  0.90672632889E+02 0.  0.
        -11    1    3    3    0    0  0.72707247410E+02  0.16152763647E+02 -0.43286367934E+02  0.86145024513E+02  0.00000000000E+00 0.  1.
         11    1    3    3    0    0 -0.26061787182E+02 -0.93056389226E+01  0.34306896458E+01  0.27885144760E+02  0.00000000000E+00 0. -1.
        -11    1    4    4    0    0 -0.75677178082E+01 -0.30413559901E+02 -0.23310705494E+02  0.39059492691E+02  0.00000000000E+00 0.  1.
         11    1    4    4    0    0 -0.35840855673E+02  0.14345566742E+02  0.55703716265E+02  0.67773639612E+02  0.00000000000E+00 0. -1.
         21    1    1    2  502  503 -0.27276822346E+02 -0.11612421883E+02  0.56322760795E+02  0.63648462376E+02  0.00000000000E+00 0.  1.
         21    1    1    2  503  501  0.24039935599E+02  0.20833290318E+02 -0.19087293104E+02  0.37098103012E+02  0.00000000000E+00 0.  1.
<scales pt_clust_5="13000.00000" pt_clust_6="13000.00000" pt_clust_7="13000.00000" pt_clust_8="13000.00000" pt_clust_9="29.64580" pt_clust_10="29.62327"></scales>
<clustering>
<clus scale="   29.646">  1  9  2 -1</clus>
<clus scale="   29.623">  2 10  1 -1</clus>
<clus scale="   90.673">  7  8 -1 -1</clus>
<clus scale="   95.873">  5  6 -1 -1</clus>
<clus scale="  105.268">  1  7  2 -1</clus>
<clus scale="   29.646">  1  5  2 -1</clus>
</clustering>
</event>
<event>
10    2  0.1898324E-006  0.9800074E+02  0.7546771E-02  0.1285609E+00
          2   -1    0    0  502    0  0.00000000000E+00  0.00000000000E+00  0.17790581614E+03  0.17790581614E+03  0.00000000000E+00 0. -1.
         -2   -1    0    0    0  501 -0.00000000000E+00 -0.00000000000E+00 -0.26334019773E+03  0.26334019773E+03  0.00000000000E+00 0.  1.
         23    2    1    2    0    0  0.82262266172E+01  0.12623966164E+02 -0.13895545956E+03  0.16822662814E+03  0.93619139848E+02 0.  0.
         23    2    1    2    0    0  0.30410834427E+02 -0.11185289830E+02  0.10356410365E+03  0.14200764957E+03  0.91600870151E+02 0.  0.
        -11    1    4    4    0    0  0.59996116236E+02  0.97948672557E+01  0.61667896692E+02  0.86593318855E+02  0.00000000000E+00 0.  1.
         11    1    4    4    0    0 -0.29585281809E+02 -0.20980157086E+02  0.41896206957E+02  0.55414330713E+02  0.00000000000E+00 0. -1.
        -13    1    3    3    0    0 -0.13130749851E+01  0.52910224482E+02 -0.86417039447E+02  0.10133667020E+03  0.00000000000E+00 0.  1.
         13    1    3    3    0    0  0.95393016023E+01 -0.40286258319E+02 -0.52538420117E+02  0.66889957937E+02  0.00000000000E+00 0. -1.
         21    1    1    2  502  503 -0.20434491133E+02 -0.21500809497E+02  0.32580564697E+02  0.44060713031E+02  0.00000000000E+00 0. -1.
         21    1    1    2  503  501 -0.18202569912E+02  0.20062133163E+02 -0.82623590373E+02  0.86951023137E+02  0.00000000000E+00 0. -1.
<scales pt_clust_5="13000.00000" pt_clust_6="13000.00000" pt_clust_7="13000.00000" pt_clust_8="13000.00000" pt_clust_9="29.61069" pt_clust_10="27.08916"></scales>
<clustering>
<clus scale="   27.089">  2 10  1 -1</clus>
<clus scale="   29.611">  1  9  2 -1</clus>
<clus scale="   91.601">  5  6 -1 -1</clus>
<clus scale="   93.619">  7  8 -1 -1</clus>
<clus scale="   96.075">  1  5  2 -1</clus>
<clus scale="   29.611">  1  5  2 -1</clus>
</clustering>
</event>
<event>
10    2  0.1898324E-006  0.1537569E+03  0.7546771E-02  0.1195932E+00
         -2   -1    0    0    0  501 -0.00000000000E+00  0.00000000000E+00  0.13365938895E+03  0.13365938895E+03  0.00000000000E+00 0.  1.
          2   -1    0    0  502    0  0.00000000000E+00 -0.00000000000E+00 -0.75715416492E+03  0.75715416492E+03  0.00000000000E+00 0. -1.
         23    2    1    2    0    0 -0.11404334063E+03  0.10419351463E+03 -0.34198944815E+02  0.18219672290E+03  0.90354335672E+02 0.  0.
         23    2    1    2    0    0  0.34035565566E+02 -0.13526252451E+03 -0.47025827560E+03  0.49876031983E+03  0.90358400869E+02 0.  0.
        -11    1    4    4    0    0 -0.14731090065E+02 -0.84661597293E+02 -0.17121077084E+03  0.19156648747E+03  0.00000000000E+00 0.  1.
         11    1    4    4    0    0  0.48766655631E+02 -0.50600927221E+02 -0.29904750476E+03  0.30719383236E+03  0.00000000000E+00 0. -1.
        -13    1    3    3    0    0 -0.12497564366E+02  0.25038356162E+02 -0.45000913995E+02  0.52992364117E+02  0.00000000000E+00 0. -1.
         13    1    3    3    0    0 -0.10154577627E+03  0.79155158466E+02  0.10801969180E+02  0.12920435878E+03  0.00000000000E+00 0.  1.
         21    1    1    2  502  503 -0.11247483196E+02  0.20089438891E+02 -0.11560886712E+03  0.11787918217E+03  0.00000000000E+00 0. -1.
         21    1    1    2  503  501  0.91255258265E+02  0.10979570994E+02 -0.34286884378E+01  0.91977328971E+02  0.00000000000E+00 0.  1.
<scales pt_clust_5="13000.00000" pt_clust_6="13000.00000" pt_clust_7="13000.00000" pt_clust_8="13000.00000" pt_clust_9="23.02371" pt_clust_10="91.27413"></scales>
<clustering>
<clus scale="   23.024">  2  9  1 -1</clus>
<clus scale="   90.354">  7  8 -1 -1</clus>
<clus scale="   90.358">  5  6 -1 -1</clus>
<clus scale="   91.274">  1 10  2 -1</clus>
<clus scale="  153.754">  1  7  2 -1</clus>
<clus scale="   23.024">  2  5  1 -1</clus>
</clustering>
</event>
<event>
10    2  0.1898324E-006  0.1458357E+03  0.7546771E-02  0.1206181E+00
         -1   -1    0    0    0  501 -0.00000000000E+00  0.00000000000E+00  0.14691333690E+03  0.14691333690E+03  0.00000000000E+00 0.  1.
          1   -1    0    0  502    0  0.00000000000E+00 -0.00000000000E+00 -0.53386202694E+03  0.53386202694E+03  0.00000000000E+00 0. -1.
         23    2    1    2    0    0 -0.81121735403E+02  0.11557666416E+03 -0.71762314180E+02  0.18380735225E+03  0.93255625836E+02 0.  0.
         23    2    1    2    0    0  0.76421972103E+02 -0.94116863578E+02 -0.21115642292E+03  0.25987247605E+03  0.90820521011E+02 0.  0.
        -11    1    3    3    0    0 -0.91903973532E+02  0.65240545043E+02 -0.69223085043E+02  0.13226679315E+03  0.00000000000E+00 0.  1.
         11    1    3    3    0    0  0.10782238130E+02  0.50336119117E+02 -0.25392291371E+01  0.51540559091E+02  0.00000000000E+00 0. -1.
        -13    1    4    4    0    0  0.44978083427E+02 -0.53215877724E+02 -0.19297951022E+03  0.20517321706E+03  0.00000000000E+00 0.  1.
         13    1    4    4    0    0  0.31443888676E+02 -0.40900985855E+02 -0.18176912693E+02  0.54699258989E+02  0.00000000000E+00 0. -1.
         21    1    1    2  502  503 -0.26804277216E+02  0.25319208379E+02 -0.15606375066E+03  0.16036030013E+03  0.00000000000E+00 0. -1.
         21    1    1    2  503  501  0.31504040516E+02 -0.46779008960E+02  0.52033797717E+02  0.76735235407E+02  0.00000000000E+00 0.  1.
<scales pt_clust_5="13000.00000" pt_clust_6="13000.00000" pt_clust_7="13000.00000" pt_clust_8="13000.00000" pt_clust_9="36.87183" pt_clust_10="55.21630"></scales>
<clustering>
<clus scale="   36.872">  2  9  1 -1</clus>
<clus scale="   55.216">  1 10  2 -1</clus>
<clus scale="   90.821">  7  8 -1 -1</clus>
<clus scale="   93.256">  5  6 -1 -1</clus>
<clus scale="  144.291">  2  7  1 -1</clus>
<clus scale="   36.872">  2  5  1 -1</clus>
</clustering>
</event>
<event>
10    2  0.1898324E-006  0.1017105E+03  0.7546771E-02  0.1277485E+00
          1   -1    0    0  502    0  0.00000000000E+00  0.00000000000E+00  0.26945795446E+03  0.26945795446E+03  0.00000000000E+00 0. -1.
         -1   -1    0    0    0  501 -0.00000000000E+00 -0.00000000000E+00 -0.93948284256E+02  0.93948284256E+02  0.00000000000E+00 0.  1.
         23    2    1    2    0    0 -0.10112645456E+02  0.69466310834E+02  0.58939946206E+02  0.13039785938E+03  0.92746161831E+02 0.  0.
         23    2    1    2    0    0  0.16404051634E+01 -0.15652610469E+02  0.81745397055E+02  0.12345525874E+03  0.91165760169E+02 0.  0.
        -11    1    3    3    0    0  0.34265575145E+02  0.46950221137E+00  0.16518939117E+02  0.38042416089E+02  0.00000000000E+00 0. -1.
         11    1    3    3    0    0 -0.44378220601E+02  0.68996808622E+02  0.42421007089E+02  0.92355443295E+02  0.00000000000E+00 0.  1.
        -11    1    4    4    0    0  0.16404108640E+01  0.20947377026E+02 -0.11023391213E+02  0.23727593765E+02  0.00000000000E+00 0.  1.
         11    1    4    4    0    0 -0.57006159192E-05 -0.36599987494E+02  0.92768788268E+02  0.99727664975E+02  0.00000000000E+00 0. -1.
         21    1    1    2  502  503  0.16075455886E+02 -0.27141684367E+02  0.62726486471E+02  0.70211846701E+02  0.00000000000E+00 0.  1.
         21    1    1    2  503  501 -0.76032155930E+01 -0.26672015998E+02 -0.27902159530E+02  0.39341273889E+02  0.00000000000E+00 0. -1.
<scales pt_clust_5="13000.00000" pt_clust_6="13000.00000" pt_clust_7="13000.00000" pt_clust_8="13000.00000" pt_clust_9="32.75227" pt_clust_10="27.73455"></scales>
<clustering>
<clus scale="   27.735">  2 10  1 -1</clus>
<clus scale="   32.752">  1  9  2 -1</clus>
<clus scale="   91.166">  7  8 -1 -1</clus>
<clus scale="   92.746">  5  6 -1 -1</clus>
<clus scale="  100.272">  1  7  2 -1</clus>
<clus scale="   32.752">  1  5  2 -1</clus>
</clustering>
</event>
<event>
10    2  0.1898324E-006  0.1599518E+03  0.7546771E-02  0.1188874E+00
         -1   -1    0    0    0  501 -0.00000000000E+00  0.00000000000E+00  0.27574314110E+03  0.27574314110E+03  0.00000000000E+00 0.  1.
          1   -1    0    0  502    0  0.00000000000E+00 -0.00000000000E+00 -0.43719138457E+03  0.43719138457E+03  0.00000000000E+00 0. -1.
         23    2    1    2    0    0 -0.39252235429E+02 -0.73556000758E+02  0.38445083000E+02  0.12908505184E+03  0.90739754070E+02 0.  0.
         23    2    1    2    0    0  0.10300391804E+02  0.13328238514E+03 -0.32122589060E+03  0.35976177810E+03  0.91499573396E+02 0.  0.
        -11    1    3    3    0    0  0.16925564283E+02 -0.61466080250E+02  0.31780394351E+02  0.71235856229E+02  0.00000000000E+00 0. -1.
         11    1    3    3    0    0 -0.56177799712E+02 -0.12089920508E+02  0.66646886488E+01  0.57849195614E+02  0.00000000000E+00 0.  1.
        -11    1    4    4    0    0  0.24027475996E+02  0.22908147178E+00 -0.84605798373E+02  0.87951766323E+02  0.00000000000E+00 0.  1.
         11    1    4    4    0    0 -0.13727084192E+02  0.13305330367E+03 -0.23662009222E+03  0.27181001178E+03  0.00000000000E+00 0. -1.
         21    1    1    2  502  503  0.37991562305E+02  0.12306900047E+02 -0.34115063374E+02  0.52522910660E+02  0.00000000000E+00 0. -1.
         21    1    1    2  503  501 -0.90397186800E+01 -0.72033284434E+02  0.15544762750E+03  0.17156478507E+03  0.00000000000E+00 0.  1.
<scales pt_clust_5="13000.00000" pt_clust_6="13000.00000" pt_clust_7="13000.00000" pt_clust_8="13000.00000" pt_clust_9="39.93518" pt_clust_10="72.25545"></scales>
<clustering>
<clus scale="   39.935">  2  9  1 -1</clus>
<clus scale="   72.255">  1 10  2 -1</clus>
<clus scale="   90.740">  5  6 -1 -1</clus>
<clus scale="   91.500">  7  8 -1 -1</clus>
<clus scale="  159.518">  1  5  2 -1</clus>
<clus scale="   39.935">  2  5  1 -1</clus>
</clustering>
</event>
<event>
10    2  0.1898324E-006  0.1056332E+03  0.7546771E-02  0.1269374E+00
          1   -1    0    0  502    0  0.00000000000E+00  0.00000000000E+00  0.24847691913E+03  0.24847691913E+03  0.00000000000E+00 0. -1.
         -1   -1    0    0    0  501 -0.00000000000E+00 -0.00000000000E+00 -0.25486156933E+03  0.25486156933E+03  0.00000000000E+00 0.  1.
         23    2    1    2    0    0  0.13361337914E+02 -0.53797454085E+02 -0.12597725466E+03  0.16441808443E+03  0.89946352788E+02 0.  0.
         23    2    1    2    0    0  0.23104037507E+01  0.39169546391E+02 -0.33912619089E+02  0.10279776772E+03  0.88756543332E+02 0.  0.
        -11    1    4    4    0    0  0.20636254565E+02 -0.23024677826E+02 -0.18921563938E+02  0.36249363765E+02  0.00000000000E+00 0.  1.
         11    1    4    4    0    0 -0.18325850814E+02  0.62194224218E+02 -0.14991055151E+02  0.66548403953E+02  0.00000000000E+00 0. -1.
        -13    1    3    3    0    0  0.36349481383E+02 -0.47384380888E+02 -0.12719891223E+03  0.14052091524E+03  0.00000000000E+00 0.  1.
         13    1    3    3    0    0 -0.22988143469E+02 -0.64130731969E+01  0.12216575693E+01  0.23897169187E+02  0.00000000000E+00 0. -1.
         21    1    1    2  502  503  0.32788358708E+01  0.62156531352E+02  0.17105645063E+03  0.18202882865E+03  0.00000000000E+00 0. -1.
         21    1    1    2  503  501 -0.18950577536E+02 -0.47528623659E+02 -0.17551227088E+02  0.54093807669E+02  0.00000000000E+00 0.  1.
<scales pt_clust_5="13000.00000" pt_clust_6="13000.00000" pt_clust_7="13000.00000" pt_clust_8="13000.00000" pt_clust_9="61.03056" pt_clust_10="51.16732"></scales>
<clustering>
<clus scale="   51.167">  2 10  1 -1</clus>
<clus scale="   61.031">  1  9  2 -1</clus>
<clus scale="   88.757">  5  6 -1 -1</clus>
<clus scale="   89.946">  7  8 -1 -1</clus>
<clus scale="  104.622">  1  5  2 -1</clus>
<clus scale="   61.031">  1  5  2 -1</clus>
</clustering>
</event>
<event>
10    2  0.1898324E-006  0.1242775E+03  0.7546771E-02  0.1241832E+00
         -2   -1    0    0    0  501 -0.00000000000E+00  0.00000000000E+00  0.53470357393E+02  0.53470357393E+02  0.00000000000E+00 0.  1.
          2   -1    0    0  502    0  0.00000000000E+00 -0.00000000000E+00 -0.11063691896E+04  0.11063691896E+04  0.00000000000E+00 0. -1.
         23    2    1    2    0    0 -0.37834127043E+02  0.25796525744E+02 -0.13846614001E+03  0.17605811371E+03  0.98624061797E+02 0.  0.
         23    2    1    2    0    0  0.53384953840E+02  0.86033709389E+02 -0.25264408060E+03  0.29490483979E+03  0.11352568265E+03 0.  0.
        -11    1    4    4    0    0 -0.27352838629E+02 -0.30560596114E+01 -0.23744190701E+02  0.36349743788E+02  0.00000000000E+00 0.  1.
         11    1    4    4    0    0  0.80737792469E+02  0.89089769001E+02 -0.22889988990E+03  0.25855509600E+03  0.00000000000E+00 0. -1.
        -13    1    3    3    0    0 -0.34813772936E+02  0.57636997851E+02 -0.55903446583E+02  0.87516956341E+02  0.00000000000E+00 0.  1.
         13    1    3    3    0    0 -0.30203541071E+01 -0.31840472106E+02 -0.82562693429E+02  0.88541157374E+02  0.00000000000E+00 0. -1.
         21    1    1    2  502  503  0.98012010965E+01 -0.89305474984E+02 -0.64464748262E+03  0.65087779825E+03  0.00000000000E+00 0. -1.
         21    1    1    2  503  501 -0.25352027894E+02 -0.22524760150E+02 -0.17141129003E+02  0.37998795266E+02  0.00000000000E+00 0.  1.
<scales pt_clust_5="13000.00000" pt_clust_6="13000.00000" pt_clust_7="13000.00000" pt_clust_8="13000.00000" pt_clust_9="91.28399" pt_clust_10="33.91298"></scales>
<clustering>
<clus scale="   33.913">  1 10  2 -1</clus>
<clus scale="   91.284">  2  9  1 -1</clus>
<clus scale="   98.624">  7  8 -1 -1</clus>
<clus scale="  110.831">  1  7  2 -1</clus>
<clus scale="  113.526">  5  6 -1 -1</clus>
<clus scale="   91.284">  2  5  1 -1</clus>
</clustering>
</event>
<event>
10    2  0.1898324E-006  0.9388490E+02  0.7546771E-02  0.1296212E+00
          1   -1    0    0  502    0  0.00000000000E+00  0.00000000000E+00  0.71048294874E+02  0.71048294874E+02  0.00000000000E+00 0. -1.
         -1   -1    0    0    0  501 -0.00000000000E+00 -0.00000000000E+00 -0.24131806149E+03  0.24131806149E+03  0.00000000000E+00 0.  1.
         23    2    1    2    0    0  0.39308827965E+02 -0.95985177928E+01 -0.87679661665E+02  0.13297187248E+03  0.91413786172E+02 0.  0.
         23    2    1    2    0    0 -0.18493211273E+01  0.24502723981E+01 -0.29529912426E+02  0.91948236144E+02  0.87023207127E+02 0.  0.
        -11    1    4    4    0    0 -0.25440267170E+02  0.34420819147E+02 -0.61127107703E+00  0.42806233620E+02  0.00000000000E+00 0. -1.
         11    1    4    4    0    0  0.23590946043E+02 -0.31970546749E+02 -0.28918641349E+02  0.49142002524E+02  0.00000000000E+00 0.  1.
        -13    1    3    3    0    0  0.18855614206E+02  0.12696513172E+02 -0.98309404070E+02  0.10090329312E+03  0.00000000000E+00 0.  1.
         13    1    3    3    0    0  0.20453213758E+02 -0.22295030965E+02  0.10629742405E+02  0.32068579363E+02  0.00000000000E+00 0. -1.
         21    1    1    2  502  503 -0.25805315919E+02 -0.14623646030E+02 -0.83016456232E+00  0.29672453995E+02  0.00000000000E+00 0. -1.
         21    1    1    2  503  501 -0.11654190918E+02  0.21771891425E+02 -0.52230027959E+02  0.57773793737E+02  0.00000000000E+00 0.  1.
<scales pt_clust_5="13000.00000" pt_clust_6="13000.00000" pt_clust_7="13000.00000" pt_clust_8="13000.00000" pt_clust_9="29.68102" pt_clust_10="24.69485"></scales>
<clustering>
<clus scale="   24.695">  2 10  1 -1</clus>
<clus scale="   29.681">  1  9  2 -1</clus>
<clus scale="   87.023">  5  6 -1 -1</clus>
<clus scale="   89.615">  1  5  2 -1</clus>
<clus scale="   91.414">  7  8 -1 -1</clus>
<clus scale="   29.681">  1  5  2 -1</clus>
</clustering>
</event>
<event>
10    2  0.1898324E-006  0.3253353E+03  0.7546771E-02  0.1084518E+00
         -2   -1    0    0    0  501 -0.00000000000E+00  0.00000000000E+00  0.59781739582E+03  0.59781739582E+03  0.00000000000E+00 0.  1.
          2   -1    0    0  502    0  0.00000000000E+00 -0.00000000000E+00 -0.47982489676E+03  0.47982489676E+03  0.00000000000E+00 0. -1.
         23    2    1    2    0    0  0.10687038494E+03  0.20065462634E+03  0.45556939998E+02  0.24909963721E+03  0.91058422046E+02 0.  0.
         23    2    1    2    0    0  0.48015383930E+02 -0.44347883094E+03  0.95256299198E+02  0.46635061357E+03  0.97109122424E+02 0.  0.
        -11    1    4    4    0    0  0.32033938605E+02 -0.30917188392E+03  0.19764853318E+02  0.31145477434E+03  0.00000000000E+00 0. -1.
         11    1    4    4    0    0  0.15981445325E+02 -0.13430694701E+03  0.75491445879E+02  0.15489583923E+03  0.00000000000E+00 0.  1.
        -13    1    3    3    0    0  0.56991458019E+02  0.17294553111E+03  0.57197171894E+02  0.19086565823E+03  0.00000000000E+00 0.  1.
         13    1    3    3    0    0  0.49878926921E+02  0.27709095233E+02 -0.11640231896E+02  0.58233978982E+02  0.00000000000E+00 0. -1.
         21    1    1    2  502  503 -0.11344275457E+03  0.24385976189E+03 -0.89689329317E+02  0.28351546312E+03  0.00000000000E+00 0.  1.
         21    1    1    2  503  501 -0.41443014300E+02 -0.10355572979E+01  0.66868589183E+02  0.78676578678E+02  0.00000000000E+00 0.  1.
<scales pt_clust_5="13000.00000" pt_clust_6="13000.00000" pt_clust_7="13000.00000" pt_clust_8="13000.00000" pt_clust_9="310.50428" pt_clust_10="41.45595"></scales>
<clustering>
<clus scale="   41.456">  1 10  2 -1</clus>
<clus scale="   91.058">  7  8 -1 -1</clus>
<clus scale="   97.109">  5  6 -1 -1</clus>
<clus scale="  239.809">  1  7  2 -1</clus>
<clus scale="  310.504">  2  9  1 -1</clus>
<clus scale="  310.504">  2  5  1 -1</clus>
</clustering>
</event>
<event>
10    2  0.1898324E-006  0.1863923E+03  0.7546771E-02  0.1161774E+00
         -4   -1    0    0    0  501 -0.00000000000E+00  0.00000000000E+00  0.25691821624E+03  0.25691821624E+03  0.00000000000E+00 0.  1.
          4   -1    0    0  502    0  0.00000000000E+00 -0.00000000000E+00 -0.31760381803E+03  0.31760381803E+03  0.00000000000E+00 0. -1.
         23    2    1    2    0    0  0.26744189809E+02  0.15477794865E+03  0.11272733684E+03  0.21390397454E+03  0.91520450033E+02 0.  0.
         23    2    1    2    0    0 -0.22503504769E+02 -0.16987148623E+03 -0.21130481463E+03  0.28698318586E+03  0.91361341491E+02 0.  0.
        -11    1    3    3    0    0  0.23973530738E+02  0.79997995159E+02  0.62301955864E+01  0.83744998313E+02  0.00000000000E+00 0. -1.
         11    1    3    3    0    0  0.27706590717E+01  0.74779953494E+02  0.10649714126E+03  0.13015897623E+03  0.00000000000E+00 0.  1.
        -13    1    4    4    0    0 -0.52114217187E+02 -0.10542213540E+03 -0.96911460440E+02  0.15238618517E+03  0.00000000000E+00 0. -1.
         13    1    4    4    0    0  0.29610712418E+02 -0.64449350833E+02 -0.11439335419E+03  0.13459700069E+03  0.00000000000E+00 0.  1.
         21    1    1    2  502  503  0.19996783476E+02  0.77515964998E+01 -0.66009148235E+01  0.22439489170E+02  0.00000000000E+00 0. -1.
         21    1    1    2  503  501 -0.24237468517E+02  0.73419410802E+01  0.44492790821E+02  0.51195384694E+02  0.00000000000E+00 0.  1.
<scales pt_clust_5="13000.00000" pt_clust_6="13000.00000" pt_clust_7="13000.00000" pt_clust_8="13000.00000" pt_clust_9="21.44665" pt_clust_10="25.13872"></scales>
<clustering>
<clus scale="   21.447">  2  9  1 -1</clus>
<clus scale="   25.139">  1 10  2 -1</clus>
<clus scale="   91.361">  7  8 -1 -1</clus>
<clus scale="   91.520">  5  6 -1 -1</clus>
<clus scale="  186.314">  2  7  1 -1</clus>
<clus scale="   21.447">  2  5  1 -1</clus>
</clustering>
</event>
<event>
10    2  0.1898324E-006  0.3136937E+03  0.7546771E-02  0.1079076E+00
         -1   -1    0    0    0  501 -0.00000000000E+00  0.00000000000E+00  0.58323497877E+03  0.58323497877E+03  0.00000000000E+00 0.  1.
          1   -1    0    0  502    0  0.00000000000E+00 -0.00000000000E+00 -0.62529284251E+03  0.62529284251E+03  0.00000000000E+00 0. -1.
         23    2    1    2    0    0  0.82608604608E+02  0.28208193896E+03  0.33720098154E+03  0.45953666814E+03  0.10523804240E+03 0.  0.
         23    2    1    2    0    0 -0.42320282843E+02 -0.30243894375E+03 -0.18772260785E+03  0.37016536026E+03  0.92316279187E+02 0.  0.
        -13    1    3    3    0    0  0.31660712596E+02  0.24978480821E+03  0.26748293228E+03  0.36734448437E+03  0.00000000000E+00 0.  1.
         13    1    3    3    0    0  0.50947892012E+02  0.32297130748E+02  0.69718049265E+02  0.92192183770E+02  0.00000000000E+00 0. -1.
        -13    1    4    4    0    0 -0.55635006440E+02 -0.27203130280E+03 -0.19069201398E+03  0.33683783612E+03  0.00000000000E+00 0. -1.
         13    1    4    4    0    0  0.13314723597E+02 -0.30407640949E+02  0.29694061343E+01  0.33327524140E+02  0.00000000000E+00 0.  1.
         21    1    1    2  502  503  0.10956081310E+03  0.10749885904E+03 -0.89391897616E+02  0.17762456987E+03  0.00000000000E+00 0. -1.
         21    1    1    2  503  501 -0.14984913487E+03 -0.87141854254E+02 -0.10214433982E+03  0.20120122301E+03  0.00000000000E+00 0. -1.
<scales pt_clust_5="13000.00000" pt_clust_6="13000.00000" pt_clust_7="13000.00000" pt_clust_8="13000.00000" pt_clust_9="153.49129" pt_clust_10="128.00160"></scales>
<clustering>
<clus scale="   92.316">  7  8 -1 -1</clus>
<clus scale="  105.238">  5  6 -1 -1</clus>
<clus scale="  153.491">  2  9  1 -1</clus>
<clus scale="  128.002">  2 10  1 -1</clus>
<clus scale="  309.598">  2  7  1 -1</clus>
<clus scale="  153.491">  2  5  1 -1</clus>
</clustering>
</event>
<event>
10    2  0.1898324E-006  0.1032663E+03  0.7546771E-02  0.1273748E+00
         -2   -1    0    0    0  501 -0.00000000000E+00  0.00000000000E+00  0.28950045127E+03  0.28950045127E+03  0.00000000000E+00 0.  1.
          2   -1    0    0  502    0  0.00000000000E+00 -0.00000000000E+00 -0.47435872626E+03  0.47435872626E+03  0.00000000000E+00 0. -1.
         23    2    1    2    0    0 -0.21787833410E+02  0.65799589041E+02  0.24110410430E+03  0.26694211966E+03  0.91228342830E+02 0.  0.
         23    2    1    2    0    0  0.51069293858E+02 -0.16799900963E+02 -0.38466885904E+03  0.39906700064E+03  0.91618941467E+02 0.  0.
        -11    1    3    3    0    0 -0.53862577829E+02  0.54276927434E+02  0.13100646443E+03  0.15168999922E+03  0.00000000000E+00 0.  1.
         11    1    3    3    0    0  0.32074744419E+02  0.11522661607E+02  0.11009763987E+03  0.11525212044E+03  0.00000000000E+00 0. -1.
        -13    1    4    4    0    0  0.54061989701E+02 -0.49521580917E+02 -0.27145892300E+03  0.28118505042E+03  0.00000000000E+00 0. -1.
         13    1    4    4    0    0 -0.29926958435E+01  0.32721679955E+02 -0.11320993604E+03  0.11788195021E+03  0.00000000000E+00 0.  1.
         21    1    1    2  502  503 -0.33108296028E+02 -0.26577784547E+02 -0.56363473041E+02  0.70564714912E+02  0.00000000000E+00 0.  1.
         21    1    1    2  503  501  0.38268355801E+01 -0.22421903531E+02  0.15069952784E+02  0.27285342318E+02  0.00000000000E+00 0. -1.
<scales pt_clust_5="13000.00000" pt_clust_6="13000.00000" pt_clust_7="13000.00000" pt_clust_8="13000.00000" pt_clust_9="42.75201" pt_clust_10="22.74613"></scales>
<clustering>
<clus scale="   22.746">  1 10  2 -1</clus>
<clus scale="   42.752">  2  9  1 -1</clus>
<clus scale="   91.228">  5  6 -1 -1</clus>
<clus scale="   91.619">  7  8 -1 -1</clus>
<clus scale="  102.920">  1  5  2 -1</clus>
<clus scale="   42.752">  2  5  1 -1</clus>
</clustering>
</event>
<event>
10    2  0.1898324E-006  0.1215181E+03  0.7546771E-02  0.1240638E+00
         -1   -1    0    0    0  501 -0.00000000000E+00  0.00000000000E+00  0.39831197821E+03  0.39831197821E+03  0.00000000000E+00 0.  1.
          1   -1    0    0  502    0  0.00000000000E+00 -0.00000000000E+00 -0.37209984706E+03  0.37209984706E+03  0.00000000000E+00 0. -1.
         23    2    1    2    0    0  0.43724473673E+02 -0.57101800178E+02  0.28234135747E+03  0.30533798402E+03  0.91335629210E+02 0.  0.
         23    2    1    2    0    0  0.14520802298E+02  0.74108331244E+02 -0.30611285969E+03  0.32827569497E+03  0.91416358388E+02 0.  0.
        -11    1    3    3    0    0 -0.21975278352E+02  0.39301920342E+01  0.29020156001E+02  0.36613231521E+02  0.00000000000E+00 0. -1.
         11    1    3    3    0    0  0.65699752025E+02 -0.61031992212E+02  0.25332120147E+03  0.26872475250E+03  0.00000000000E+00 0.  1.
        -13    1    4    4    0    0  0.36262958927E+02  0.75522444691E+01 -0.46846643101E+02  0.59721407858E+02  0.00000000000E+00 0.  1.
         13    1    4    4    0    0 -0.21742156629E+02  0.66556086775E+02 -0.25926621659E+03  0.26855428711E+03  0.00000000000E+00 0. -1.
         21    1    1    2  502  503 -0.29680852956E+02  0.60544306879E+01 -0.33761886733E+02  0.45359388873E+02  0.00000000000E+00 0.  1.
         21    1    1    2  503  501 -0.28564423015E+02 -0.23060961754E+02  0.83745520109E+02  0.91438757414E+02  0.00000000000E+00 0.  1.
<scales pt_clust_5="13000.00000" pt_clust_6="13000.00000" pt_clust_7="13000.00000" pt_clust_8="13000.00000" pt_clust_9="30.29206" pt_clust_10="36.93563"></scales>
<clustering>
<clus scale="   30.292">  2  9  1 -1</clus>
<clus scale="   36.936">  1 10  2 -1</clus>
<clus scale="   91.336">  5  6 -1 -1</clus>
<clus scale="   91.416">  7  8 -1 -1</clus>
<clus scale="  121.457">  1  5  2 -1</clus>
<clus scale="   30.292">  2  5  1 -1</clus>
</clustering>
</event>
<event>
10    2  0.1898324E-006  0.1129831E+03  0.7546771E-02  0.1256186E+00
         -1   -1    0    0    0  501 -0.00000000000E+00  0.00000000000E+00  0.49636183598E+02  0.49636183598E+02  0.00000000000E+00 0.  1.
          1   -1    0    0  502    0  0.00000000000E+00 -0.00000000000E+00 -0.67636148809E+03  0.67636148809E+03  0.00000000000E+00 0. -1.
         23    2    1    2    0    0 -0.48649356279E+02  0.55411496835E+02 -0.80458292979E+02  0.14076255266E+03  0.88900874431E+02 0.  0.
         23    2    1    2    0    0  0.35041194450E+02 -0.49022845632E+02 -0.27282624207E+03  0.29408335886E+03  0.91759135180E+02 0.  0.
        -13    1    3    3    0    0 -0.22281257448E+02  0.41236949148E+02 -0.96147513980E+02  0.10696394184E+03  0.00000000000E+00 0. -1.
         13    1    3    3    0    0 -0.26368098831E+02  0.14174547687E+02  0.15689221001E+02  0.33798610825E+02  0.00000000000E+00 0.  1.
        -13    1    4    4    0    0  0.43745320115E+02  0.10079629858E+02 -0.74747700020E+02  0.87192147745E+02  0.00000000000E+00 0.  1.
         13    1    4    4    0    0 -0.87041256648E+01 -0.59102475490E+02 -0.19807854205E+03  0.20689121111E+03  0.00000000000E+00 0. -1.
         21    1    1    2  502  503  0.27590245437E+02  0.19811956898E+02 -0.25259354161E+03  0.25486708800E+03  0.00000000000E+00 0. -1.
         21    1    1    2  503  501 -0.13982083608E+02 -0.26200608101E+02 -0.20847227828E+02  0.36284672177E+02  0.00000000000E+00 0.  1.
<scales pt_clust_5="13000.00000" pt_clust_6="13000.00000" pt_clust_7="13000.00000" pt_clust_8="13000.00000" pt_clust_9="33.24614" pt_clust_10="29.69799"></scales>
<clustering>
<clus scale="   29.698">  1 10  2 -1</clus>
<clus scale="   33.246">  2  9  1 -1</clus>
<clus scale="   88.901">  5  6 -1 -1</clus>
<clus scale="   91.759">  7  8 -1 -1</clus>
<clus scale="  110.674">  1  5  2 -1</clus>
<clus scale="   33.246">  2  5  1 -1</clus>
</clustering>
</event>
<event>
10    2  0.1898324E-006  0.1143068E+03  0.7546771E-02  0.1253440E+00
         -3   -1    0    0    0  501 -0.00000000000E+00  0.00000000000E+00  0.85308777197E+02  0.85308777197E+02  0.00000000000E+00 0.  1.
          3   -1    0    0  502    0  0.00000000000E+00 -0.00000000000E+00 -0.38140188565E+03  0.38140188565E+03  0.00000000000E+00 0. -1.
         23    2    1    2    0    0 -0.59447365431E+02  0.40607861018E+02 -0.43394895966E+02  0.12338106456E+03  0.90314907205E+02 0.  0.
         23    2    1    2    0    0  0.71628484208E+02 -0.92811551971E+01 -0.88009151246E+02  0.14645680229E+03  0.92126025868E+02 0.  0.
        -11    1    4    4    0    0  0.47536340705E+02 -0.73165843314E+01  0.68363422266E+01  0.48579539612E+02  0.00000000000E+00 0.  1.
         11    1    4    4    0    0  0.24092143503E+02 -0.19645708657E+01 -0.94845493473E+02  0.97877262678E+02  0.00000000000E+00 0. -1.
        -13    1    3    3    0    0  0.12843901369E+02  0.39517412178E+02 -0.26007447947E+02  0.49020189885E+02  0.00000000000E+00 0.  1.
         13    1    3    3    0    0 -0.72291266800E+02  0.10904488401E+01 -0.17387448019E+02  0.74360874677E+02  0.00000000000E+00 0. -1.
         21    1    1    2  502  503 -0.18825335269E+02 -0.11731403673E+02 -0.17311613819E+03  0.17453141947E+03  0.00000000000E+00 0. -1.
         21    1    1    2  503  501  0.66442164912E+01 -0.19595302148E+02  0.84270769517E+01  0.22341376524E+02  0.00000000000E+00 0. -1.
<scales pt_clust_5="13000.00000" pt_clust_6="13000.00000" pt_clust_7="13000.00000" pt_clust_8="13000.00000" pt_clust_9="22.23025" pt_clust_10="20.69110"></scales>
<clustering>
<clus scale="   20.691">  1 10  2 -1</clus>
<clus scale="   22.230">  2  9  1 -1</clus>
<clus scale="   90.315">  7  8 -1 -1</clus>
<clus scale="   92.126">  5  6 -1 -1</clus>
<clus scale="  112.852">  1  7  2 -1</clus>
<clus scale="   22.230">  2  5  1 -1</clus>
</clustering>
</event>
<event>
10    2  0.1898324E-006  0.2384310E+03  0.7546771E-02  0.1121222E+00
         -1   -1    0    0    0  501 -0.00000000000E+00  0.00000000000E+00  0.37301531505E+03  0.37301531505E+03  0.00000000000E+00 0.  1.
          1   -1    0    0  502    0  0.00000000000E+00 -0.00000000000E+00 -0.49486126759E+03  0.49486126759E+03  0.00000000000E+00 0. -1.
         23    2    1    2    0    0  0.15843334541E+03 -0.15520747679E+03  0.19285021001E+03  0.30383162313E+03  0.77019256844E+02 0.  0.
         23    2    1    2    0    0 -0.16390744805E+03  0.14239878541E+03 -0.34456766999E+03  0.41577483394E+03  0.83658638071E+02 0.  0.
        -11    1    4    4    0    0 -0.18210837664E+02 -0.89526296988E+01 -0.16253105697E+02  0.25998992899E+02  0.00000000000E+00 0.  1.
         11    1    4    4    0    0 -0.14569661038E+03  0.15135141511E+03 -0.32831456429E+03  0.38977584104E+03  0.00000000000E+00 0. -1.
        -11    1    3    3    0    0  0.25062833897E+02 -0.41036025353E+02  0.77335246308E+01  0.48702242483E+02  0.00000000000E+00 0. -1.
         11    1    3    3    0    0  0.13337051152E+03 -0.11417145144E+03  0.18511668538E+03  0.25512938065E+03  0.00000000000E+00 0.  1.
         21    1    1    2  502  503 -0.19831974042E+02 -0.12144485636E+02 -0.53121010282E+02  0.57988252769E+02  0.00000000000E+00 0. -1.
         21    1    1    2  503  501  0.25306076674E+02  0.24953177018E+02  0.82992517717E+02  0.90281872803E+02  0.00000000000E+00 0.  1.
<scales pt_clust_5="13000.00000" pt_clust_6="13000.00000" pt_clust_7="13000.00000" pt_clust_8="13000.00000" pt_clust_9="23.25502" pt_clust_10="35.35166"></scales>
<clustering>
<clus scale="   23.255">  2  9  1 -1</clus>
<clus scale="   35.352">  1 10  2 -1</clus>
<clus scale="   77.019">  7  8 -1 -1</clus>
<clus scale="   83.659">  5  6 -1 -1</clus>
<clus scale="  236.183">  1  7  2 -1</clus>
<clus scale="   23.255">  2  5  1 -1</clus>
</clustering>
</event>
<event>
10    2  0.1898324E-006  0.1038223E+03  0.7546771E-02  0.1272462E+00
         -2   -1    0    0    0  501 -0.00000000000E+00  0.00000000000E+00  0.38449218203E+03  0.38449218203E+03  0.00000000000E+00 0.  1.
          2   -1    0    0  502    0  0.00000000000E+00 -0.00000000000E+00 -0.34951207305E+03  0.34951207305E+03  0.00000000000E+00 0. -1.
         23    2    1    2    0    0 -0.50416434516E+02 -0.65255042834E+02  0.31878644651E+03  0.34154220214E+03  0.90698621148E+02 0.  0.
         23    2    1    2    0    0  0.54520468847E+02 -0.22185364319E+02 -0.25697955508E+03  0.27879679827E+03  0.90688979949E+02 0.  0.
        -11    1    4    4    0    0  0.44608192773E+02  0.30275089919E+02 -0.11201219923E+03  0.12431091951E+03  0.00000000000E+00 0. -1.
         11    1    4    4    0    0  0.99122760737E+01 -0.52460454238E+02 -0.14496735584E+03  0.15448587876E+03  0.00000000000E+00 0.  1.
        -13    1    3    3    0    0 -0.67264226967E+02 -0.30863564087E+02  0.26741554668E+03  0.27746731415E+03  0.00000000000E+00 0.  1.
         13    1    3    3    0    0  0.16847792451E+02 -0.34391478747E+02  0.51370899834E+02  0.64074887987E+02  0.00000000000E+00 0. -1.
         21    1    1    2  502  503 -0.45810706909E+01  0.21264158090E+02 -0.40608617441E+02  0.46067455306E+02  0.00000000000E+00 0. -1.
         21    1    1    2  503  501  0.47703635994E+00  0.66176249063E+02  0.13781834985E+02  0.67597799367E+02  0.00000000000E+00 0. -1.
<scales pt_clust_5="13000.00000" pt_clust_6="13000.00000" pt_clust_7="13000.00000" pt_clust_8="13000.00000" pt_clust_9="21.75203" pt_clust_10="68.04508"></scales>
<clustering>
<clus scale="   21.752">  2  9  1 -1</clus>
<clus scale="   68.045">  1 10  2 -1</clus>
<clus scale="   90.689">  5  6 -1 -1</clus>
<clus scale="   90.699">  7  8 -1 -1</clus>
<clus scale="  103.814">  2  5  1 -1</clus>
<clus scale="   21.752">  2  5  1 -1</clus>
</clustering>
</event>
<event>
10    2  0.1898324E-006  0.1039333E+03  0.7546771E-02  0.1272839E+00
         -1   -1    0    0    0  501 -0.00000000000E+00  0.00000000000E+00  0.28566824178E+03  0.28566824178E+03  0.00000000000E+00 0.  1.
          1   -1    0    0  503    0  0.00000000000E+00 -0.00000000000E+00 -0.46754008008E+03  0.46754008008E+03  0.00000000000E+00 0. -1.
         23    2    1    2    0    0  0.41295107355E+02  0.35592784320E+02  0.25323801704E+03  0.27388159935E+03  0.88935397909E+02 0.  0.
         23    2    1    2    0    0 -0.10697209731E+02 -0.49745622598E+02 -0.16457656152E+03  0.19322534574E+03  0.87530179788E+02 0.  0.
        -11    1    4    4    0    0  0.25503811359E+02 -0.57592716421E+02 -0.88689608923E+02  0.10878056862E+03  0.00000000000E+00 0. -1.
         11    1    4    4    0    0 -0.36201021090E+02  0.78470938234E+01 -0.75886952592E+02  0.84444777122E+02  0.00000000000E+00 0.  1.
        -13    1    3    3    0    0  0.58408230292E+02  0.52834732167E+02  0.17381234861E+03  0.19082390526E+03  0.00000000000E+00 0. -1.
         13    1    3    3    0    0 -0.17113122937E+02 -0.17241947846E+02  0.79425668431E+02  0.83057694092E+02  0.00000000000E+00 0.  1.
         21    1    1    2  502  501 -0.15415504918E+02  0.33435288275E+02 -0.25366077455E+03  0.25631883434E+03  0.00000000000E+00 0. -1.
         21    1    1    2  503  502 -0.15182392706E+02 -0.19282449998E+02 -0.16872519278E+02  0.29782542420E+02  0.00000000000E+00 0. -1.
<scales pt_clust_5="13000.00000" pt_clust_6="13000.00000" pt_clust_7="13000.00000" pt_clust_8="13000.00000" pt_clust_9="32.90217" pt_clust_10="24.54217"></scales>
<clustering>
<clus scale="   24.542">  2 10  1 -1</clus>
<clus scale="   32.902">  2  9  1 -1</clus>
<clus scale="   87.530">  5  6 -1 -1</clus>
<clus scale="   88.935">  7  8 -1 -1</clus>
<clus scale="  102.733">  2  5  1 -1</clus>
<clus scale="   24.542">  2  5  1 -1</clus>
</clustering>
</event>
<event>
10    2  0.1898324E-006  0.9941586E+02  0.7546771E-02  0.1282571E+00
         -2   -1    0    0    0  501 -0.00000000000E+00  0.00000000000E+00  0.31938931579E+03  0.31938931579E+03  0.00000000000E+00 0.  1.
          2   -1    0    0  502    0  0.00000000000E+00 -0.00000000000E+00 -0.11969356779E+03  0.11969356779E+03  0.00000000000E+00 0. -1.
         23    2    1    2    0    0  0.69673343682E+02 -0.56871291232E+02  0.20620524502E+03  0.24266511486E+03  0.90978218866E+02 0.  0.
         23    2    1    2    0    0 -0.10106435485E+02  0.32868439893E+02 -0.32854065823E+02  0.10077675230E+03  0.88848690384E+02 0.  0.
        -11    1    3    3    0    0  0.28177685594E+02  0.22737504687E+02  0.79737417468E+02  0.87573008566E+02  0.00000000000E+00 0. -1.
         11    1    3    3    0    0  0.41495658088E+02 -0.79608795918E+02  0.12646782755E+03  0.15509210629E+03  0.00000000000E+00 0.  1.
        -13    1    4    4    0    0 -0.10578178246E+02  0.55320306653E+02 -0.47740850879E+02  0.73833752619E+02  0.00000000000E+00 0.  1.
         13    1    4    4    0    0  0.47174276164E+00 -0.22451866760E+02  0.14886785055E+02  0.26942999676E+02  0.00000000000E+00 0. -1.
         21    1    1    2  502  503 -0.16645998228E+02 -0.13955550897E+02 -0.13749910022E+02  0.25708105404E+02  0.00000000000E+00 0. -1.
         21    1    1    2  503  501 -0.42920909968E+02  0.37958402235E+02  0.40094478817E+02  0.69932911025E+02  0.00000000000E+00 0. -1.
<scales pt_clust_5="13000.00000" pt_clust_6="13000.00000" pt_clust_7="13000.00000" pt_clust_8="13000.00000" pt_clust_9="21.72203" pt_clust_10="57.86791"></scales>
<clustering>
<clus scale="   21.722">  2  9  1 -1</clus>
<clus scale="   57.868">  1 10  2 -1</clus>
<clus scale="   88.849">  7  8 -1 -1</clus>
<clus scale="   90.978">  5  6 -1 -1</clus>
<clus scale="   97.471">  2  7  1 -1</clus>
<clus scale="   21.722">  2  5  1 -1</clus>
</clustering>
</event>
<event>
10    2  0.1898324E-006  0.1016042E+03  0.7546771E-02  0.1281241E+00
         -3   -1    0    0    0  501 -0.00000000000E+00  0.00000000000E+00  0.14486529460E+03  0.14486529460E+03  0.00000000000E+00 0.  1.
          3   -1    0    0  502    0  0.00000000000E+00 -0.00000000000E+00 -0.30338037782E+03  0.30338037782E+03  0.00000000000E+00 0. -1.
         23    2    1    2    0    0 -0.13270372472E+02 -0.16456759583E+02  0.33555080031E+02  0.10704867163E+03  0.99431116764E+02 0.  0.
         23    2    1    2    0    0 -0.29728304888E+02  0.12946264894E+02 -0.33824357537E+01  0.96924674051E+02  0.91277454401E+02 0.  0.
        -11    1    3    3    0    0 -0.53432931543E+02 -0.27214335551E+02  0.17346693674E+02  0.62422800435E+02  0.00000000000E+00 0.  1.
         11    1    3    3    0    0  0.40162559071E+02  0.10757575968E+02  0.16208386357E+02  0.44625871198E+02  0.00000000000E+00 0. -1.
        -13    1    4    4    0    0 -0.23911889963E+01  0.49738531866E+02 -0.94611670452E+01  0.50686813067E+02  0.00000000000E+00 0. -1.
         13    1    4    4    0    0 -0.27337115892E+02 -0.36792266972E+02  0.60787312915E+01  0.46237860984E+02  0.00000000000E+00 0.  1.
         21    1    1    2  502  503  0.21588273671E+02  0.33284842760E+02 -0.20154357346E+03  0.20541116406E+03  0.00000000000E+00 0. -1.
         21    1    1    2  503  501  0.21410403689E+02 -0.29774348071E+02  0.12855845965E+02  0.38861162678E+02  0.00000000000E+00 0.  1.
<scales pt_clust_5="13000.00000" pt_clust_6="13000.00000" pt_clust_7="13000.00000" pt_clust_8="13000.00000" pt_clust_9="39.46015" pt_clust_10="36.67311"></scales>
<clustering>
<clus scale="   36.673">  1 10  2 -1</clus>
<clus scale="   39.460">  2  9  1 -1</clus>
<clus scale="   91.277">  7  8 -1 -1</clus>
<clus scale="   93.640">  2  7  1 -1</clus>
<clus scale="   99.431">  5  6 -1 -1</clus>
<clus scale="   39.460">  2  5  1 -1</clus>
</clustering>
</event>
<event>
10    2  0.1898324E-006  0.1043206E+03  0.7546771E-02  0.1272019E+00
          1   -1    0    0  502    0  0.00000000000E+00  0.00000000000E+00  0.15366587606E+03  0.15366587606E+03  0.00000000000E+00 0. -1.
         -1   -1    0    0    0  501 -0.00000000000E+00 -0.00000000000E+00 -0.40798626922E+03  0.40798626922E+03  0.00000000000E+00 0.  1.
         23    2    1    2    0    0  0.62954623771E+02 -0.59931598103E+01 -0.27481045082E+03  0.29609302893E+03  0.90283416436E+02 0.  0.
         23    2    1    2    0    0 -0.37197043843E+02 -0.60628789149E+02  0.51141529248E+02  0.12488266140E+03  0.88998612127E+02 0.  0.
        -11    1    3    3    0    0  0.82829830719E+02  0.91722565277E+01 -0.18570196649E+03  0.20354393016E+03  0.00000000000E+00 0.  1.
         11    1    3    3    0    0 -0.19875206947E+02 -0.15165416338E+02 -0.89108484331E+02  0.92549098772E+02  0.00000000000E+00 0. -1.
        -13    1    4    4    0    0 -0.26306539640E+02 -0.84039780631E+02  0.41080254597E+02  0.97171529134E+02  0.00000000000E+00 0.  1.
         13    1    4    4    0    0 -0.10890504202E+02  0.23410991482E+02  0.10061274650E+02  0.27711132268E+02  0.00000000000E+00 0. -1.
         21    1    1    2  502  503  0.22820677236E+02  0.10964391205E+02  0.34078719937E+02  0.42454214591E+02  0.00000000000E+00 0. -1.
         21    1    1    2  503  501 -0.48578257164E+02  0.55657557755E+02 -0.64730191532E+02  0.98222240354E+02  0.00000000000E+00 0. -1.
<scales pt_clust_5="13000.00000" pt_clust_6="13000.00000" pt_clust_7="13000.00000" pt_clust_8="13000.00000" pt_clust_9="25.31800" pt_clust_10="72.98272"></scales>
<clustering>
<clus scale="   25.318">  1  9  2 -1</clus>
<clus scale="   72.983">  2 10  1 -1</clus>
<clus scale="   88.999">  7  8 -1 -1</clus>
<clus scale="   90.283">  5  6 -1 -1</clus>
<clus scale="  103.211">  1  7  2 -1</clus>
<clus scale="   25.318">  1  5  2 -1</clus>
</clustering>
</event>
<event>
10    2  0.1898324E-006  0.1108735E+03  0.7546771E-02  0.1259643E+00
          2   -1    0    0  502    0  0.00000000000E+00  0.00000000000E+00  0.33361408003E+03  0.33361408003E+03  0.00000000000E+00 0. -1.
         -2   -1    0    0    0  501 -0.00000000000E+00 -0.00000000000E+00 -0.19395377478E+03  0.19395377478E+03  0.00000000000E+00 0.  1.
         23    2    1    2    0    0 -0.90963421940E+01 -0.15635575899E+02 -0.47801792190E+02  0.10591912755E+03  0.92771954651E+02 0.  0.
         23    2    1    2    0    0  0.69641236423E+02  0.89402880648E+02 -0.17540918661E+02  0.14639547946E+03  0.91000965385E+02 0.  0.
        -11    1    4    4    0    0  0.29025699943E+02  0.83010975473E+02  0.20592827973E+02  0.90318203426E+02  0.00000000000E+00 0. -1.
         11    1    4    4    0    0  0.40615536480E+02  0.63919051745E+01 -0.38133746634E+02  0.56077276037E+02  0.00000000000E+00 0.  1.
        -13    1    3    3    0    0 -0.38796925081E+02 -0.36958455093E+02 -0.43669541449E+02  0.69124218976E+02  0.00000000000E+00 0. -1.
         13    1    3    3    0    0  0.29700582887E+02  0.21322879194E+02 -0.41322507403E+01  0.36794908576E+02  0.00000000000E+00 0.  1.
         21    1    1    2  502  503 -0.34521244794E+02 -0.41030958507E+02  0.22326944346E+03  0.22961816191E+03  0.00000000000E+00 0. -1.
         21    1    1    2  503  501 -0.26023649435E+02 -0.32736346241E+02 -0.18266427362E+02  0.45635085885E+02  0.00000000000E+00 0.  1.
<scales pt_clust_5="13000.00000" pt_clust_6="13000.00000" pt_clust_7="13000.00000" pt_clust_8="13000.00000" pt_clust_9="54.44054" pt_clust_10="41.81984"></scales>
<clustering>
<clus scale="   41.820">  2 10  1 -1</clus>
<clus scale="   54.441">  1  9  2 -1</clus>
<clus scale="   91.001">  5  6 -1 -1</clus>
<clus scale="   92.772">  7  8 -1 -1</clus>
<clus scale="  109.396">  1  5  2 -1</clus>
<clus scale="   54.441">  1  5  2 -1</clus>
</clustering>
</event>
<event>
10    2  0.1898324E-006  0.1528210E+03  0.7546771E-02  0.1197797E+00
         -1   -1    0    0    0  501 -0.00000000000E+00  0.00000000000E+00  0.31020575892E+03  0.31020575892E+03  0.00000000000E+00 0.  1.
          1   -1    0    0  503    0  0.00000000000E+00 -0.00000000000E+00 -0.26393554231E+03  0.26393554231E+03  0.00000000000E+00 0. -1.
         23    2    1    2    0    0 -0.22525180036E+01  0.12251332295E+03  0.22240738182E+03  0.27030802240E+03  0.92664962896E+02 0.  0.
         23    2    1    2    0    0  0.38744384839E+02 -0.11510121011E+03 -0.62378048225E+02  0.16271752672E+03  0.88524328159E+02 0.  0.
        -13    1    4    4    0    0 -0.20484730100E+02 -0.77327346253E+02 -0.31281591678E+02  0.85893425963E+02  0.00000000000E+00 0.  1.
         13    1    4    4    0    0  0.59229114939E+02 -0.37773863855E+02 -0.31096456547E+02  0.76824100755E+02  0.00000000000E+00 0. -1.
        -13    1    3    3    0    0  0.37649037446E+01  0.79784059210E+02  0.21109255114E+03  0.22569832909E+03  0.00000000000E+00 0.  1.
         13    1    3    3    0    0 -0.60174217483E+01  0.42729263739E+02  0.11314830674E+02  0.44609693312E+02  0.00000000000E+00 0. -1.
         21    1    1    2  502  501 -0.19649820158E+02 -0.27625903604E+02 -0.10929113871E+03  0.11442840112E+03  0.00000000000E+00 0.  1.
         21    1    1    2  503  502 -0.16842046677E+02  0.20213790762E+02 -0.44679782697E+01  0.26687350994E+02  0.00000000000E+00 0. -1.
<scales pt_clust_5="13000.00000" pt_clust_6="13000.00000" pt_clust_7="13000.00000" pt_clust_8="13000.00000" pt_clust_9="32.93662" pt_clust_10="26.31068"></scales>
<clustering>
<clus scale="   26.311">  2 10  1 -1</clus>
<clus scale="   32.937">  2  9  1 -1</clus>
<clus scale="   88.524">  5  6 -1 -1</clus>
<clus scale="   92.665">  7  8 -1 -1</clus>
<clus scale="  150.346">  2  5  1 -1</clus>
<clus scale="   26.311">  2  5  1 -1</clus>
</clustering>
</event>
<event>
10    2  0.1898324E-006  0.1744184E+03  0.7546771E-02  0.1200753E+00
         -1   -1    0    0    0  501 -0.00000000000E+00  0.00000000000E+00  0.76583070175E+03  0.76583070175E+03  0.00000000000E+00 0.  1.
          1   -1    0    0  502    0  0.00000000000E+00 -0.00000000000E+00 -0.15837724127E+03  0.15837724127E+03  0.00000000000E+00 0. -1.
         23    2    1    2    0    0 -0.12958803754E+03  0.14938662675E+03  0.20777845643E+03  0.30118234434E+03  0.91812275098E+02 0.  0.
         23    2    1    2    0    0 -0.10292864825E+02 -0.19898108776E+02  0.72516660955E+02  0.11782266995E+03  0.90120128928E+02 0.  0.
        -13    1    3    3    0    0 -0.76672502079E+02  0.12782195151E+03  0.18969235560E+03  0.24124741166E+03  0.00000000000E+00 0. -1.
         13    1    3    3    0    0 -0.52915535458E+02  0.21564675245E+02  0.18086100832E+02  0.59934932673E+02  0.00000000000E+00 0.  1.
        -13    1    4    4    0    0 -0.34003864760E+02 -0.19029060144E+02 -0.25950173742E+01  0.39052555150E+02  0.00000000000E+00 0. -1.
         13    1    4    4    0    0  0.23710999936E+02 -0.86904863187E+00  0.75111678329E+02  0.78770114796E+02  0.00000000000E+00 0.  1.
         21    1    1    2  502  503  0.42448406048E+02 -0.34151369042E+02 -0.68034633089E+02  0.87160165689E+02  0.00000000000E+00 0. -1.
         21    1    1    2  503  501  0.97432496314E+02 -0.95337148933E+02  0.39519297619E+03  0.41804276304E+03  0.00000000000E+00 0.  1.
<scales pt_clust_5="13000.00000" pt_clust_6="13000.00000" pt_clust_7="13000.00000" pt_clust_8="13000.00000" pt_clust_9="54.48104" pt_clust_10="148.29794"></scales>
<clustering>
<clus scale="   54.481">  2  9  1 -1</clus>
<clus scale="   90.120">  7  8 -1 -1</clus>
<clus scale="   91.812">  5  6 -1 -1</clus>
<clus scale="   94.832">  2  7  1 -1</clus>
<clus scale="  148.298">  1 10  2 -1</clus>
<clus scale="   54.481">  2  5  1 -1</clus>
</clustering>
</event>
<event>
10    2  0.1898324E-006  0.1308533E+03  0.7546771E-02  0.1227247E+00
         -2   -1    0    0    0  501 -0.00000000000E+00  0.00000000000E+00  0.61995061849E+02  0.61995061849E+02  0.00000000000E+00 0.  1.
          2   -1    0    0  502    0  0.00000000000E+00 -0.00000000000E+00 -0.69221023249E+03  0.69221023249E+03  0.00000000000E+00 0. -1.
         23    2    1    2    0    0 -0.95379379649E+02 -0.78785760037E+02 -0.91347765273E+02  0.17840984987E+03  0.90450197692E+02 0.  0.
         23    2    1    2    0    0  0.49134904228E+02  0.22451313779E+02 -0.36935134221E+03  0.38503507097E+03  0.94410230269E+02 0.  0.
        -13    1    3    3    0    0 -0.33778727534E+02 -0.10345628398E+02 -0.77660713239E+02  0.85318349970E+02  0.00000000000E+00 0. -1.
         13    1    3    3    0    0 -0.61600652115E+02 -0.68440131639E+02 -0.13687052033E+02  0.93091499897E+02  0.00000000000E+00 0.  1.
        -13    1    4    4    0    0  0.72517593856E+02  0.16099998467E+01 -0.19853450556E+03  0.21137015734E+03  0.00000000000E+00 0. -1.
         13    1    4    4    0    0 -0.23382689628E+02  0.20841313932E+02 -0.17081683665E+03  0.17366491362E+03  0.00000000000E+00 0.  1.
         21    1    1    2  502  503  0.29757426991E+02  0.32359022554E+02 -0.14849130199E+03  0.15486212438E+03  0.00000000000E+00 0. -1.
         21    1    1    2  503  501  0.16487048430E+02  0.23975423704E+02 -0.21024761167E+02  0.35898249120E+02  0.00000000000E+00 0. -1.
<scales pt_clust_5="13000.00000" pt_clust_6="13000.00000" pt_clust_7="13000.00000" pt_clust_8="13000.00000" pt_clust_9="45.64405" pt_clust_10="29.09714"></scales>
<clustering>
<clus scale="   29.097">  1 10  2 -1</clus>
<clus scale="   45.644">  2  9  1 -1</clus>
<clus scale="   90.450">  5  6 -1 -1</clus>
<clus scale="   94.410">  7  8 -1 -1</clus>
<clus scale="  128.025">  1  5  2 -1</clus>
<clus scale="   45.644">  2  5  1 -1</clus>
</clustering>
</event>
<event>
10    2  0.1898324E-006  0.1037944E+03  0.7546771E-02  0.1272882E+00
          1   -1    0    0  502    0  0.00000000000E+00  0.00000000000E+00  0.12398341696E+03  0.12398341696E+03  0.00000000000E+00 0. -1.
         -1   -1    0    0    0  501 -0.00000000000E+00 -0.00000000000E+00 -0.20496473017E+03  0.20496473017E+03  0.00000000000E+00 0.  1.
         23    2    1    2    0    0 -0.46308060376E+02  0.67082954578E+02 -0.46351516896E+02  0.13094459449E+03  0.91397289113E+02 0.  0.
         23    2    1    2    0    0  0.17158311520E+02 -0.11898576168E+02  0.16027106604E+01  0.92953431191E+02  0.90563722978E+02 0.  0.
        -11    1    4    4    0    0 -0.30719227374E+02  0.14668099863E+02  0.14008544406E+02  0.36811185806E+02  0.00000000000E+00 0.  1.
         11    1    4    4    0    0  0.47877538895E+02 -0.26566676031E+02 -0.12405833745E+02  0.56142245385E+02  0.00000000000E+00 0. -1.
        -13    1    3    3    0    0 -0.31622703142E+02  0.40868760693E+02 -0.73903516458E+02  0.90177495527E+02  0.00000000000E+00 0.  1.
         13    1    3    3    0    0 -0.14685357234E+02  0.26214193884E+02  0.27551999562E+02  0.40767098964E+02  0.00000000000E+00 0. -1.
         21    1    1    2  502  503  0.15543056458E+02 -0.30395979484E+02  0.21792212197E+02  0.40501884960E+02  0.00000000000E+00 0. -1.
         21    1    1    2  503  501  0.13606692398E+02 -0.24788398925E+02 -0.58024719166E+02  0.64548236487E+02  0.00000000000E+00 0.  1.
<scales pt_clust_5="13000.00000" pt_clust_6="13000.00000" pt_clust_7="13000.00000" pt_clust_8="13000.00000" pt_clust_9="35.97983" pt_clust_10="28.27732"></scales>
<clustering>
<clus scale="   28.277">  2 10  1 -1</clus>
<clus scale="   35.980">  1  9  2 -1</clus>
<clus scale="   90.564">  5  6 -1 -1</clus>
<clus scale="   91.397">  7  8 -1 -1</clus>
<clus scale="  103.061">  1  5  2 -1</clus>
<clus scale="   35.980">  1  5  2 -1</clus>
</clustering>
</event>
<event>
10    2  0.1898324E-006  0.1072755E+03  0.7546771E-02  0.1266209E+00
          1   -1    0    0  502    0  0.00000000000E+00  0.00000000000E+00  0.25018617853E+03  0.25018617853E+03  0.00000000000E+00 0. -1.
         -1   -1    0    0    0  501 -0.00000000000E+00 -0.00000000000E+00 -0.16408447792E+03  0.16408447792E+03  0.00000000000E+00 0.  1.
         23    2    1    2    0    0  0.85658431328E+02 -0.29426341470E+02 -0.26436397138E+02  0.13161717492E+03  0.91765577484E+02 0.  0.
         23    2    1    2    0    0 -0.17945108404E+02 -0.50339124231E+02  0.12146333752E+03  0.16203723996E+03  0.92987474572E+02 0.  0.
        -11    1    3    3    0    0  0.77808088357E+02  0.12014616794E+02  0.51867686677E+01  0.78900901133E+02  0.00000000000E+00 0. -1.
         11    1    3    3    0    0  0.78503429714E+01 -0.41440958264E+02 -0.31623165806E+02  0.52716273789E+02  0.00000000000E+00 0.  1.
        -13    1    4    4    0    0 -0.25756679935E+02  0.22283948862E+02  0.42682046604E+02  0.54605293154E+02  0.00000000000E+00 0.  1.
         13    1    4    4    0    0  0.78115715315E+01 -0.72623073093E+02  0.78781290915E+02  0.10743194680E+03  0.00000000000E+00 0. -1.
         21    1    1    2  502  503 -0.29681147264E+02  0.14019429851E+02  0.21012895874E+02  0.38975078053E+02  0.00000000000E+00 0.  1.
         21    1    1    2  503  501 -0.38032175660E+02  0.65746035850E+02 -0.29938135650E+02  0.81641163524E+02  0.00000000000E+00 0.  1.
<scales pt_clust_5="13000.00000" pt_clust_6="13000.00000" pt_clust_7="13000.00000" pt_clust_8="13000.00000" pt_clust_9="32.82552" pt_clust_10="79.15383"></scales>
<clustering>
<clus scale="   32.826">  1  9  2 -1</clus>
<clus scale="   79.154">  2 10  1 -1</clus>
<clus scale="   91.766">  5  6 -1 -1</clus>
<clus scale="   92.987">  7  8 -1 -1</clus>
<clus scale="  106.218">  2  5  1 -1</clus>
<clus scale="   32.826">  1  5  2 -1</clus>
</clustering>
</event>
<event>
10    2  0.1898324E-006  0.2809538E+03  0.7546771E-02  0.1095265E+00
         -1   -1    0    0    0  501 -0.00000000000E+00  0.00000000000E+00  0.12491291015E+04  0.12491291015E+04  0.00000000000E+00 0.  1.
          1   -1    0    0  502    0  0.00000000000E+00 -0.00000000000E+00 -0.82489299302E+02  0.82489299302E+02  0.00000000000E+00 0. -1.
         23    2    1    2    0    0 -0.17862276026E+03  0.23174931210E+03  0.64265385058E+03  0.71178397050E+03  0.89546718841E+02 0.  0.
         23    2    1    2    0    0  0.16865311045E+03 -0.17399562214E+03  0.42813719273E+03  0.50043179105E+03  0.91717901780E+02 0.  0.
        -11    1    4    4    0    0  0.15820269530E+03 -0.14214602811E+03  0.41103800627E+03  0.46280214855E+03  0.00000000000E+00 0. -1.
         11    1    4    4    0    0  0.10450415145E+02 -0.31849594033E+02  0.17099186459E+02  0.37629642495E+02  0.00000000000E+00 0.  1.
        -13    1    3    3    0    0 -0.39982458913E+02  0.11548191282E+03  0.30775823014E+03  0.33113410792E+03  0.00000000000E+00 0.  1.
         13    1    3    3    0    0 -0.13864030135E+03  0.11626739928E+03  0.33489562045E+03  0.38064986258E+03  0.00000000000E+00 0. -1.
         21    1    1    2  502  503 -0.31959397472E+01 -0.30722280917E+02  0.17541645140E+02  0.35521569360E+02  0.00000000000E+00 0.  1.
         21    1    1    2  503  501  0.13165589559E+02 -0.27031409040E+02  0.78307113771E+02  0.83881069916E+02  0.00000000000E+00 0. -1.
<scales pt_clust_5="13000.00000" pt_clust_6="13000.00000" pt_clust_7="13000.00000" pt_clust_8="13000.00000" pt_clust_9="31.46991" pt_clust_10="30.06709"></scales>
<clustering>
<clus scale="   30.067">  1 10  2 -1</clus>
<clus scale="   31.470">  2  9  1 -1</clus>
<clus scale="   89.547">  7  8 -1 -1</clus>
<clus scale="   91.718">  5  6 -1 -1</clus>
<clus scale="  280.253">  1  7  2 -1</clus>
<clus scale="   31.470">  2  5  1 -1</clus>
</clustering>
</event>
<event>
10    2  0.1898324E-006  0.2657580E+03  0.7546771E-02  0.1103802E+00
         -2   -1    0    0    0  501 -0.00000000000E+00  0.00000000000E+00  0.55077412149E+02  0.55077412149E+02  0.00000000000E+00 0.  1.
          2   -1    0    0  502    0  0.00000000000E+00 -0.00000000000E+00 -0.28075508343E+04  0.28075508343E+04  0.00000000000E+00 0. -1.
         23    2    1    2    0    0 -0.14672867808E+03 -0.19971333175E+03 -0.69350260080E+03  0.74205323336E+03  0.91007823676E+02 0.  0.
         23    2    1    2    0    0  0.53025903117E+02  0.23795077469E+03 -0.13009949695E+04  0.13268596095E+04  0.92391531314E+02 0.  0.
        -11    1    3    3    0    0 -0.11679020418E+03 -0.14982212674E+03 -0.39971417584E+03  0.44255852022E+03  0.00000000000E+00 0.  1.
         11    1    3    3    0    0 -0.29938473900E+02 -0.49891205016E+02 -0.29378842495E+03  0.29949471313E+03  0.00000000000E+00 0. -1.
        -11    1    4    4    0    0  0.76841464477E+02  0.19080467066E+03 -0.10982682894E+04  0.11173648770E+04  0.00000000000E+00 0. -1.
         11    1    4    4    0    0 -0.23815561360E+02  0.47146104033E+02 -0.20272668015E+03  0.20949473247E+03  0.00000000000E+00 0.  1.
         21    1    1    2  502  503  0.96498852349E+02  0.78539292848E+00 -0.74682558586E+03  0.75303459486E+03  0.00000000000E+00 0.  1.
         21    1    1    2  503  501 -0.27960773883E+01 -0.39022835870E+02 -0.11150265979E+02  0.40680808737E+02  0.00000000000E+00 0.  1.
<scales pt_clust_5="13000.00000" pt_clust_6="13000.00000" pt_clust_7="13000.00000" pt_clust_8="13000.00000" pt_clust_9="96.30911" pt_clust_10="39.12288"></scales>
<clustering>
<clus scale="   39.123">  1 10  2 -1</clus>
<clus scale="   91.008">  5  6 -1 -1</clus>
<clus scale="   92.392">  7  8 -1 -1</clus>
<clus scale="   96.309">  2  9  1 -1</clus>
<clus scale="  265.280">  1  5  2 -1</clus>
<clus scale="   96.309">  2  5  1 -1</clus>
</clustering>
</event>
<event>
10    2  0.1898324E-006  0.1440244E+03  0.7546771E-02  0.1222216E+00
          1   -1    0    0  502    0  0.00000000000E+00  0.00000000000E+00  0.48514124398E+03  0.48514124398E+03  0.00000000000E+00 0. -1.
         -1   -1    0    0    0  501 -0.00000000000E+00 -0.00000000000E+00 -0.28429036474E+03  0.28429036474E+03  0.00000000000E+00 0.  1.
         23    2    1    2    0    0 -0.37688930660E+01  0.10634955388E+03 -0.19922465875E+03  0.24351666188E+03  0.91024545003E+02 0.  0.
         23    2    1    2    0    0 -0.56134961278E+02  0.40168771609E+02  0.18808693719E+03  0.22006544930E+03  0.91035388411E+02 0.  0.
        -11    1    3    3    0    0 -0.20680007560E+02  0.18239931898E+02 -0.29788271203E+01  0.27735018287E+02  0.00000000000E+00 0. -1.
         11    1    3    3    0    0  0.16911114494E+02  0.88109621986E+02 -0.19624583163E+03  0.21578164359E+03  0.00000000000E+00 0.  1.
        -13    1    4    4    0    0 -0.69086396123E+02  0.20858569577E+01  0.14765848787E+03  0.16303468946E+03  0.00000000000E+00 0.  1.
         13    1    4    4    0    0  0.12951434845E+02  0.38082914652E+02  0.40428449319E+02  0.57030759834E+02  0.00000000000E+00 0. -1.
         21    1    1    2  502  503  0.18436242681E+02 -0.12182039342E+02  0.15098593674E+03  0.15259439774E+03  0.00000000000E+00 0. -1.
         21    1    1    2  503  501  0.41467611663E+02 -0.13433628615E+03  0.61002664057E+02  0.15325509980E+03  0.00000000000E+00 0. -1.
<scales pt_clust_5="13000.00000" pt_clust_6="13000.00000" pt_clust_7="13000.00000" pt_clust_8="13000.00000" pt_clust_9="22.09745" pt_clust_10="111.61348"></scales>
<clustering>
<clus scale="   22.097">  1  9  2 -1</clus>
<clus scale="   91.025">  5  6 -1 -1</clus>
<clus scale="   91.035">  7  8 -1 -1</clus>
<clus scale="  106.625">  1  7  2 -1</clus>
<clus scale="  111.613">  1 10  2 -1</clus>
<clus scale="   22.097">  1  5  2 -1</clus>
</clustering>
</event>
<event>
10    2  0.1898324E-006  0.1148493E+03  0.7546771E-02  0.1252829E+00
          1   -1    0    0  503    0  0.00000000000E+00  0.00000000000E+00  0.22499003782E+03  0.22499003782E+03  0.00000000000E+00 0. -1.
         -1   -1    0    0    0  501 -0.00000000000E+00 -0.00000000000E+00 -0.13496003962E+03  0.13496003962E+03  0.00000000000E+00 0.  1.
         23    2    1    2    0    0  0.30715314625E+02 -0.74291932720E+02 -0.32217237833E+02  0.12687586482E+03  0.92718999349E+02 0.  0.
         23    2    1    2    0    0 -0.21396575456E+02  0.61053165376E+02  0.13718083143E+03  0.17633371109E+03  0.89942730173E+02 0.  0.
        -11    1    4    4    0    0 -0.37834534699E+02  0.70716840211E+01  0.14201376940E+02  0.41026087283E+02  0.00000000000E+00 0.  1.
         11    1    4    4    0    0  0.16437959242E+02  0.53981481355E+02  0.12297945449E+03  0.13530762381E+03  0.00000000000E+00 0. -1.
        -13    1    3    3    0    0  0.12423688084E+02 -0.92705046293E+02 -0.36813536155E+02  0.10051771027E+03  0.00000000000E+00 0.  1.
         13    1    3    3    0    0  0.18291626541E+02  0.18413113573E+02  0.45962983220E+01  0.26358154549E+02  0.00000000000E+00 0. -1.
         21    1    1    2  502  501  0.14637379143E+02  0.19604839309E+02  0.49516930508E+01  0.24962408870E+02  0.00000000000E+00 0. -1.
         21    1    1    2  503  502 -0.23956118311E+02 -0.63660719656E+01 -0.19885288450E+02  0.31778092667E+02  0.00000000000E+00 0.  1.
<scales pt_clust_5="13000.00000" pt_clust_6="13000.00000" pt_clust_7="13000.00000" pt_clust_8="13000.00000" pt_clust_9="24.46636" pt_clust_10="21.05759"></scales>
<clustering>
<clus scale="   24.466">  2  9  1 -1</clus>
<clus scale="   21.058">  2 10  1 -1</clus>
<clus scale="   89.943">  5  6 -1 -1</clus>
<clus scale="   92.719">  7  8 -1 -1</clus>
<clus scale="  112.620">  1  5  2 -1</clus>
<clus scale="  112.620">  1  5  2 -1</clus>
</clustering>
</event>
<event>
10    2  0.1898324E-006  0.9244079E+02  0.7546771E-02  0.1297899E+00
          2   -1    0    0  502    0  0.00000000000E+00  0.00000000000E+00  0.11080014811E+03  0.11080014811E+03  0.00000000000E+00 0. -1.
         -2   -1    0    0    0  501 -0.00000000000E+00 -0.00000000000E+00 -0.15028587282E+03  0.15028587282E+03  0.00000000000E+00 0.  1.
         23    2    1    2    0    0 -0.39027068249E+00 -0.65849172781E+01 -0.32706264605E+02  0.96256265451E+02  0.90288733778E+02 0.  0.
         23    2    1    2    0    0  0.22797443736E+02 -0.24479795596E+02 -0.54724457405E+01  0.97808738415E+02  0.91747576615E+02 0.  0.
        -11    1    4    4    0    0 -0.33801907546E+02 -0.34217437799E+01 -0.14140776641E+02  0.36799984351E+02  0.00000000000E+00 0.  1.
         11    1    4    4    0    0  0.56599351282E+02 -0.21058051816E+02  0.86683309008E+01  0.61008754064E+02  0.00000000000E+00 0. -1.
        -13    1    3    3    0    0 -0.18476027395E+02  0.35853964972E+02 -0.29580152415E+02  0.50018554651E+02  0.00000000000E+00 0. -1.
         13    1    3    3    0    0  0.18085756712E+02 -0.42438882250E+02 -0.31261121904E+01  0.46237710799E+02  0.00000000000E+00 0.  1.
         21    1    1    2  502  503 -0.21359764273E+02 -0.10164361139E+02  0.75650918722E+01  0.24835144095E+02  0.00000000000E+00 0. -1.
         21    1    1    2  503  501 -0.10474087807E+01  0.41229074013E+02 -0.88721062396E+01  0.42185872970E+02  0.00000000000E+00 0. -1.
<scales pt_clust_5="13000.00000" pt_clust_6="13000.00000" pt_clust_7="13000.00000" pt_clust_8="13000.00000" pt_clust_9="23.65489" pt_clust_10="39.73140"></scales>
<clustering>
<clus scale="   23.655">  1  9  2 -1</clus>
<clus scale="   39.731">  1 10  2 -1</clus>
<clus scale="   90.289">  7  8 -1 -1</clus>
<clus scale="   90.993">  2  7  1 -1</clus>
<clus scale="   91.748">  5  6 -1 -1</clus>
<clus scale="   23.655">  1  5  2 -1</clus>
</clustering>
</event>
<event>
10    2  0.1898324E-006  0.1362315E+03  0.7546771E-02  0.1227253E+00
         -1   -1    0    0    0  501 -0.00000000000E+00  0.00000000000E+00  0.16736787032E+03  0.16736787032E+03  0.00000000000E+00 0.  1.
          1   -1    0    0  502    0  0.00000000000E+00 -0.00000000000E+00 -0.26590449498E+03  0.26590449498E+03  0.00000000000E+00 0. -1.
         23    2    1    2    0    0  0.97900771357E+02 -0.89335361843E+02 -0.90580259705E+02  0.19892756908E+03  0.11748202578E+03 0.  0.
         23    2    1    2    0    0 -0.19958592075E+02  0.21732764716E+02 -0.54849372062E+02  0.10950208844E+03  0.90064395282E+02 0.  0.
        -11    1    3    3    0    0  0.81303581914E+02 -0.34411134526E+02  0.39195165392E+01  0.88372853418E+02  0.00000000000E+00 0.  1.
         11    1    3    3    0    0  0.16597189443E+02 -0.54924227317E+02 -0.94499776245E+02  0.11055471566E+03  0.00000000000E+00 0. -1.
        -13    1    4    4    0    0  0.10721055609E+02 -0.31429636175E+02 -0.22571596275E+02  0.40152708773E+02  0.00000000000E+00 0. -1.
         13    1    4    4    0    0 -0.30679647684E+02  0.53162400891E+02 -0.32277775787E+02  0.69349379667E+02  0.00000000000E+00 0.  1.
         21    1    1    2  502  503 -0.25691887656E+02  0.68226061596E+01 -0.79244245129E+01  0.27738376845E+02  0.00000000000E+00 0. -1.
         21    1    1    2  503  501 -0.52250291627E+02  0.60779990968E+02  0.54817431621E+02  0.97104330936E+02  0.00000000000E+00 0.  1.
<scales pt_clust_5="13000.00000" pt_clust_6="13000.00000" pt_clust_7="13000.00000" pt_clust_8="13000.00000" pt_clust_9="26.58234" pt_clust_10="82.03017"></scales>
<clustering>
<clus scale="   26.582">  2  9  1 -1</clus>
<clus scale="   82.030">  1 10  2 -1</clus>
<clus scale="   90.064">  7  8 -1 -1</clus>
<clus scale="  113.440">  2  7  1 -1</clus>
<clus scale="  117.482">  5  6 -1 -1</clus>
<clus scale="   26.582">  2  5  1 -1</clus>
</clustering>
</event>
<event>
10    2  0.1898324E-006  0.1034290E+03  0.7546771E-02  0.1278484E+00
         -1   -1    0    0    0  501 -0.00000000000E+00  0.00000000000E+00  0.44628291128E+02  0.44628291128E+02  0.00000000000E+00 0.  1.
          1   -1    0    0  502    0  0.00000000000E+00 -0.00000000000E+00 -0.64452817245E+03  0.64452817245E+03  0.00000000000E+00 0. -1.
         23    2    1    2    0    0 -0.25257031678E+02  0.87017326993E+01 -0.95107958655E+02  0.12863325608E+03  0.82385392943E+02 0.  0.
         23    2    1    2    0    0  0.48846885597E+02 -0.13416926214E+02 -0.46413226843E+03  0.47614860506E+03  0.93448913122E+02 0.  0.
        -11    1    3    3    0    0 -0.50305599651E+02  0.19326146398E+02 -0.39796757766E+02  0.66992053406E+02  0.00000000000E+00 0.  1.
         11    1    3    3    0    0  0.25048567973E+02 -0.10624413699E+02 -0.55311200888E+02  0.61641202678E+02  0.00000000000E+00 0. -1.
        -11    1    4    4    0    0 -0.23616954173E+02  0.59579650962E+01 -0.54355819272E+02  0.59563520389E+02  0.00000000000E+00 0.  1.
         11    1    4    4    0    0  0.72463839770E+02 -0.19374891310E+02 -0.40977644915E+03  0.41658508467E+03  0.00000000000E+00 0. -1.
         21    1    1    2  502  503 -0.16307608321E+02  0.23479061954E+02 -0.53388336324E+02  0.60560043716E+02  0.00000000000E+00 0.  1.
         21    1    1    2  503  501 -0.72822455984E+01 -0.18763868439E+02  0.12728682078E+02  0.23814558723E+02  0.00000000000E+00 0.  1.
<scales pt_clust_5="13000.00000" pt_clust_6="13000.00000" pt_clust_7="13000.00000" pt_clust_8="13000.00000" pt_clust_9="27.15032" pt_clust_10="20.12744"></scales>
<clustering>
<clus scale="   20.127">  1 10  2 -1</clus>
<clus scale="   27.150">  1  9  2 -1</clus>
<clus scale="   82.385">  5  6 -1 -1</clus>
<clus scale="   93.449">  7  8 -1 -1</clus>
<clus scale="   93.553">  1  5  2 -1</clus>
<clus scale="  103.429">  2  5  1 -1</clus>
</clustering>
</event>
<event>
10    2  0.1898324E-006  0.9475588E+02  0.7546771E-02  0.1296381E+00
          1   -1    0    0  502    0  0.00000000000E+00  0.00000000000E+00  0.97040761539E+02  0.97040761539E+02  0.00000000000E+00 0. -1.
         -1   -1    0    0    0  501 -0.00000000000E+00 -0.00000000000E+00 -0.75994698301E+03  0.75994698301E+03  0.00000000000E+00 0.  1.
         23    2    1    2    0    0 -0.41399957451E+02  0.57298674655E+00 -0.15962575909E+03  0.18554251497E+03  0.85037386525E+02 0.  0.
         23    2    1    2    0    0 -0.60321332639E+02  0.40253535797E+02 -0.11544385728E+03  0.16506292942E+03  0.93056306449E+02 0.  0.
        -13    1    3    3    0    0  0.20071516977E+02  0.21720095870E+02 -0.49990040761E+02  0.58082979724E+02  0.00000000000E+00 0.  1.
         13    1    3    3    0    0 -0.61471474427E+02 -0.21147109123E+02 -0.10963571833E+03  0.12745953525E+03  0.00000000000E+00 0. -1.
        -13    1    4    4    0    0 -0.80989609769E+02  0.32534382309E+02 -0.61469515869E+02  0.10675347444E+03  0.00000000000E+00 0. -1.
         13    1    4    4    0    0  0.20668277130E+02  0.77191534877E+01 -0.53974341409E+02  0.58309454985E+02  0.00000000000E+00 0.  1.
         21    1    1    2  502  503  0.40456615729E+02 -0.33225182671E+02  0.45080169446E+02  0.69085976848E+02  0.00000000000E+00 0. -1.
         21    1    1    2  503  501  0.61264674361E+02 -0.76013398724E+01 -0.43291677455E+03  0.43729632330E+03  0.00000000000E+00 0.  1.
<scales pt_clust_5="13000.00000" pt_clust_6="13000.00000" pt_clust_7="13000.00000" pt_clust_8="13000.00000" pt_clust_9="52.35122" pt_clust_10="64.17721"></scales>
<clustering>
<clus scale="   52.351">  1  9  2 -1</clus>
<clus scale="   64.177">  2 10  1 -1</clus>
<clus scale="   85.037">  5  6 -1 -1</clus>
<clus scale="   86.894">  2  5  1 -1</clus>
<clus scale="   93.056">  7  8 -1 -1</clus>
<clus scale="   52.351">  1  5  2 -1</clus>
</clustering>
</event>
<event>
10    2  0.1898324E-006  0.1172498E+03  0.7546771E-02  0.1247766E+00
          1   -1    0    0  502    0  0.00000000000E+00  0.00000000000E+00  0.16393751414E+03  0.16393751414E+03  0.00000000000E+00 0. -1.
         -1   -1    0    0    0  501 -0.00000000000E+00 -0.00000000000E+00 -0.67172734204E+03  0.67172734204E+03  0.00000000000E+00 0.  1.
         23    2    1    2    0    0  0.52960374784E+02  0.20038690373E+02 -0.47892400417E+03  0.49092855463E+03  0.91849298198E+02 0.  0.
         23    2    1    2    0    0 -0.62832937581E+02 -0.56367771423E+02 -0.10406483083E+03  0.16234944320E+03  0.91665418744E+02 0.  0.
        -11    1    4    4    0    0  0.14214788654E+02  0.14223087804E+02 -0.16203860844E+02  0.25824824286E+02  0.00000000000E+00 0. -1.
         11    1    4    4    0    0 -0.77047726235E+02 -0.70590859227E+02 -0.87860969983E+02  0.13652461892E+03  0.00000000000E+00 0.  1.
        -11    1    3    3    0    0  0.16296105115E+01 -0.33539683514E+02 -0.13856989393E+03  0.14258043871E+03  0.00000000000E+00 0.  1.
         11    1    3    3    0    0  0.51330764273E+02  0.53578373887E+02 -0.34035411024E+03  0.34834811592E+03  0.00000000000E+00 0. -1.
         21    1    1    2  502  503 -0.99305205075E+01  0.32547234590E+02  0.12452976775E+03  0.12909531662E+03  0.00000000000E+00 0. -1.
         21    1    1    2  503  501  0.19803083305E+02  0.37818464596E+01 -0.49330760668E+02  0.53291541722E+02  0.00000000000E+00 0. -1.
<scales pt_clust_5="13000.00000" pt_clust_6="13000.00000" pt_clust_7="13000.00000" pt_clust_8="13000.00000" pt_clust_9="34.02061" pt_clust_10="20.16096"></scales>
<clustering>
<clus scale="   20.161">  2 10  1 -1</clus>
<clus scale="   34.021">  1  9  2 -1</clus>
<clus scale="   91.665">  5  6 -1 -1</clus>
<clus scale="   91.849">  7  8 -1 -1</clus>
<clus scale="  117.106">  1  5  2 -1</clus>
<clus scale="   34.021">  1  5  2 -1</clus>
</clustering>
</event>
<event>
10    2  0.1898324E-006  0.1041503E+03  0.7546771E-02  0.1277380E+00
          1   -1    0    0  502    0  0.00000000000E+00  0.00000000000E+00  0.13735024998E+03  0.13735024998E+03  0.00000000000E+00 0. -1.
         -1   -1    0    0    0  501 -0.00000000000E+00 -0.00000000000E+00 -0.25385632911E+03  0.25385632911E+03  0.00000000000E+00 0.  1.
         23    2    1    2    0    0 -0.31850758677E+02  0.28149750230E+02 -0.16824133805E+03  0.20116455372E+03  0.10176026031E+03 0.  0.
         23    2    1    2    0    0  0.32684735775E+02  0.17037480432E+02  0.51180722798E+02  0.11064479175E+03  0.90907842697E+02 0.  0.
        -11    1    3    3    0    0 -0.75461926425E+00 -0.36019274557E+02 -0.36043399323E+02  0.50961595585E+02  0.00000000000E+00 0. -1.
         11    1    3    3    0    0 -0.31096139413E+02  0.64169024787E+02 -0.13219793873E+03  0.15020295814E+03  0.00000000000E+00 0.  1.
        -13    1    4    4    0    0 -0.29278776590E+02  0.72955634642E+01  0.78717388000E+00  0.30184294717E+02  0.00000000000E+00 0.  1.
         13    1    4    4    0    0  0.61963512365E+02  0.97419169673E+01  0.50393548918E+02  0.80460497036E+02  0.00000000000E+00 0. -1.
         21    1    1    2  502  503 -0.20112738566E+02 -0.30845497874E+02  0.25477283878E+02  0.44777885005E+02  0.00000000000E+00 0.  1.
         21    1    1    2  503  501  0.19278761469E+02 -0.14341732788E+02 -0.24922747754E+02  0.34619348618E+02  0.00000000000E+00 0. -1.
<scales pt_clust_5="13000.00000" pt_clust_6="13000.00000" pt_clust_7="13000.00000" pt_clust_8="13000.00000" pt_clust_9="36.90180" pt_clust_10="24.02823"></scales>
<clustering>
<clus scale="   24.028">  2 10  1 -1</clus>
<clus scale="   36.902">  1  9  2 -1</clus>
<clus scale="   90.908">  7  8 -1 -1</clus>
<clus scale="   93.575">  1  7  2 -1</clus>
<clus scale="  101.760">  5  6 -1 -1</clus>
<clus scale="   36.902">  1  5  2 -1</clus>
</clustering>
</event>
<event>
10    2  0.1898324E-006  0.2881941E+03  0.7546771E-02  0.1091370E+00
          1   -1    0    0  502    0  0.00000000000E+00  0.00000000000E+00  0.77844145652E+03  0.77844145652E+03  0.00000000000E+00 0. -1.
         -1   -1    0    0    0  501 -0.00000000000E+00 -0.00000000000E+00 -0.54270693330E+03  0.54270693330E+03  0.00000000000E+00 0.  1.
         23    2    1    2    0    0 -0.24648698626E+03 -0.55109588047E+00 -0.40159740863E+03  0.48024339766E+03  0.92720570918E+02 0.  0.
         23    2    1    2    0    0  0.29613663899E+03  0.22035206610E+02  0.45234339690E+03  0.54870012646E+03  0.90966041878E+02 0.  0.
        -11    1    3    3    0    0 -0.83325123106E+02 -0.17603459559E+02 -0.69830918311E+02  0.11013316976E+03  0.00000000000E+00 0. -1.
         11    1    3    3    0    0 -0.16316186316E+03  0.17052363679E+02 -0.33176649032E+03  0.37011022790E+03  0.00000000000E+00 0.  1.
        -13    1    4    4    0    0  0.46741910448E+02  0.21294591264E+02  0.33802178278E+02  0.61488641762E+02  0.00000000000E+00 0.  1.
         13    1    4    4    0    0  0.24939472854E+03  0.74061534658E+00  0.41854121862E+03  0.48721148470E+03  0.00000000000E+00 0. -1.
         21    1    1    2  502  503 -0.26638025396E+02  0.24533842077E+02  0.22445674513E+03  0.22735946041E+03  0.00000000000E+00 0.  1.
         21    1    1    2  503  501 -0.23011627333E+02 -0.46017952806E+02 -0.39468210179E+02  0.64845405294E+02  0.00000000000E+00 0.  1.
<scales pt_clust_5="13000.00000" pt_clust_6="13000.00000" pt_clust_7="13000.00000" pt_clust_8="13000.00000" pt_clust_9="36.21455" pt_clust_10="51.22674"></scales>
<clustering>
<clus scale="   36.215">  1  9  2 -1</clus>
<clus scale="   51.227">  2 10  1 -1</clus>
<clus scale="   90.966">  7  8 -1 -1</clus>
<clus scale="   92.721">  5  6 -1 -1</clus>
<clus scale="  287.634">  1  7  2 -1</clus>
<clus scale="   36.215">  1  5  2 -1</clus>
</clustering>
</event>
<event>
10    2  0.1898324E-006  0.2130849E+03  0.7546771E-02  0.1139656E+00
         -2   -1    0    0    0  501 -0.00000000000E+00  0.00000000000E+00  0.94491088159E+02  0.94491088159E+02  0.00000000000E+00 0.  1.
          2   -1    0    0  502    0  0.00000000000E+00 -0.00000000000E+00 -0.11730387554E+04  0.11730387554E+04  0.00000000000E+00 0. -1.
         23    2    1    2    0    0  0.15406967202E+03 -0.67281866382E+02 -0.86757201263E+02  0.21280241615E+03  0.97435840253E+02 0.  0.
         23    2    1    2    0    0 -0.14670758839E+03  0.11843356117E+03 -0.83130349390E+03  0.85732448588E+03  0.91597763208E+02 0.  0.
        -11    1    4    4    0    0 -0.10139930140E+03  0.27950717470E+02 -0.34832587253E+03  0.36385982797E+03  0.00000000000E+00 0. -1.
         11    1    4    4    0    0 -0.45308286992E+02  0.90482843695E+02 -0.48297762136E+03  0.49346465792E+03  0.00000000000E+00 0.  1.
        -13    1    3    3    0    0  0.99493107933E+02 -0.69502952455E+01 -0.87940161885E+01  0.10012252419E+03  0.00000000000E+00 0.  1.
         13    1    3    3    0    0  0.54576564091E+02 -0.60331571137E+02 -0.77963185075E+02  0.11267989195E+03  0.00000000000E+00 0. -1.
         21    1    1    2  502  503 -0.37756147394E+02 -0.42522322668E+02 -0.15530125963E+03  0.16538487184E+03  0.00000000000E+00 0. -1.
         21    1    1    2  503  501  0.30394063763E+02 -0.86293721146E+01 -0.51857124911E+01  0.32018069729E+02  0.00000000000E+00 0.  1.
<scales pt_clust_5="13000.00000" pt_clust_6="13000.00000" pt_clust_7="13000.00000" pt_clust_8="13000.00000" pt_clust_9="56.03968" pt_clust_10="31.59533"></scales>
<clustering>
<clus scale="   31.595">  1 10  2 -1</clus>
<clus scale="   56.040">  2  9  1 -1</clus>
<clus scale="   91.598">  5  6 -1 -1</clus>
<clus scale="   97.436">  7  8 -1 -1</clus>
<clus scale="  210.479">  2  5  1 -1</clus>
<clus scale="   56.040">  2  5  1 -1</clus>
</clustering>
</event>
<event>
10    2  0.1898324E-006  0.1186780E+03  0.7546771E-02  0.1245557E+00
         -2   -1    0    0    0  501 -0.00000000000E+00  0.00000000000E+00  0.10173265493E+03  0.10173265493E+03  0.00000000000E+00 0.  1.
          2   -1    0    0  502    0  0.00000000000E+00 -0.00000000000E+00 -0.40177171704E+03  0.40177171704E+03  0.00000000000E+00 0. -1.
         23    2    1    2    0    0 -0.65607464005E+02  0.27592313340E+02  0.56553183758E+00  0.11616679451E+03  0.91808110921E+02 0.  0.
         23    2    1    2    0    0  0.60878275012E+02 -0.65916593627E+02 -0.10212957374E+03  0.16359110952E+03  0.90996920810E+02 0.  0.
        -11    1    4    4    0    0  0.45977304348E+02 -0.42405990777E+02 -0.11652742295E+03  0.13225286715E+03  0.00000000000E+00 0. -1.
         11    1    4    4    0    0  0.14900970664E+02 -0.23510602850E+02  0.14397849209E+02  0.31338242372E+02  0.00000000000E+00 0.  1.
        -13    1    3    3    0    0 -0.88815717302E+02  0.18903521477E+02 -0.43222784021E+01  0.90907958149E+02  0.00000000000E+00 0.  1.
         13    1    3    3    0    0  0.23208253298E+02  0.86887918635E+01  0.48878102397E+01  0.25258836357E+02  0.00000000000E+00 0. -1.
         21    1    1    2  502  503 -0.32535081211E+02  0.76579607378E+01 -0.15573465445E+03  0.15928106751E+03  0.00000000000E+00 0. -1.
         21    1    1    2  503  501  0.37264270204E+02  0.30666319549E+02 -0.42740365757E+02  0.64465400438E+02  0.00000000000E+00 0. -1.
<scales pt_clust_5="13000.00000" pt_clust_6="13000.00000" pt_clust_7="13000.00000" pt_clust_8="13000.00000" pt_clust_9="33.42418" pt_clust_10="44.20188"></scales>
<clustering>
<clus scale="   33.424">  2  9  1 -1</clus>
<clus scale="   44.202">  2 10  1 -1</clus>
<clus scale="   90.997">  5  6 -1 -1</clus>
<clus scale="   91.808">  7  8 -1 -1</clus>
<clus scale="  118.052">  2  5  1 -1</clus>
<clus scale="   33.424">  2  5  1 -1</clus>
</clustering>
</event>
<event>
10    2  0.1898324E-006  0.1005445E+03  0.7546771E-02  0.1280249E+00
         -2   -1    0    0    0  501 -0.00000000000E+00  0.00000000000E+00  0.46987302447E+02  0.46987302447E+02  0.00000000000E+00 0.  1.
          2   -1    0    0  502    0  0.00000000000E+00 -0.00000000000E+00 -0.49605019170E+03  0.49605019170E+03  0.00000000000E+00 0. -1.
         23    2    1    2    0    0 -0.10002243080E+02  0.39731952970E+02 -0.14719471114E+03  0.17729009985E+03  0.89926767798E+02 0.  0.
         23    2    1    2    0    0  0.26305746944E+02 -0.42514795826E+02 -0.16132470873E+03  0.19026151098E+03  0.87602972131E+02 0.  0.
        -11    1    4    4    0    0 -0.13567944860E+02  0.20061298744E+02 -0.59748735793E+02  0.64470584485E+02  0.00000000000E+00 0. -1.
         11    1    4    4    0    0  0.39873691804E+02 -0.62576094570E+02 -0.10157597294E+03  0.12579092649E+03  0.00000000000E+00 0.  1.
        -13    1    3    3    0    0 -0.38476414100E+02  0.23695910604E+02 -0.13507954686E+03  0.14243740591E+03  0.00000000000E+00 0. -1.
         13    1    3    3    0    0  0.28474171020E+02  0.16036042366E+02 -0.12115164277E+02  0.34852693949E+02  0.00000000000E+00 0.  1.
         21    1    1    2  502  503  0.21961697687E+02  0.14420224590E+02 -0.13199828335E+03  0.13458753973E+03  0.00000000000E+00 0.  1.
         21    1    1    2  503  501 -0.38265201551E+02 -0.11637381733E+02 -0.85451860303E+01  0.40898343580E+02  0.00000000000E+00 0.  1.
<scales pt_clust_5="13000.00000" pt_clust_6="13000.00000" pt_clust_7="13000.00000" pt_clust_8="13000.00000" pt_clust_9="26.27278" pt_clust_10="38.28114"></scales>
<clustering>
<clus scale="   26.273">  2  9  1 -1</clus>
<clus scale="   38.281">  1 10  2 -1</clus>
<clus scale="   87.603">  5  6 -1 -1</clus>
<clus scale="   89.927">  7  8 -1 -1</clus>
<clus scale="   98.472">  2  5  1 -1</clus>
<clus scale="   26.273">  2  5  1 -1</clus>
</clustering>
</event>
<event>
10    2  0.1898324E-006  0.9609826E+02  0.7546771E-02  0.1289466E+00
          2   -1    0    0  502    0  0.00000000000E+00  0.00000000000E+00  0.10210435631E+04  0.10210435631E+04  0.00000000000E+00 0. -1.
         -2   -1    0    0    0  501 -0.00000000000E+00 -0.00000000000E+00 -0.27244254251E+02  0.27244254251E+02  0.00000000000E+00 0.  1.
         23    2    1    2    0    0 -0.40431689543E+02 -0.27357492764E+02  0.15799534609E+03  0.18974612690E+03  0.93047887437E+02 0.  0.
         23    2    1    2    0    0 -0.29108408625E+02 -0.44269975208E+01  0.55972834851E+03  0.56794905567E+03  0.91670103879E+02 0.  0.
        -11    1    3    3    0    0  0.26310932540E+02 -0.23321885630E+02  0.34209769429E+02  0.49055925686E+02  0.00000000000E+00 0. -1.
         11    1    3    3    0    0 -0.66742622084E+02 -0.40356071331E+01  0.12378557666E+03  0.14069020121E+03  0.00000000000E+00 0.  1.
        -11    1    4    4    0    0 -0.62158300747E+02 -0.92787564352E+01  0.37230910437E+03  0.37757624246E+03  0.00000000000E+00 0.  1.
         11    1    4    4    0    0  0.33049892122E+02  0.48517589145E+01  0.18741924414E+03  0.19037281320E+03  0.00000000000E+00 0. -1.
         21    1    1    2  502  503  0.67088967850E+02  0.10779888224E+02  0.23130127340E+03  0.24107553728E+03  0.00000000000E+00 0. -1.
         21    1    1    2  503  501  0.24511303188E+01  0.21004602061E+02  0.44774340845E+02  0.49517097509E+02  0.00000000000E+00 0. -1.
<scales pt_clust_5="13000.00000" pt_clust_6="13000.00000" pt_clust_7="13000.00000" pt_clust_8="13000.00000" pt_clust_9="69.19538" pt_clust_10="21.14714"></scales>
<clustering>
<clus scale="   21.147">  2 10  1 -1</clus>
<clus scale="   69.195">  1  9  2 -1</clus>
<clus scale="   91.670">  7  8 -1 -1</clus>
<clus scale="   93.048">  5  6 -1 -1</clus>
<clus scale="   94.765">  1  7  2 -1</clus>
<clus scale="   69.195">  1  5  2 -1</clus>
</clustering>
</event>
<event>
10    2  0.1898324E-006  0.2806147E+03  0.7546771E-02  0.1095492E+00
         -1   -1    0    0    0  501 -0.00000000000E+00  0.00000000000E+00  0.67202920355E+03  0.67202920355E+03  0.00000000000E+00 0.  1.
          1   -1    0    0  502    0  0.00000000000E+00 -0.00000000000E+00 -0.87043165447E+03  0.87043165447E+03  0.00000000000E+00 0. -1.
         23    2    1    2    0    0  0.20988356565E+03  0.20734289809E+02 -0.19375920099E+03  0.29864705926E+03  0.84654687584E+02 0.  0.
         23    2    1    2    0    0 -0.31772301067E+03  0.24092104799E+02 -0.52205583341E+03  0.61790484531E+03  0.87953190032E+02 0.  0.
        -11    1    4    4    0    0 -0.45198930572E+02 -0.24082196810E+02 -0.11253002475E+03  0.12363616784E+03  0.00000000000E+00 0.  1.
         11    1    4    4    0    0 -0.27252408010E+03  0.48174301608E+02 -0.40952580866E+03  0.49426867747E+03  0.00000000000E+00 0. -1.
        -13    1    3    3    0    0  0.24327324706E+02 -0.24405952043E+02 -0.16975511808E+02  0.38414023789E+02  0.00000000000E+00 0. -1.
         13    1    3    3    0    0  0.18555624095E+03  0.45140241852E+02 -0.17678368918E+03  0.26023303547E+03  0.00000000000E+00 0.  1.
         21    1    1    2  502  503 -0.13946289241E+02 -0.31100894966E+02 -0.41508089372E+02  0.53709274196E+02  0.00000000000E+00 0. -1.
         21    1    1    2  503  501  0.12178573426E+03 -0.13725499642E+02  0.55892067284E+03  0.57219967926E+03  0.00000000000E+00 0.  1.
<scales pt_clust_5="13000.00000" pt_clust_6="13000.00000" pt_clust_7="13000.00000" pt_clust_8="13000.00000" pt_clust_9="34.08467" pt_clust_10="122.47330"></scales>
<clustering>
<clus scale="   34.085">  2  9  1 -1</clus>
<clus scale="   84.655">  7  8 -1 -1</clus>
<clus scale="   87.953">  5  6 -1 -1</clus>
<clus scale="  122.473">  1 10  2 -1</clus>
<clus scale="  279.598">  1  7  2 -1</clus>
<clus scale="   34.085">  2  5  1 -1</clus>
</clustering>
</event>
<event>
10    2  0.1898324E-006  0.1170635E+03  0.7546771E-02  0.1248034E+00
          1   -1    0    0  502    0  0.00000000000E+00  0.00000000000E+00  0.57823055728E+03  0.57823055728E+03  0.00000000000E+00 0. -1.
         -1   -1    0    0    0  501 -0.00000000000E+00 -0.00000000000E+00 -0.71061108105E+02  0.71061108105E+02  0.00000000000E+00 0.  1.
         23    2    1    2    0    0 -0.44672706241E+01  0.53453903862E+02  0.52803147521E+02  0.11940812901E+03  0.92697640422E+02 0.  0.
         23    2    1    2    0    0 -0.41069351603E+02 -0.78668878032E+02  0.18579964248E+03  0.22579406155E+03  0.92660493598E+02 0.  0.
        -11    1    3    3    0    0  0.32336165067E+02 -0.98516444825E+01  0.14699454617E+02  0.36861313545E+02  0.00000000000E+00 0.  1.
         11    1    3    3    0    0 -0.36803435691E+02  0.63305548344E+02  0.38103692904E+02  0.82546815461E+02  0.00000000000E+00 0. -1.
        -13    1    4    4    0    0 -0.34925003572E+02 -0.51908802346E+02  0.18810924219E+03  0.19824067855E+03  0.00000000000E+00 0. -1.
         13    1    4    4    0    0 -0.61443480310E+01 -0.26760075686E+02 -0.23095997171E+01  0.27553382992E+02  0.00000000000E+00 0.  1.
         21    1    1    2  502  503 -0.23002294906E+02  0.17700191395E+02  0.21453949168E+03  0.21649387021E+03  0.00000000000E+00 0. -1.
         21    1    1    2  503  501  0.68538917134E+02  0.75147827747E+01  0.54027167499E+02  0.87595604627E+02  0.00000000000E+00 0.  1.
<scales pt_clust_5="13000.00000" pt_clust_6="13000.00000" pt_clust_7="13000.00000" pt_clust_8="13000.00000" pt_clust_9="29.02417" pt_clust_10="64.98098"></scales>
<clustering>
<clus scale="   29.024">  1  9  2 -1</clus>
<clus scale="   64.981">  2 10  1 -1</clus>
<clus scale="   92.660">  7  8 -1 -1</clus>
<clus scale="   92.698">  5  6 -1 -1</clus>
<clus scale="  117.034">  1  7  2 -1</clus>
<clus scale="   29.024">  1  5  2 -1</clus>
</clustering>
</event>
<event>
10    2  0.1898324E-006  0.1166825E+03  0.7546771E-02  0.1248994E+00
         -2   -1    0    0    0  501 -0.00000000000E+00  0.00000000000E+00  0.19667708599E+03  0.19667708599E+03  0.00000000000E+00 0.  1.
          2   -1    0    0  502    0  0.00000000000E+00 -0.00000000000E+00 -0.51552755029E+03  0.51552755029E+03  0.00000000000E+00 0. -1.
         23    2    1    2    0    0 -0.18345337827E+02  0.79158168164E+02 -0.27917107873E+02  0.12602711890E+03  0.92200340454E+02 0.  0.
         23    2    1    2    0    0 -0.51361172576E+02 -0.55247328155E+02 -0.37357354719E+03  0.39188542871E+03  0.91251064431E+02 0.  0.
        -11    1    3    3    0    0 -0.35334268348E+02  0.37387315187E+02 -0.53468932422E+02  0.74197362426E+02  0.00000000000E+00 0. -1.
         11    1    3    3    0    0  0.16988930521E+02  0.41770852977E+02  0.25551824549E+02  0.51829756477E+02  0.00000000000E+00 0.  1.
        -13    1    4    4    0    0  0.20550308813E+02 -0.36763900440E+02 -0.10221574442E+03  0.11055296457E+03  0.00000000000E+00 0.  1.
         13    1    4    4    0    0 -0.71911481389E+02 -0.18483427716E+02 -0.27135780278E+03  0.28133246415E+03  0.00000000000E+00 0. -1.
         21    1    1    2  502  503  0.49835185897E+02  0.91001755605E+01 -0.40757061290E+02  0.65019204806E+02  0.00000000000E+00 0. -1.
         21    1    1    2  503  501  0.19871324505E+02 -0.33011015569E+02  0.12339725205E+03  0.12927288386E+03  0.00000000000E+00 0.  1.
<scales pt_clust_5="13000.00000" pt_clust_6="13000.00000" pt_clust_7="13000.00000" pt_clust_8="13000.00000" pt_clust_9="53.37103" pt_clust_10="38.53046"></scales>
<clustering>
<clus scale="   38.530">  1 10  2 -1</clus>
<clus scale="   53.371">  1  9  2 -1</clus>
<clus scale="   91.251">  7  8 -1 -1</clus>
<clus scale="   92.200">  5  6 -1 -1</clus>
<clus scale="  115.934">  2  7  1 -1</clus>
<clus scale="  115.934">  2  5  1 -1</clus>
</clustering>
</event>
<event>
10    2  0.1898324E-006  0.1915138E+03  0.7546771E-02  0.1157104E+00
          1   -1    0    0  503    0  0.00000000000E+00  0.00000000000E+00  0.18718779774E+03  0.18718779774E+03  0.00000000000E+00 0. -1.
         -1   -1    0    0    0  501 -0.00000000000E+00 -0.00000000000E+00 -0.78805669929E+03  0.78805669929E+03  0.00000000000E+00 0.  1.
         23    2    1    2    0    0 -0.17511418143E+03  0.30618080903E+02 -0.69069305737E+03  0.71903185429E+03  0.91364460034E+02 0.  0.
         23    2    1    2    0    0  0.83184948311E+02 -0.49979914871E+02  0.77551540483E+02  0.15421080896E+03  0.91372887948E+02 0.  0.
        -13    1    4    4    0    0  0.57000927132E+02 -0.50396273978E+02  0.95766527021E+02  0.12231156046E+03  0.00000000000E+00 0. -1.
         13    1    4    4    0    0  0.26184021179E+02  0.41635910764E+00 -0.18214986538E+02  0.31899248496E+02  0.00000000000E+00 0.  1.
        -13    1    3    3    0    0 -0.12169867301E+03  0.59652087135E+02 -0.53471781153E+03  0.55162675468E+03  0.00000000000E+00 0.  1.
         13    1    3    3    0    0 -0.53415508426E+02 -0.29034006232E+02 -0.15597524585E+03  0.16740509961E+03  0.00000000000E+00 0. -1.
         21    1    1    2  502  501  0.22782207184E+02 -0.11501217449E+02  0.39298419437E+01  0.25821514764E+02  0.00000000000E+00 0. -1.
         21    1    1    2  503  502  0.69147025937E+02  0.30863051417E+02  0.83427734001E+01  0.76180319025E+02  0.00000000000E+00 0. -1.
<scales pt_clust_5="13000.00000" pt_clust_6="13000.00000" pt_clust_7="13000.00000" pt_clust_8="13000.00000" pt_clust_9="21.93728" pt_clust_10="101.26084"></scales>
<clustering>
<clus scale="   21.937">  9 10 -1 -1</clus>
<clus scale="   91.364">  7  8 -1 -1</clus>
<clus scale="   91.373">  5  6 -1 -1</clus>
<clus scale="  101.261">  1  9  2 -1</clus>
<clus scale="  191.510">  2  7  1 -1</clus>
<clus scale="  101.261">  1  5  2 -1</clus>
</clustering>
</event>
<event>
10    2  0.1898324E-006  0.1467203E+03  0.7546771E-02  0.1225651E+00
          2   -1    0    0  502    0  0.00000000000E+00  0.00000000000E+00  0.42709352520E+03  0.42709352520E+03  0.00000000000E+00 0. -1.
         -2   -1    0    0    0  501 -0.00000000000E+00 -0.00000000000E+00 -0.19968044801E+03  0.19968044801E+03  0.00000000000E+00 0.  1.
         23    2    1    2    0    0  0.12507259789E+03  0.50431027156E+01 -0.10072310664E+03  0.18413859288E+03  0.89962711986E+02 0.  0.
         23    2    1    2    0    0 -0.56075746028E+01  0.37074020118E+02  0.97137817443E+02  0.13844256647E+03  0.91239578980E+02 0.  0.
        -11    1    4    4    0    0  0.38708787393E+02  0.34632638554E+02  0.37321792646E+02  0.63958627886E+02  0.00000000000E+00 0. -1.
         11    1    4    4    0    0 -0.44316361996E+02  0.24413815645E+01  0.59816024797E+02  0.74483938584E+02  0.00000000000E+00 0.  1.
        -13    1    3    3    0    0  0.97812358207E+01  0.33644430071E+02 -0.18038413924E+02  0.39408179682E+02  0.00000000000E+00 0. -1.
         13    1    3    3    0    0  0.11529136207E+03 -0.28601327355E+02 -0.82684692712E+02  0.14473041319E+03  0.00000000000E+00 0.  1.
         21    1    1    2  502  503 -0.19830998242E+02 -0.42385236595E+02  0.19130107602E+03  0.19694130714E+03  0.00000000000E+00 0.  1.
         21    1    1    2  503  501 -0.99634025046E+02  0.26811376060E+00  0.39697290369E+02  0.10725150672E+03  0.00000000000E+00 0. -1.
<scales pt_clust_5="13000.00000" pt_clust_6="13000.00000" pt_clust_7="13000.00000" pt_clust_8="13000.00000" pt_clust_9="46.79505" pt_clust_10="115.90323"></scales>
<clustering>
<clus scale="   46.795">  1  9  2 -1</clus>
<clus scale="   89.963">  7  8 -1 -1</clus>
<clus scale="   91.240">  5  6 -1 -1</clus>
<clus scale="   93.882">  1  5  2 -1</clus>
<clus scale="  115.903">  1 10  2 -1</clus>
<clus scale="   46.795">  1  5  2 -1</clus>
</clustering>
</event>
<event>
10    2  0.1898324E-006  0.3828543E+03  0.7546771E-02  0.1049886E+00
          1   -1    0    0  502    0  0.00000000000E+00  0.00000000000E+00  0.98442295267E+03  0.98442295267E+03  0.00000000000E+00 0. -1.
         -1   -1    0    0    0  501 -0.00000000000E+00 -0.00000000000E+00 -0.45442764680E+03  0.45442764680E+03  0.00000000000E+00 0.  1.
         23    2    1    2    0    0 -0.44346908247E+03 -0.14010706928E+03 -0.14197567468E+03  0.49478759688E+03  0.91448651467E+02 0.  0.
         23    2    1    2    0    0  0.32651910128E+03  0.14888535893E+03  0.70842655998E+03  0.79937314677E+03  0.91365547612E+02 0.  0.
        -11    1    4    4    0    0  0.23610628874E+03  0.12168968007E+03  0.43053122901E+03  0.50587715601E+03  0.00000000000E+00 0.  1.
         11    1    4    4    0    0  0.90412812547E+02  0.27195678859E+02  0.27789533097E+03  0.29349599076E+03  0.00000000000E+00 0. -1.
        -13    1    3    3    0    0 -0.33088843679E+03 -0.68749491575E+02 -0.12540145315E+03  0.36047076808E+03  0.00000000000E+00 0.  1.
         13    1    3    3    0    0 -0.11258064569E+03 -0.71357577702E+02 -0.16574221529E+02  0.13431682880E+03  0.00000000000E+00 0. -1.
         21    1    1    2  502  503  0.93287895866E+02  0.61575586448E+01  0.61769153569E+01  0.93694724114E+02  0.00000000000E+00 0.  1.
         21    1    1    2  503  501  0.23662085324E+02 -0.14935848296E+02 -0.42632494782E+02  0.50995131705E+02  0.00000000000E+00 0.  1.
<scales pt_clust_5="13000.00000" pt_clust_6="13000.00000" pt_clust_7="13000.00000" pt_clust_8="13000.00000" pt_clust_9="95.93627" pt_clust_10="27.98167"></scales>
<clustering>
<clus scale="   27.982">  2 10  1 -1</clus>
<clus scale="   91.366">  5  6 -1 -1</clus>
<clus scale="   91.449">  7  8 -1 -1</clus>
<clus scale="   95.936">  2  9  1 -1</clus>
<clus scale="  382.834">  1  5  2 -1</clus>
<clus scale="  382.834">  1  5  2 -1</clus>
</clustering>
</event>
<event>
10    2  0.1898324E-006  0.1519330E+03  0.7546771E-02  0.1198146E+00
         -2   -1    0    0    0  501 -0.00000000000E+00  0.00000000000E+00  0.40677816105E+02  0.40677816105E+02  0.00000000000E+00 0.  1.
          2   -1    0    0  502    0  0.00000000000E+00 -0.00000000000E+00 -0.12819097487E+04  0.12819097487E+04  0.00000000000E+00 0. -1.
         23    2    1    2    0    0 -0.26769282895E+02 -0.13427695158E+03 -0.51404010233E+03  0.53969203209E+03  0.91013012642E+02 0.  0.
         23    2    1    2    0    0  0.10446556135E+03  0.70772073244E+02 -0.49340095935E+03  0.51737589470E+03  0.91167811552E+02 0.  0.
        -11    1    4    4    0    0  0.60773368873E+01  0.24036186374E+02 -0.20731364619E+02  0.32318133579E+02  0.00000000000E+00 0.  1.
         11    1    4    4    0    0  0.98388224458E+02  0.46735886870E+02 -0.47266959473E+03  0.48505776112E+03  0.00000000000E+00 0. -1.
        -13    1    3    3    0    0 -0.40574705158E+02 -0.41908118645E+02 -0.10489902076E+03  0.12002667063E+03  0.00000000000E+00 0.  1.
         13    1    3    3    0    0  0.13805422262E+02 -0.92368832936E+02 -0.40914108157E+03  0.41966536146E+03  0.00000000000E+00 0. -1.
         21    1    1    2  502  503 -0.85416460882E+02  0.42409824969E+02 -0.21833264129E+03  0.23825135319E+03  0.00000000000E+00 0. -1.
         21    1    1    2  503  501  0.77201824312E+01  0.21095053368E+02 -0.15458229583E+02  0.27268284787E+02  0.00000000000E+00 0. -1.
<scales pt_clust_5="13000.00000" pt_clust_6="13000.00000" pt_clust_7="13000.00000" pt_clust_8="13000.00000" pt_clust_9="96.28443" pt_clust_10="22.46336"></scales>
<clustering>
<clus scale="   22.463">  1 10  2 -1</clus>
<clus scale="   91.013">  7  8 -1 -1</clus>
<clus scale="   91.168">  5  6 -1 -1</clus>
<clus scale="   96.284">  1  9  2 -1</clus>
<clus scale="  151.840">  1  7  2 -1</clus>
<clus scale="  151.933">  2  5  1 -1</clus>
</clustering>
</event>
<event>
10    2  0.1898324E-006  0.9621138E+02  0.7546771E-02  0.1289388E+00
         -2   -1    0    0    0  501 -0.00000000000E+00  0.00000000000E+00  0.68435766182E+02  0.68435766182E+02  0.00000000000E+00 0.  1.
          2   -1    0    0  502    0  0.00000000000E+00 -0.00000000000E+00 -0.49363502629E+03  0.49363502629E+03  0.00000000000E+00 0. -1.
         23    2    1    2    0    0  0.34772434867E+02  0.17913033893E+02 -0.66957338293E+02  0.11830607708E+03  0.89347880290E+02 0.  0.
         23    2    1    2    0    0  0.28249466572E+02 -0.44484365769E+02 -0.16996542869E+03  0.19990331166E+03  0.91083455702E+02 0.  0.
        -13    1    3    3    0    0  0.38298362643E+02  0.51202475690E+02 -0.41158405246E+02  0.76042569791E+02  0.00000000000E+00 0.  1.
         13    1    3    3    0    0 -0.35259277755E+01 -0.33289441797E+02 -0.25798933047E+02  0.42263507287E+02  0.00000000000E+00 0. -1.
        -13    1    4    4    0    0 -0.14827532152E+02 -0.20574577636E+02 -0.26662375591E+01  0.25500544648E+02  0.00000000000E+00 0.  1.
         13    1    4    4    0    0  0.43076998724E+02 -0.23909788133E+02 -0.16729919113E+03  0.17440276701E+03  0.00000000000E+00 0. -1.
         21    1    1    2  502  503 -0.41677530335E+02  0.15359769485E+02 -0.20801366911E+03  0.21270313958E+03  0.00000000000E+00 0.  1.
         21    1    1    2  503  501 -0.21344371104E+02  0.11211562391E+02  0.19737175985E+02  0.31158264151E+02  0.00000000000E+00 0. -1.
<scales pt_clust_5="13000.00000" pt_clust_6="13000.00000" pt_clust_7="13000.00000" pt_clust_8="13000.00000" pt_clust_9="45.72195" pt_clust_10="24.10978"></scales>
<clustering>
<clus scale="   24.110">  1 10  2 -1</clus>
<clus scale="   45.722">  2  9  1 -1</clus>
<clus scale="   89.348">  5  6 -1 -1</clus>
<clus scale="   91.083">  7  8 -1 -1</clus>
<clus scale="   94.570">  1  5  2 -1</clus>
<clus scale="   45.722">  2  5  1 -1</clus>
</clustering>
</event>
<event>
10    2  0.1898324E-006  0.2753105E+03  0.7546771E-02  0.1098290E+00
         -2   -1    0    0    0  501 -0.00000000000E+00  0.00000000000E+00  0.18020335907E+03  0.18020335907E+03  0.00000000000E+00 0.  1.
          2   -1    0    0  502    0  0.00000000000E+00 -0.00000000000E+00 -0.96477077318E+03  0.96477077318E+03  0.00000000000E+00 0. -1.
         23    2    1    2    0    0  0.18445217897E+03  0.18584249876E+03 -0.71241076922E+02  0.28618011057E+03  0.90905027199E+02 0.  0.
         23    2    1    2    0    0 -0.19022161098E+03 -0.22132152175E+03 -0.34879272291E+03  0.46382558521E+03  0.91161026005E+02 0.  0.
        -11    1    3    3    0    0  0.13495999538E+03  0.13897829621E+03 -0.90883273899E+01  0.19393752826E+03  0.00000000000E+00 0.  1.
         11    1    3    3    0    0  0.49492183593E+02  0.46864202551E+02 -0.62152749532E+02  0.92242582314E+02  0.00000000000E+00 0. -1.
        -13    1    4    4    0    0 -0.57591859791E+01 -0.41887562433E+02 -0.21361684723E+02  0.47371485980E+02  0.00000000000E+00 0.  1.
         13    1    4    4    0    0 -0.18446242500E+03 -0.17943395932E+03 -0.32743103819E+03  0.41645409923E+03  0.00000000000E+00 0. -1.
         21    1    1    2  502  503  0.41291204681E+02  0.42459796939E+02 -0.35155802675E+03  0.35651205325E+03  0.00000000000E+00 0.  1.
         21    1    1    2  503  501 -0.35521772673E+02 -0.69807739496E+01 -0.12975587530E+02  0.38456383222E+02  0.00000000000E+00 0. -1.
<scales pt_clust_5="13000.00000" pt_clust_6="13000.00000" pt_clust_7="13000.00000" pt_clust_8="13000.00000" pt_clust_9="58.78712" pt_clust_10="36.20121"></scales>
<clustering>
<clus scale="   36.201">  1 10  2 -1</clus>
<clus scale="   58.787">  2  9  1 -1</clus>
<clus scale="   90.905">  5  6 -1 -1</clus>
<clus scale="   91.161">  7  8 -1 -1</clus>
<clus scale="  275.226">  1  5  2 -1</clus>
<clus scale="   58.787">  2  5  1 -1</clus>
</clustering>
</event>
<event>
10    2  0.1898324E-006  0.1329969E+03  0.7546771E-02  0.1224617E+00
          2   -1    0    0  502    0  0.00000000000E+00  0.00000000000E+00  0.55662196712E+03  0.55662196712E+03  0.00000000000E+00 0. -1.
         -2   -1    0    0    0  501 -0.00000000000E+00 -0.00000000000E+00 -0.19073726178E+03  0.19073726178E+03  0.00000000000E+00 0.  1.
         23    2    1    2    0    0 -0.10388106352E+02 -0.11385993311E+03 -0.91361441458E+02  0.17146123077E+03  0.89331089504E+02 0.  0.
         23    2    1    2    0    0 -0.32659714176E+01  0.63790572306E+02  0.39321721374E+03  0.40961132257E+03  0.95298240888E+02 0.  0.
        -11    1    3    3    0    0 -0.41862471670E+02 -0.73782090631E+02 -0.85030217233E+02  0.12010995494E+03  0.00000000000E+00 0.  1.
         11    1    3    3    0    0  0.31474365318E+02 -0.40077842478E+02 -0.63312242250E+01  0.51351275837E+02  0.00000000000E+00 0. -1.
        -13    1    4    4    0    0  0.32364157202E+02 -0.55967548330E+01  0.17038311437E+03  0.17351993545E+03  0.00000000000E+00 0.  1.
         13    1    4    4    0    0 -0.35630128620E+02  0.69387327139E+02  0.22283409937E+03  0.23609138712E+03  0.00000000000E+00 0. -1.
         21    1    1    2  502  503  0.37149384289E+01  0.29959453486E+02  0.11057245129E+03  0.11461952977E+03  0.00000000000E+00 0. -1.
         21    1    1    2  503  501  0.99391393412E+01  0.20109907317E+02 -0.46543518238E+02  0.51667145781E+02  0.00000000000E+00 0.  1.
<scales pt_clust_5="13000.00000" pt_clust_6="13000.00000" pt_clust_7="13000.00000" pt_clust_8="13000.00000" pt_clust_9="30.49169" pt_clust_10="22.43201"></scales>
<clustering>
<clus scale="   22.432">  2 10  1 -1</clus>
<clus scale="   30.492">  1  9  2 -1</clus>
<clus scale="   89.331">  5  6 -1 -1</clus>
<clus scale="   95.298">  7  8 -1 -1</clus>
<clus scale="  128.788">  2  5  1 -1</clus>
<clus scale="   30.492">  1  5  2 -1</clus>
</clustering>
</event>
<event>
10    2  0.1898324E-006  0.1637357E+03  0.7546771E-02  0.1200157E+00
         -1   -1    0    0    0  501 -0.00000000000E+00  0.00000000000E+00  0.11574799362E+04  0.11574799362E+04  0.00000000000E+00 0.  1.
          1   -1    0    0  502    0  0.00000000000E+00 -0.00000000000E+00 -0.24930368527E+03  0.24930368527E+03  0.00000000000E+00 0. -1.
         23    2    1    2    0    0 -0.82024831558E+02 -0.10099484988E+03  0.89397680024E+03  0.90804623014E+03  0.91789999481E+02 0.  0.
         23    2    1    2    0    0 -0.23941338152E+02 -0.65911534545E+02  0.72617453335E+02  0.13647830070E+03  0.91845054172E+02 0.  0.
        -13    1    4    4    0    0  0.18159459007E+02 -0.15462819454E+02 -0.14077967392E+02  0.27695737990E+02  0.00000000000E+00 0. -1.
         13    1    4    4    0    0 -0.42100797159E+02 -0.50448715091E+02  0.86695420727E+02  0.10878256271E+03  0.00000000000E+00 0.  1.
        -13    1    3    3    0    0 -0.10240031074E+03 -0.88056264362E+02  0.75130009117E+03  0.76334235853E+03  0.00000000000E+00 0.  1.
         13    1    3    3    0    0  0.20375479184E+02 -0.12938585519E+02  0.14267670907E+03  0.14470387161E+03  0.00000000000E+00 0. -1.
         21    1    1    2  502  503  0.88612982383E+02  0.18283886560E+03 -0.15960122436E+03  0.25836962329E+03  0.00000000000E+00 0. -1.
         21    1    1    2  503  501  0.17353187326E+02 -0.15932481176E+02  0.10118322171E+03  0.10388946733E+03  0.00000000000E+00 0. -1.
<scales pt_clust_5="13000.00000" pt_clust_6="13000.00000" pt_clust_7="13000.00000" pt_clust_8="13000.00000" pt_clust_9="135.58754" pt_clust_10="23.55795"></scales>
<clustering>
<clus scale="   23.558">  1 10  2 -1</clus>
<clus scale="   91.790">  7  8 -1 -1</clus>
<clus scale="   91.845">  5  6 -1 -1</clus>
<clus scale="  116.122">  2  5  1 -1</clus>
<clus scale="  135.588">  2  9  1 -1</clus>
<clus scale="  116.122">  2  5  1 -1</clus>
</clustering>
</event>
<event>
10    2  0.1898324E-006  0.1628659E+03  0.7546771E-02  0.1185591E+00
         -1   -1    0    0    0  501 -0.00000000000E+00  0.00000000000E+00  0.19673088931E+03  0.19673088931E+03  0.00000000000E+00 0.  1.
          1   -1    0    0  502    0  0.00000000000E+00 -0.00000000000E+00 -0.98867240730E+03  0.98867240730E+03  0.00000000000E+00 0. -1.
         23    2    1    2    0    0  0.94971526887E+02  0.72376492108E+02 -0.30328512067E+03  0.33829349766E+03  0.90568640322E+02 0.  0.
         23    2    1    2    0    0 -0.72675316904E+02 -0.14359271881E+03 -0.48388339931E+03  0.51781993882E+03  0.89965406299E+02 0.  0.
        -11    1    4    4    0    0  0.15848455051E+02 -0.60539927302E+02 -0.14857457576E+03  0.16121619301E+03  0.00000000000E+00 0. -1.
         11    1    4    4    0    0 -0.88523771955E+02 -0.83052791505E+02 -0.33530882354E+03  0.35660374581E+03  0.00000000000E+00 0.  1.
        -13    1    3    3    0    0  0.62503544381E+02  0.70946505253E+02 -0.28653324281E+03  0.30173067279E+03  0.00000000000E+00 0. -1.
         13    1    3    3    0    0  0.32467982505E+02  0.14299868552E+01 -0.16751877856E+02  0.36562824865E+02  0.00000000000E+00 0.  1.
         21    1    1    2  502  503 -0.20116800545E+02  0.43019341479E+02 -0.16237146166E+03  0.16917399613E+03  0.00000000000E+00 0. -1.
         21    1    1    2  503  501 -0.21794094375E+01  0.28196885219E+02  0.15759846365E+03  0.16011586400E+03  0.00000000000E+00 0.  1.
<scales pt_clust_5="13000.00000" pt_clust_6="13000.00000" pt_clust_7="13000.00000" pt_clust_8="13000.00000" pt_clust_9="49.87529" pt_clust_10="28.28099"></scales>
<clustering>
<clus scale="   28.281">  1 10  2 -1</clus>
<clus scale="   49.875">  2  9  1 -1</clus>
<clus scale="   89.965">  5  6 -1 -1</clus>
<clus scale="   90.569">  7  8 -1 -1</clus>
<clus scale="  162.531">  2  5  1 -1</clus>
<clus scale="   49.875">  2  5  1 -1</clus>
</clustering>
</event>
<event>
10    2  0.1898324E-006  0.3390338E+03  0.7546771E-02  0.1067278E+00
          1   -1    0    0  502    0  0.00000000000E+00  0.00000000000E+00  0.64991780584E+03  0.64991780584E+03  0.00000000000E+00 0. -1.
         -1   -1    0    0    0  501 -0.00000000000E+00 -0.00000000000E+00 -0.33383925626E+03  0.33383925626E+03  0.00000000000E+00 0.  1.
         23    2    1    2    0    0  0.30730539696E+03  0.12377240086E+03  0.90487498254E+01  0.34388792052E+03  0.91764959464E+02 0.  0.
         23    2    1    2    0    0 -0.30207394298E+03 -0.10904677552E+03  0.17118041143E+03  0.37590265908E+03  0.94128686214E+02 0.  0.
        -11    1    4    4    0    0 -0.29508774414E+02 -0.41162574459E+02  0.86568988872E+01  0.51381584268E+02  0.00000000000E+00 0. -1.
         11    1    4    4    0    0 -0.27256516856E+03 -0.67884201060E+02  0.16252351255E+03  0.32452107481E+03  0.00000000000E+00 0.  1.
        -13    1    3    3    0    0  0.23817448311E+03  0.57543487907E+02  0.26908904954E+02  0.24650035816E+03  0.00000000000E+00 0. -1.
         13    1    3    3    0    0  0.69130913852E+02  0.66228912952E+02 -0.17860155128E+02  0.97387562358E+02  0.00000000000E+00 0.  1.
         21    1    1    2  502  503 -0.11413643055E+02  0.21807341522E+02  0.19370533002E+03  0.19526286455E+03  0.00000000000E+00 0. -1.
         21    1    1    2  503  501  0.61821890670E+01 -0.36532966861E+02 -0.57855941706E+02  0.68703617955E+02  0.00000000000E+00 0.  1.
<scales pt_clust_5="13000.00000" pt_clust_6="13000.00000" pt_clust_7="13000.00000" pt_clust_8="13000.00000" pt_clust_9="24.61364" pt_clust_10="36.77372"></scales>
<clustering>
<clus scale="   24.614">  1  9  2 -1</clus>
<clus scale="   36.774">  2 10  1 -1</clus>
<clus scale="   91.765">  7  8 -1 -1</clus>
<clus scale="   94.129">  5  6 -1 -1</clus>
<clus scale="  338.385">  2  7  1 -1</clus>
<clus scale="   24.614">  1  5  2 -1</clus>
</clustering>
</event>
<event>
10    2  0.2018963E-006  0.1283079E+03  0.7546771E-02  0.1251962E+00
         -2   -1    0    0    0  501 -0.00000000000E+00  0.00000000000E+00  0.13177153346E+03  0.13177153346E+03  0.00000000000E+00 0.  1.
          2   -1    0    0  503    0  0.00000000000E+00 -0.00000000000E+00 -0.75144533347E+03  0.75144533347E+03  0.00000000000E+00 0. -1.
         23    2    1    2    0    0  0.86556640127E+01  0.10385689748E+02  0.94981180699E+02  0.12559904427E+03  0.81061163103E+02 0.  0.
         23    2    1    2    0    0 -0.92976143559E+02 -0.39867048042E+02 -0.45818566146E+03  0.47815675803E+03  0.92009999964E+02 0.  0.
        -11    1    3    3    0    0 -0.27357056244E+02 -0.15077612218E+02  0.15901706887E+02  0.35051493527E+02  0.00000000000E+00 0. -1.
         11    1    3    3    0    0  0.36012720256E+02  0.25463301966E+02  0.79079473812E+02  0.90547550744E+02  0.00000000000E+00 0.  1.
        -13    1    4    4    0    0 -0.73060875149E+01 -0.43412869395E+02 -0.90953355919E+02  0.10104736066E+03  0.00000000000E+00 0.  1.
         13    1    4    4    0    0 -0.85670056044E+02  0.35458213527E+01 -0.36723230554E+03  0.37710939737E+03  0.00000000000E+00 0. -1.
         21    1    1    2  502  501  0.68720929335E+02  0.45250861760E+02 -0.23330456758E+03  0.24738881921E+03  0.00000000000E+00 0.  1.
         21    1    1    2  503  502  0.15599550211E+02 -0.15769503466E+02 -0.23164751677E+02  0.32072245425E+02  0.00000000000E+00 0.  1.
<scales pt_clust_5="13000.00000" pt_clust_6="13000.00000" pt_clust_7="13000.00000" pt_clust_8="13000.00000" pt_clust_9="89.42644" pt_clust_10="22.18160"></scales>
<clustering>
<clus scale="   22.182">  2 10  1 -1</clus>
<clus scale="   81.061">  5  6 -1 -1</clus>
<clus scale="   82.175">  1  5  2 -1</clus>
<clus scale="   89.426">  1  9  2 -1</clus>
<clus scale="   92.010">  7  8 -1 -1</clus>
<clus scale="   22.182">  2  5  1 -1</clus>
</clustering>
</event>
<event>
10    2  0.1898324E-006  0.1727020E+03  0.7546771E-02  0.1175067E+00
         -1   -1    0    0    0  501 -0.00000000000E+00  0.00000000000E+00  0.19578056179E+03  0.19578056179E+03  0.00000000000E+00 0.  1.
          1   -1    0    0  502    0  0.00000000000E+00 -0.00000000000E+00 -0.34192299349E+03  0.34192299349E+03  0.00000000000E+00 0. -1.
         23    2    1    2    0    0 -0.35299601920E+02 -0.17190587049E+03 -0.10100946143E+03  0.22206650861E+03  0.91175285800E+02 0.  0.
         23    2    1    2    0    0  0.46106888083E+02  0.11997884373E+03 -0.10782456340E+03  0.19097131716E+03  0.91231241540E+02 0.  0.
        -13    1    4    4    0    0  0.60390422142E+02  0.39009867939E+02 -0.30474445850E+02  0.78086264688E+02  0.00000000000E+00 0.  1.
         13    1    4    4    0    0 -0.14283534059E+02  0.80968975791E+02 -0.77350117553E+02  0.11288505247E+03  0.00000000000E+00 0. -1.
        -13    1    3    3    0    0 -0.94758797718E+01 -0.14105427420E+03 -0.36448027277E+02  0.14599506587E+03  0.00000000000E+00 0.  1.
         13    1    3    3    0    0 -0.25823722148E+02 -0.30851596297E+02 -0.64561434157E+02  0.76071442736E+02  0.00000000000E+00 0. -1.
         21    1    1    2  502  503 -0.20255632806E+02  0.55979936017E+00 -0.18952330010E+02  0.27745177032E+02  0.00000000000E+00 0.  1.
         21    1    1    2  503  501  0.94483466428E+01  0.51367227404E+02  0.81643923145E+02  0.96920552474E+02  0.00000000000E+00 0.  1.
<scales pt_clust_5="13000.00000" pt_clust_6="13000.00000" pt_clust_7="13000.00000" pt_clust_8="13000.00000" pt_clust_9="20.26337" pt_clust_10="52.15650"></scales>
<clustering>
<clus scale="   20.263">  2  9  1 -1</clus>
<clus scale="   52.157">  1 10  2 -1</clus>
<clus scale="   91.175">  7  8 -1 -1</clus>
<clus scale="   91.231">  5  6 -1 -1</clus>
<clus scale="  172.672">  1  7  2 -1</clus>
<clus scale="   20.263">  2  5  1 -1</clus>
</clustering>
</event>
<event>
10    2  0.1898324E-006  0.9465952E+02  0.7546771E-02  0.1292018E+00
          1   -1    0    0  502    0  0.00000000000E+00  0.00000000000E+00  0.29375220892E+03  0.29375220892E+03  0.00000000000E+00 0. -1.
         -1   -1    0    0    0  501 -0.00000000000E+00 -0.00000000000E+00 -0.12136366536E+03  0.12136366536E+03  0.00000000000E+00 0.  1.
         23    2    1    2    0    0 -0.56729346891E+01  0.44782933921E+02  0.61768428638E+02  0.11913325000E+03  0.91321953117E+02 0.  0.
         23    2    1    2    0    0 -0.30702647573E+02  0.51370223785E+01  0.83249674447E+02  0.12733788944E+03  0.91188750542E+02 0.  0.
        -11    1    3    3    0    0 -0.27272332740E+02  0.17370665583E+02  0.75107156074E+02  0.81771664099E+02  0.00000000000E+00 0.  1.
         11    1    3    3    0    0  0.21599398051E+02  0.27412268338E+02 -0.13338727437E+02  0.37361585903E+02  0.00000000000E+00 0. -1.
        -13    1    4    4    0    0  0.30991159098E+02 -0.32499691545E+01  0.13842887456E+02  0.34097503939E+02  0.00000000000E+00 0.  1.
         13    1    4    4    0    0 -0.61693806671E+02  0.83869915330E+01  0.69406786991E+02  0.93240385504E+02  0.00000000000E+00 0. -1.
         21    1    1    2  502  503  0.49180093787E+01 -0.43373274692E+02  0.89007612687E+02  0.99135174837E+02  0.00000000000E+00 0.  1.
         21    1    1    2  503  501  0.31457572884E+02 -0.65466816075E+01 -0.61637172216E+02  0.69509559994E+02  0.00000000000E+00 0.  1.
<scales pt_clust_5="13000.00000" pt_clust_6="13000.00000" pt_clust_7="13000.00000" pt_clust_8="13000.00000" pt_clust_9="44.64933" pt_clust_10="32.13157"></scales>
<clustering>
<clus scale="   32.132">  2 10  1 -1</clus>
<clus scale="   44.649">  1  9  2 -1</clus>
<clus scale="   91.189">  7  8 -1 -1</clus>
<clus scale="   91.322">  5  6 -1 -1</clus>
<clus scale="   94.531">  1  7  2 -1</clus>
<clus scale="   44.649">  1  5  2 -1</clus>
</clustering>
</event>
<event>
10    2  0.1898324E-006  0.1312938E+03  0.7546771E-02  0.1242771E+00
          1   -1    0    0  502    0  0.00000000000E+00  0.00000000000E+00  0.25957919107E+03  0.25957919107E+03  0.00000000000E+00 0. -1.
         -1   -1    0    0    0  501 -0.00000000000E+00 -0.00000000000E+00 -0.13268441110E+03  0.13268441110E+03  0.00000000000E+00 0.  1.
         23    2    1    2    0    0 -0.24301083804E+02  0.20675901382E+02 -0.13061689144E+02  0.94430723555E+02  0.87911991536E+02 0.  0.
         23    2    1    2    0    0 -0.77003899445E+02  0.39658347262E+02  0.52450807590E+02  0.13928834464E+03  0.95643978899E+02 0.  0.
        -13    1    3    3    0    0  0.33180205835E+02  0.68595885507E+01 -0.95784982642E+01  0.35209766306E+02  0.00000000000E+00 0. -1.
         13    1    3    3    0    0 -0.57481289639E+02  0.13816312831E+02 -0.34831908797E+01  0.59220957249E+02  0.00000000000E+00 0.  1.
        -13    1    4    4    0    0 -0.16633584277E+02  0.26525828439E+02 -0.25105324282E+02  0.40131944976E+02  0.00000000000E+00 0.  1.
         13    1    4    4    0    0 -0.60370315168E+02  0.13132518823E+02  0.77556131872E+02  0.99156399668E+02  0.00000000000E+00 0. -1.
         21    1    1    2  502  503  0.22477396013E+02 -0.56620614236E+01  0.50785879935E+02  0.55825602297E+02  0.00000000000E+00 0. -1.
         21    1    1    2  503  501  0.78827587236E+02 -0.54672187220E+02  0.36719781588E+02  0.10271893168E+03  0.00000000000E+00 0. -1.
<scales pt_clust_5="13000.00000" pt_clust_6="13000.00000" pt_clust_7="13000.00000" pt_clust_8="13000.00000" pt_clust_9="23.17957" pt_clust_10="89.94606"></scales>
<clustering>
<clus scale="   23.180">  1  9  2 -1</clus>
<clus scale="   87.912">  5  6 -1 -1</clus>
<clus scale="   92.227">  2  5  1 -1</clus>
<clus scale="   89.946">  2 10  1 -1</clus>
<clus scale="   95.644">  7  8 -1 -1</clus>
<clus scale="   23.180">  1  5  2 -1</clus>
</clustering>
</event>
<event>
10    2  0.1898324E-006  0.1069233E+03  0.7546771E-02  0.1266405E+00
         -1   -1    0    0    0  501 -0.00000000000E+00  0.00000000000E+00  0.31959090460E+03  0.31959090460E+03  0.00000000000E+00 0.  1.
          1   -1    0    0  502    0  0.00000000000E+00 -0.00000000000E+00 -0.37190828151E+03  0.37190828151E+03  0.00000000000E+00 0. -1.
         23    2    1    2    0    0 -0.15495129694E+02  0.10053554936E+03  0.21665735314E+03  0.25563398279E+03  0.89782118255E+02 0.  0.
         23    2    1    2    0    0  0.22992044150E+02 -0.87564768540E+02 -0.21341297486E+03  0.24857452694E+03  0.89710505645E+02 0.  0.
        -13    1    4    4    0    0 -0.30467706433E+02 -0.24493972798E+02 -0.37361125795E+02  0.54074851450E+02  0.00000000000E+00 0.  1.
         13    1    4    4    0    0  0.53459750583E+02 -0.63070795743E+02 -0.17605184906E+03  0.19449967549E+03  0.00000000000E+00 0. -1.
        -13    1    3    3    0    0  0.64948529920E+01  0.73338054990E+02  0.20647162444E+03  0.21920580540E+03  0.00000000000E+00 0.  1.
         13    1    3    3    0    0 -0.21989982686E+02  0.27197494367E+02  0.10185728702E+02  0.36428177385E+02  0.00000000000E+00 0. -1.
         21    1    1    2  502  503 -0.91874569087E+01  0.39273664106E+02 -0.10675836285E+03  0.11412352122E+03  0.00000000000E+00 0.  1.
         21    1    1    2  503  501  0.16905424529E+01 -0.52244444923E+02  0.51196607654E+02  0.73167155161E+02  0.00000000000E+00 0.  1.
<scales pt_clust_5="13000.00000" pt_clust_6="13000.00000" pt_clust_7="13000.00000" pt_clust_8="13000.00000" pt_clust_9="40.33398" pt_clust_10="50.61122"></scales>
<clustering>
<clus scale="   40.334">  2  9  1 -1</clus>
<clus scale="   50.611">  1 10  2 -1</clus>
<clus scale="   89.711">  5  6 -1 -1</clus>
<clus scale="   89.782">  7  8 -1 -1</clus>
<clus scale="  106.863">  2  5  1 -1</clus>
<clus scale="   40.334">  2  5  1 -1</clus>
</clustering>
</event>
<event>
10    2  0.1898324E-006  0.9559962E+02  0.7546771E-02  0.1291052E+00
         -1   -1    0    0    0  501 -0.00000000000E+00  0.00000000000E+00  0.16866527640E+03  0.16866527640E+03  0.00000000000E+00 0.  1.
          1   -1    0    0  502    0  0.00000000000E+00 -0.00000000000E+00 -0.36565345036E+03  0.36565345036E+03  0.00000000000E+00 0. -1.
         23    2    1    2    0    0 -0.41739042400E+02 -0.28337082997E+02  0.45795948380E+02  0.11463435709E+03  0.92188009005E+02 0.  0.
         23    2    1    2    0    0 -0.17486359999E+02  0.15343228677E+02 -0.35657778033E+01  0.92974566271E+02  0.89946471580E+02 0.  0.
        -11    1    4    4    0    0 -0.49781604099E+01  0.39854905997E+02  0.29589245325E+02  0.49887062972E+02  0.00000000000E+00 0. -1.
         11    1    4    4    0    0 -0.12508199590E+02 -0.24511677319E+02 -0.33155023128E+02  0.43087503300E+02  0.00000000000E+00 0.  1.
        -13    1    3    3    0    0 -0.10028555351E+02 -0.35609940912E+02  0.66481164820E+02  0.76081437224E+02  0.00000000000E+00 0.  1.
         13    1    3    3    0    0 -0.31710487048E+02  0.72728579156E+01 -0.20685216440E+02  0.38552919867E+02  0.00000000000E+00 0. -1.
         21    1    1    2  502  503  0.33821179277E+02  0.10515046005E+02 -0.27801912733E+03  0.28026607629E+03  0.00000000000E+00 0. -1.
         21    1    1    2  503  501  0.25404223122E+02  0.24788083141E+01  0.38800782785E+02  0.46443727110E+02  0.00000000000E+00 0.  1.
<scales pt_clust_5="13000.00000" pt_clust_6="13000.00000" pt_clust_7="13000.00000" pt_clust_8="13000.00000" pt_clust_9="35.64087" pt_clust_10="25.52487"></scales>
<clustering>
<clus scale="   25.525">  1 10  2 -1</clus>
<clus scale="   35.641">  2  9  1 -1</clus>
<clus scale="   89.946">  5  6 -1 -1</clus>
<clus scale="   92.188">  7  8 -1 -1</clus>
<clus scale="   93.440">  2  5  1 -1</clus>
<clus scale="   35.641">  2  5  1 -1</clus>
</clustering>
</event>
<event>
10    2  0.1898324E-006  0.2440281E+03  0.7546771E-02  0.1117258E+00
         -2   -1    0    0    0  501 -0.00000000000E+00  0.00000000000E+00  0.28252257465E+03  0.28252257465E+03  0.00000000000E+00 0.  1.
          2   -1    0    0  502    0  0.00000000000E+00 -0.00000000000E+00 -0.96081317426E+03  0.96081317426E+03  0.00000000000E+00 0. -1.
         23    2    1    2    0    0 -0.81893365926E+02 -0.15135713008E+03  0.10495546036E+03  0.22213311596E+03  0.93337925508E+02 0.  0.
         23    2    1    2    0    0  0.18665244863E+03  0.13997117238E+03 -0.81391572251E+03  0.85161219669E+03  0.91397289445E+02 0.  0.
        -13    1    4    4    0    0  0.93839206477E+02  0.15225748563E+02 -0.30408070390E+03  0.31859487531E+03  0.00000000000E+00 0.  1.
         13    1    4    4    0    0  0.92813242151E+02  0.12474542381E+03 -0.50983501861E+03  0.53301732137E+03  0.00000000000E+00 0. -1.
        -13    1    3    3    0    0 -0.50772203236E+02 -0.11185246077E+03  0.21511173447E+02  0.12470573437E+03  0.00000000000E+00 0. -1.
         13    1    3    3    0    0 -0.31121162690E+02 -0.39504669304E+02  0.83444286915E+02  0.97427381586E+02  0.00000000000E+00 0.  1.
         21    1    1    2  502  503 -0.85695949264E+02  0.21640427040E+01 -0.40880635291E+02  0.94972128242E+02  0.00000000000E+00 0. -1.
         21    1    1    2  503  501 -0.19063133438E+02  0.92219149979E+01  0.71550297824E+02  0.74618308018E+02  0.00000000000E+00 0.  1.
<scales pt_clust_5="13000.00000" pt_clust_6="13000.00000" pt_clust_7="13000.00000" pt_clust_8="13000.00000" pt_clust_9="88.22147" pt_clust_10="21.17656"></scales>
<clustering>
<clus scale="   21.177">  1 10  2 -1</clus>
<clus scale="   88.221">  1  9  2 -1</clus>
<clus scale="   91.397">  5  6 -1 -1</clus>
<clus scale="   93.338">  7  8 -1 -1</clus>
<clus scale="  243.292">  2  5  1 -1</clus>
<clus scale="  243.292">  2  5  1 -1</clus>
</clustering>
</event>
<event>
10    2  0.1898324E-006  0.1083663E+03  0.7546771E-02  0.1268860E+00
          4   -1    0    0  502    0  0.00000000000E+00  0.00000000000E+00  0.31720456303E+03  0.31720456303E+03  0.00000000000E+00 0. -1.
         -4   -1    0    0    0  501 -0.00000000000E+00 -0.00000000000E+00 -0.38174995735E+03  0.38174995735E+03  0.00000000000E+00 0.  1.
         23    2    1    2    0    0  0.31563367257E+01  0.19226344259E+02 -0.11634398912E+03  0.14782182829E+03  0.89082850980E+02 0.  0.
         23    2    1    2    0    0 -0.57488352120E+02 -0.29153653736E+02  0.26044603438E+03  0.28650806519E+03  0.10049820119E+03 0.  0.
        -11    1    3    3    0    0  0.43872114274E+02 -0.30171196958E+01 -0.66512539602E+02  0.79735709356E+02  0.00000000000E+00 0.  1.
         11    1    3    3    0    0 -0.40715777549E+02  0.22243463955E+02 -0.49831449521E+02  0.68086118934E+02  0.00000000000E+00 0. -1.
        -11    1    4    4    0    0 -0.50808866985E+02  0.61893005446E+01  0.23945085236E+03  0.24486028486E+03  0.00000000000E+00 0. -1.
         11    1    4    4    0    0 -0.66794851347E+01 -0.35342954281E+02  0.20995182018E+02  0.41647780336E+02  0.00000000000E+00 0.  1.
         21    1    1    2  502  503  0.17353755874E+02  0.14405684157E+02  0.21692235666E+02  0.31292645576E+02  0.00000000000E+00 0. -1.
         21    1    1    2  503  501  0.36978259520E+02 -0.44783746792E+01 -0.23033967524E+03  0.23333198132E+03  0.00000000000E+00 0.  1.
<scales pt_clust_5="13000.00000" pt_clust_6="13000.00000" pt_clust_7="13000.00000" pt_clust_8="13000.00000" pt_clust_9="22.55386" pt_clust_10="37.32830"></scales>
<clustering>
<clus scale="   22.554">  1  9  2 -1</clus>
<clus scale="   37.328">  2 10  1 -1</clus>
<clus scale="   89.083">  5  6 -1 -1</clus>
<clus scale="   97.873">  2  5  1 -1</clus>
<clus scale="  100.498">  7  8 -1 -1</clus>
<clus scale="   22.554">  1  5  2 -1</clus>
</clustering>
</event>
<event>
10    2  0.1898324E-006  0.1037022E+03  0.7546771E-02  0.1273544E+00
         -1   -1    0    0    0  501 -0.00000000000E+00  0.00000000000E+00  0.24737664587E+03  0.24737664587E+03  0.00000000000E+00 0.  1.
          1   -1    0    0  502    0  0.00000000000E+00 -0.00000000000E+00 -0.94159195837E+02  0.94159195837E+02  0.00000000000E+00 0. -1.
         23    2    1    2    0    0  0.54354214460E+01 -0.51714856163E+02  0.97673235544E+02  0.14323801921E+03  0.90956577830E+02 0.  0.
         23    2    1    2    0    0  0.13175655453E+02  0.33590359381E+02  0.93626979757E+01  0.96530612312E+02  0.89042623839E+02 0.  0.
        -11    1    3    3    0    0 -0.14070772905E+02  0.16613480618E+02 -0.82104822688E+00  0.21786888456E+02  0.00000000000E+00 0.  1.
         11    1    3    3    0    0  0.19506194351E+02 -0.68328336782E+02  0.98494283771E+02  0.12145113075E+03  0.00000000000E+00 0. -1.
        -13    1    4    4    0    0 -0.18554004479E+02  0.28047894274E+02  0.39875136502E+02  0.52162840859E+02  0.00000000000E+00 0.  1.
         13    1    4    4    0    0  0.31729659933E+02  0.55424651070E+01 -0.30512438526E+02  0.44367771453E+02  0.00000000000E+00 0. -1.
         21    1    1    2  502  503  0.82468488906E+01  0.33905328818E+02 -0.11054645534E+02  0.36603101327E+02  0.00000000000E+00 0. -1.
         21    1    1    2  503  501 -0.26857925790E+02 -0.15780832035E+02  0.57236162044E+02  0.65164108856E+02  0.00000000000E+00 0.  1.
<scales pt_clust_5="13000.00000" pt_clust_6="13000.00000" pt_clust_7="13000.00000" pt_clust_8="13000.00000" pt_clust_9="33.44146" pt_clust_10="31.15097"></scales>
<clustering>
<clus scale="   31.151">  1 10  2 -1</clus>
<clus scale="   33.441">  2  9  1 -1</clus>
<clus scale="   89.043">  7  8 -1 -1</clus>
<clus scale="   90.957">  5  6 -1 -1</clus>
<clus scale="  102.028">  2  7  1 -1</clus>
<clus scale="   33.441">  2  5  1 -1</clus>
</clustering>
</event>
<event>
10    2  0.1898324E-006  0.1453922E+03  0.7546771E-02  0.1208905E+00
         -1   -1    0    0    0  501 -0.00000000000E+00  0.00000000000E+00  0.13448839033E+03  0.13448839033E+03  0.00000000000E+00 0.  1.
          1   -1    0    0  502    0  0.00000000000E+00 -0.00000000000E+00 -0.36918117028E+03  0.36918117028E+03  0.00000000000E+00 0. -1.
         23    2    1    2    0    0  0.15470558501E+02  0.94621071580E+02  0.56864150903E+01  0.14055282054E+03  0.10261712663E+03 0.  0.
         23    2    1    2    0    0 -0.51947834831E+02 -0.81215797971E+02 -0.11329045022E+03  0.17431668890E+03  0.90868028113E+02 0.  0.
        -11    1    3    3    0    0  0.31053115194E+02 -0.11501004500E+02 -0.44818544812E+00  0.33117517087E+02  0.00000000000E+00 0. -1.
         11    1    3    3    0    0 -0.15582556693E+02  0.10612207608E+03  0.61346005385E+01  0.10743530346E+03  0.00000000000E+00 0.  1.
        -11    1    4    4    0    0 -0.21122139448E+02 -0.16003622402E+02 -0.96750143611E+02  0.10031376273E+03  0.00000000000E+00 0. -1.
         11    1    4    4    0    0 -0.30825695383E+02 -0.65212175569E+02 -0.16540306611E+02  0.74002926166E+02  0.00000000000E+00 0.  1.
         21    1    1    2  502  503  0.11801823097E+02 -0.35570329979E+02 -0.14592177541E+03  0.15065754525E+03  0.00000000000E+00 0. -1.
         21    1    1    2  503  501  0.24675453233E+02  0.22165056370E+02  0.18833030591E+02  0.38142505913E+02  0.00000000000E+00 0.  1.
<scales pt_clust_5="13000.00000" pt_clust_6="13000.00000" pt_clust_7="13000.00000" pt_clust_8="13000.00000" pt_clust_9="37.18692" pt_clust_10="33.16878"></scales>
<clustering>
<clus scale="   33.169">  1 10  2 -1</clus>
<clus scale="   37.187">  2  9  1 -1</clus>
<clus scale="   90.868">  7  8 -1 -1</clus>
<clus scale="  102.617">  5  6 -1 -1</clus>
<clus scale="  137.352">  2  7  1 -1</clus>
<clus scale="   37.187">  2  5  1 -1</clus>
</clustering>
</event>
<event>
10    2  0.1898324E-006  0.9741297E+02  0.7546771E-02  0.1288056E+00
          1   -1    0    0  502    0  0.00000000000E+00  0.00000000000E+00  0.19519231608E+03  0.19519231608E+03  0.00000000000E+00 0. -1.
         -1   -1    0    0    0  501 -0.00000000000E+00 -0.00000000000E+00 -0.20814448542E+03  0.20814448542E+03  0.00000000000E+00 0.  1.
         23    2    1    2    0    0  0.32006476201E+01  0.16561291242E+02  0.28471755418E+02  0.99017863383E+02  0.93324037094E+02 0.  0.
         23    2    1    2    0    0 -0.27564906998E+02  0.63389450625E+02  0.53747934247E+02  0.12495668588E+03  0.89147553872E+02 0.  0.
        -13    1    4    4    0    0 -0.80436200298E+01  0.53915576438E+02  0.76227192617E+02  0.93713254666E+02  0.00000000000E+00 0. -1.
         13    1    4    4    0    0 -0.19521286968E+02  0.94738741864E+01 -0.22479258370E+02  0.31243431211E+02  0.00000000000E+00 0.  1.
        -13    1    3    3    0    0 -0.15681162034E+02  0.52140083393E+02  0.18721164945E+02  0.57575768825E+02  0.00000000000E+00 0. -1.
         13    1    3    3    0    0  0.18881809654E+02 -0.35578792151E+02  0.97505904724E+01  0.41442094557E+02  0.00000000000E+00 0.  1.
         21    1    1    2  502  503 -0.26625600370E+02 -0.21631457622E+02  0.20635775221E+02  0.40033458168E+02  0.00000000000E+00 0. -1.
         21    1    1    2  503  501  0.50989859747E+02 -0.58319284245E+02 -0.11580763423E+03  0.13932879407E+03  0.00000000000E+00 0.  1.
<scales pt_clust_5="13000.00000" pt_clust_6="13000.00000" pt_clust_7="13000.00000" pt_clust_8="13000.00000" pt_clust_9="34.30514" pt_clust_10="77.41694"></scales>
<clustering>
<clus scale="   34.305">  1  9  2 -1</clus>
<clus scale="   77.417">  2 10  1 -1</clus>
<clus scale="   89.148">  5  6 -1 -1</clus>
<clus scale="   93.324">  7  8 -1 -1</clus>
<clus scale="   93.419">  1  5  2 -1</clus>
<clus scale="   34.305">  1  5  2 -1</clus>
</clustering>
</event>
<event>
10    2  0.1898324E-006  0.1125454E+03  0.7546771E-02  0.1260436E+00
         -1   -1    0    0    0  501 -0.00000000000E+00  0.00000000000E+00  0.23231477944E+03  0.23231477944E+03  0.00000000000E+00 0.  1.
          1   -1    0    0  502    0  0.00000000000E+00 -0.00000000000E+00 -0.56264044625E+03  0.56264044625E+03  0.00000000000E+00 0. -1.
         23    2    1    2    0    0 -0.53570705305E+02  0.91239448900E+02  0.16386836036E+03  0.22144200008E+03  0.10482968267E+03 0.  0.
         23    2    1    2    0    0  0.20494087289E+02 -0.16390981942E+02 -0.37016545649E+03  0.38293304759E+03  0.94480589821E+02 0.  0.
        -11    1    4    4    0    0 -0.10465625680E+02 -0.47107389983E+02 -0.26016701541E+03  0.26460444331E+03  0.00000000000E+00 0. -1.
         11    1    4    4    0    0  0.30959712969E+02  0.30716408041E+02 -0.10999844108E+03  0.11832860427E+03  0.00000000000E+00 0.  1.
        -11    1    3    3    0    0 -0.20289082251E+01  0.93211268799E+02  0.12907018487E+03  0.15922176272E+03  0.00000000000E+00 0.  1.
         11    1    3    3    0    0 -0.51541797080E+02 -0.19718198991E+01  0.34798175490E+02  0.62220237362E+02  0.00000000000E+00 0. -1.
         21    1    1    2  502  503 -0.28710023705E+01 -0.20295648021E+02 -0.12355800560E+03  0.12524670347E+03  0.00000000000E+00 0. -1.
         21    1    1    2  503  501  0.35947620386E+02 -0.54552818937E+02 -0.47056509025E+00  0.65333474551E+02  0.00000000000E+00 0. -1.
<scales pt_clust_5="13000.00000" pt_clust_6="13000.00000" pt_clust_7="13000.00000" pt_clust_8="13000.00000" pt_clust_9="20.49771" pt_clust_10="66.49333"></scales>
<clustering>
<clus scale="   20.498">  2  9  1 -1</clus>
<clus scale="   66.493">  1 10  2 -1</clus>
<clus scale="   94.481">  5  6 -1 -1</clus>
<clus scale="  102.975">  2  5  1 -1</clus>
<clus scale="  104.830">  7  8 -1 -1</clus>
<clus scale="   20.498">  2  5  1 -1</clus>
</clustering>
</event>
<event>
10    2  0.1898324E-006  0.1035823E+03  0.7546771E-02  0.1273070E+00
          2   -1    0    0  502    0  0.00000000000E+00  0.00000000000E+00  0.48144770993E+03  0.48144770993E+03  0.00000000000E+00 0. -1.
         -2   -1    0    0    0  501 -0.00000000000E+00 -0.00000000000E+00 -0.86531510108E+02  0.86531510108E+02  0.00000000000E+00 0.  1.
         23    2    1    2    0    0 -0.15838693739E+02  0.46129308967E+01 -0.10411209847E+02  0.92630673700E+02  0.90553327210E+02 0.  0.
         23    2    1    2    0    0 -0.32253306465E+02 -0.45303206604E+02  0.25351673625E+03  0.27498658345E+03  0.90852788683E+02 0.  0.
        -11    1    4    4    0    0 -0.42774743092E+02  0.14302035046E+02  0.12613271180E+03  0.13395405123E+03  0.00000000000E+00 0. -1.
         11    1    4    4    0    0  0.10521436627E+02 -0.59605241650E+02  0.12738402445E+03  0.14103253222E+03  0.00000000000E+00 0.  1.
        -13    1    3    3    0    0  0.90362964196E+01  0.39846797883E+02 -0.24030735120E+02  0.47401457624E+02  0.00000000000E+00 0. -1.
         13    1    3    3    0    0 -0.24874990159E+02 -0.35233866986E+02  0.13619525273E+02  0.45229216076E+02  0.00000000000E+00 0.  1.
         21    1    1    2  502  503 -0.23669079237E+02  0.47720236917E+01  0.10439827658E+03  0.10715408380E+03  0.00000000000E+00 0. -1.
         21    1    1    2  503  501  0.71761079442E+02  0.35918252016E+02  0.47412396844E+02  0.93207879093E+02  0.00000000000E+00 0.  1.
<scales pt_clust_5="13000.00000" pt_clust_6="13000.00000" pt_clust_7="13000.00000" pt_clust_8="13000.00000" pt_clust_9="24.14534" pt_clust_10="76.73701"></scales>
<clustering>
<clus scale="   24.145">  1  9  2 -1</clus>
<clus scale="   76.737">  2 10  1 -1</clus>
<clus scale="   90.553">  7  8 -1 -1</clus>
<clus scale="   90.853">  5  6 -1 -1</clus>
<clus scale="  103.320">  2  7  1 -1</clus>
<clus scale="   24.145">  1  5  2 -1</clus>
</clustering>
</event>
<event>
10    2  0.1898324E-006  0.3988776E+03  0.7546771E-02  0.1044173E+00
         -1   -1    0    0    0  501 -0.00000000000E+00  0.00000000000E+00  0.93522078474E+03  0.93522078474E+03  0.00000000000E+00 0.  1.
          1   -1    0    0  502    0  0.00000000000E+00 -0.00000000000E+00 -0.47508726406E+03  0.47508726406E+03  0.00000000000E+00 0. -1.
         23    2    1    2    0    0  0.96567901269E+02 -0.29224005303E+03  0.48953958681E+03  0.58530421133E+03  0.90567127552E+02 0.  0.
         23    2    1    2    0    0 -0.78579514828E+01  0.42950632846E+03 -0.64079135068E+02  0.44362905513E+03  0.90350259647E+02 0.  0.
        -11    1    4    4    0    0  0.42024974066E+01  0.16783884860E+03  0.18664858076E+02  0.16892577368E+03  0.00000000000E+00 0.  1.
         11    1    4    4    0    0 -0.12060448889E+02  0.26166747986E+03 -0.82743993143E+02  0.27470328146E+03  0.00000000000E+00 0. -1.
        -11    1    3    3    0    0  0.59896235470E+02 -0.88248669762E+02  0.22704650149E+03  0.25084955766E+03  0.00000000000E+00 0. -1.
         11    1    3    3    0    0  0.36671665799E+02 -0.20399138327E+03  0.26249308532E+03  0.33445465367E+03  0.00000000000E+00 0.  1.
         21    1    1    2  502  503  0.45270293477E+02 -0.12334572492E+02 -0.12803357207E+03  0.13636031948E+03  0.00000000000E+00 0. -1.
         21    1    1    2  503  501 -0.13398024326E+03 -0.12493170294E+03  0.16270664102E+03  0.24501446287E+03  0.00000000000E+00 0.  1.
<scales pt_clust_5="13000.00000" pt_clust_6="13000.00000" pt_clust_7="13000.00000" pt_clust_8="13000.00000" pt_clust_9="46.92058" pt_clust_10="180.28954"></scales>
<clustering>
<clus scale="   46.921">  2  9  1 -1</clus>
<clus scale="   90.350">  5  6 -1 -1</clus>
<clus scale="   90.567">  7  8 -1 -1</clus>
<clus scale="  180.290">  1 10  2 -1</clus>
<clus scale="  398.828">  2  5  1 -1</clus>
<clus scale="   46.921">  2  5  1 -1</clus>
</clustering>
</event>
<event>
10    2  0.1898324E-006  0.1037991E+03  0.7546771E-02  0.1273217E+00
         -2   -1    0    0    0  501 -0.00000000000E+00  0.00000000000E+00  0.58287679476E+02  0.58287679476E+02  0.00000000000E+00 0.  1.
          2   -1    0    0  503    0  0.00000000000E+00 -0.00000000000E+00 -0.35132815280E+03  0.35132815280E+03  0.00000000000E+00 0. -1.
         23    2    1    2    0    0  0.63890297768E+02  0.19993917056E+02 -0.79094565952E+02  0.13868910305E+03  0.92179119503E+02 0.  0.
         23    2    1    2    0    0 -0.27719998579E+02  0.26703486906E+02 -0.11657047170E+03  0.15256257291E+03  0.90582499662E+02 0.  0.
        -11    1    4    4    0    0  0.11162346259E+02 -0.28432232481E+02 -0.42950837928E+02  0.52704499775E+02  0.00000000000E+00 0.  1.
         11    1    4    4    0    0 -0.38882344839E+02  0.55135719388E+02 -0.73619633773E+02  0.99858073131E+02  0.00000000000E+00 0. -1.
        -13    1    3    3    0    0  0.52678195753E+02  0.27108358935E+01 -0.97635427144E+02  0.11097304886E+03  0.00000000000E+00 0. -1.
         13    1    3    3    0    0  0.11212102015E+02  0.17283081163E+02  0.18540861192E+02  0.27716054189E+02  0.00000000000E+00 0.  1.
         21    1    1    2  502  501 -0.36069196042E+02 -0.21877471228E+02 -0.55936755419E+02  0.70060911050E+02  0.00000000000E+00 0. -1.
         21    1    1    2  503  502 -0.10110314609E+00 -0.24819932735E+02 -0.41438680251E+02  0.48303245271E+02  0.00000000000E+00 0. -1.
<scales pt_clust_5="13000.00000" pt_clust_6="13000.00000" pt_clust_7="13000.00000" pt_clust_8="13000.00000" pt_clust_9="67.29114" pt_clust_10="24.72647"></scales>
<clustering>
<clus scale="   24.726">  9 10 -1 -1</clus>
<clus scale="   67.291">  2  9  1 -1</clus>
<clus scale="   90.582">  5  6 -1 -1</clus>
<clus scale="   92.179">  7  8 -1 -1</clus>
<clus scale="  102.384">  2  5  1 -1</clus>
<clus scale="   67.291">  2  5  1 -1</clus>
</clustering>
</event>
<event>
10    2  0.1898324E-006  0.1216764E+03  0.7546771E-02  0.1240678E+00
         -1   -1    0    0    0  501 -0.00000000000E+00  0.00000000000E+00  0.74734477618E+02  0.74734477618E+02  0.00000000000E+00 0.  1.
          1   -1    0    0  502    0  0.00000000000E+00 -0.00000000000E+00 -0.36685718118E+03  0.36685718118E+03  0.00000000000E+00 0. -1.
         23    2    1    2    0    0  0.10449813132E+03 -0.30584326184E+02 -0.92982223482E+02  0.17011767538E+03  0.91864406257E+02 0.  0.
         23    2    1    2    0    0 -0.52969647735E+02  0.21939198059E+01 -0.80517636255E+02  0.13388187714E+03  0.92901401565E+02 0.  0.
        -11    1    3    3    0    0  0.10511662012E+03  0.10744844205E+01 -0.89867924093E+02  0.13830004383E+03  0.00000000000E+00 0. -1.
         11    1    3    3    0    0 -0.61848879702E+00 -0.31658810605E+02 -0.31142993893E+01  0.31817631558E+02  0.00000000000E+00 0.  1.
        -13    1    4    4    0    0  0.25431287662E+02  0.90767828533E+01 -0.12064937910E+02  0.29575346252E+02  0.00000000000E+00 0.  1.
         13    1    4    4    0    0 -0.78400935398E+02 -0.68828630474E+01 -0.68452698345E+02  0.10430653089E+03  0.00000000000E+00 0. -1.
         21    1    1    2  502  503 -0.30596276686E+02  0.21406995471E+02 -0.10551146399E+03  0.11192435229E+03  0.00000000000E+00 0. -1.
         21    1    1    2  503  501 -0.20932206898E+02  0.69834109077E+01 -0.13111379835E+02  0.25667753986E+02  0.00000000000E+00 0.  1.
<scales pt_clust_5="13000.00000" pt_clust_6="13000.00000" pt_clust_7="13000.00000" pt_clust_8="13000.00000" pt_clust_9="38.33354" pt_clust_10="22.06638"></scales>
<clustering>
<clus scale="   22.066">  1 10  2 -1</clus>
<clus scale="   38.334">  2  9  1 -1</clus>
<clus scale="   91.864">  5  6 -1 -1</clus>
<clus scale="   92.901">  7  8 -1 -1</clus>
<clus scale="  120.886">  1  5  2 -1</clus>
<clus scale="   38.334">  2  5  1 -1</clus>
</clustering>
</event>
<event>
10    2  0.1898324E-006  0.1123604E+03  0.7546771E-02  0.1256444E+00
         -2   -1    0    0    0  501 -0.00000000000E+00  0.00000000000E+00  0.66521777166E+03  0.66521777166E+03  0.00000000000E+00 0.  1.
          2   -1    0    0  502    0  0.00000000000E+00 -0.00000000000E+00 -0.43784418184E+02  0.43784418184E+02  0.00000000000E+00 0. -1.
         23    2    1    2    0    0  0.25184119696E+02  0.26182447053E+02  0.31204633191E+03  0.32764569100E+03  0.93053883092E+02 0.  0.
         23    2    1    2    0    0 -0.70603543628E+02 -0.56974535145E+02  0.12006487028E+03  0.17667524676E+03  0.92561394297E+02 0.  0.
        -13    1    4    4    0    0 -0.56046092514E+02 -0.73456742774E+02  0.53937833552E+02  0.10698760411E+03  0.00000000000E+00 0.  1.
         13    1    4    4    0    0 -0.14557451114E+02  0.16482207629E+02  0.66127036732E+02  0.69687642651E+02  0.00000000000E+00 0. -1.
        -13    1    3    3    0    0 -0.21639952392E+02  0.43548362499E+01  0.16347977483E+02  0.27468318224E+02  0.00000000000E+00 0. -1.
         13    1    3    3    0    0  0.46824072087E+02  0.21827610803E+02  0.29569835442E+03  0.30017737278E+03  0.00000000000E+00 0.  1.
         21    1    1    2  502  503  0.35924596768E+02 -0.36354333543E+01  0.55785679576E+02  0.66451749972E+02  0.00000000000E+00 0. -1.
         21    1    1    2  503  501  0.94948271643E+01  0.34427521446E+02  0.13353647171E+03  0.13822950210E+03  0.00000000000E+00 0.  1.
<scales pt_clust_5="13000.00000" pt_clust_6="13000.00000" pt_clust_7="13000.00000" pt_clust_8="13000.00000" pt_clust_9="37.02246" pt_clust_10="35.71283"></scales>
<clustering>
<clus scale="   35.713">  1 10  2 -1</clus>
<clus scale="   37.022">  2  9  1 -1</clus>
<clus scale="   92.561">  5  6 -1 -1</clus>
<clus scale="   93.054">  7  8 -1 -1</clus>
<clus scale="  111.953">  2  5  1 -1</clus>
<clus scale="   37.022">  2  5  1 -1</clus>
</clustering>
</event>
<event>
10    2  0.1898324E-006  0.1377654E+03  0.7546771E-02  0.1217169E+00
          1   -1    0    0  502    0  0.00000000000E+00  0.00000000000E+00  0.76124815062E+02  0.76124815062E+02  0.00000000000E+00 0. -1.
         -1   -1    0    0    0  501 -0.00000000000E+00 -0.00000000000E+00 -0.99356451897E+03  0.99356451897E+03  0.00000000000E+00 0.  1.
         23    2    1    2    0    0 -0.85339389858E+02  0.69048420815E+02 -0.59630767630E+03  0.61310128246E+03  0.90883672134E+02 0.  0.
         23    2    1    2    0    0  0.91050322343E+02  0.25408315220E+02 -0.34473498306E+02  0.13789732584E+03  0.94294786216E+02 0.  0.
        -11    1    3    3    0    0 -0.86012809485E+02  0.15741524831E+02 -0.41532937174E+03  0.42443431298E+03  0.00000000000E+00 0. -1.
         11    1    3    3    0    0  0.67341962764E+00  0.53306895984E+02 -0.18097830456E+03  0.18866696948E+03  0.00000000000E+00 0.  1.
        -13    1    4    4    0    0  0.53061363001E+02  0.39003553421E+02  0.21162124951E+02  0.69170954565E+02  0.00000000000E+00 0. -1.
         13    1    4    4    0    0  0.37988959342E+02 -0.13595238200E+02 -0.55635623257E+02  0.68726371276E+02  0.00000000000E+00 0.  1.
         21    1    1    2  502  503  0.15888499475E+02 -0.15821629073E+02 -0.19196045215E+01  0.22504516071E+02  0.00000000000E+00 0.  1.
         21    1    1    2  503  501 -0.21599431960E+02 -0.78635106962E+02 -0.28473892478E+03  0.29618620966E+03  0.00000000000E+00 0.  1.
<scales pt_clust_5="13000.00000" pt_clust_6="13000.00000" pt_clust_7="13000.00000" pt_clust_8="13000.00000" pt_clust_9="22.42250" pt_clust_10="82.52562"></scales>
<clustering>
<clus scale="   22.422">  1  9  2 -1</clus>
<clus scale="   82.526">  2 10  1 -1</clus>
<clus scale="   90.884">  5  6 -1 -1</clus>
<clus scale="   94.295">  7  8 -1 -1</clus>
<clus scale="  135.453">  2  5  1 -1</clus>
<clus scale="   22.422">  1  5  2 -1</clus>
</clustering>
</event>
<event>
10    2  0.2661824E-006  0.1123374E+03  0.7546771E-02  0.1256722E+00
         -1   -1    0    0    0  501 -0.00000000000E+00  0.00000000000E+00  0.52566462013E+03  0.52566462013E+03  0.00000000000E+00 0.  1.
          1   -1    0    0  502    0  0.00000000000E+00 -0.00000000000E+00 -0.24813097297E+03  0.24813097297E+03  0.00000000000E+00 0. -1.
         23    2    1    2    0    0  0.23531220891E+02  0.58518017797E+02  0.30384969887E+03  0.32336262453E+03  0.90888231782E+02 0.  0.
         23    2    1    2    0    0 -0.76635985424E+02 -0.25701950831E+02 -0.19722127024E+03  0.23216088226E+03  0.92025981519E+02 0.  0.
        -13    1    4    4    0    0  0.46858004438E+01  0.25491008676E+02 -0.33979207806E+02  0.42735638666E+02  0.00000000000E+00 0.  1.
         13    1    4    4    0    0 -0.81321785868E+02 -0.51192959507E+02 -0.16324206244E+03  0.18942524359E+03  0.00000000000E+00 0. -1.
        -13    1    3    3    0    0 -0.75654927562E+01 -0.20782741664E+02  0.10028696073E+03  0.10269680387E+03  0.00000000000E+00 0. -1.
         13    1    3    3    0    0  0.31096713647E+02  0.79300759461E+02  0.20356273814E+03  0.22066582066E+03  0.00000000000E+00 0.  1.
         21    1    1    2  502  503  0.11810653864E+02  0.16609813354E+02 -0.12485118366E+02  0.23900954478E+02  0.00000000000E+00 0. -1.
         21    1    1    2  503  501  0.41294110669E+02 -0.49425880319E+02  0.18339033690E+03  0.19437113183E+03  0.00000000000E+00 0.  1.
<scales pt_clust_5="13000.00000" pt_clust_6="13000.00000" pt_clust_7="13000.00000" pt_clust_8="13000.00000" pt_clust_9="20.38081" pt_clust_10="64.28409"></scales>
<clustering>
<clus scale="   20.381">  2  9  1 -1</clus>
<clus scale="   64.284">  1 10  2 -1</clus>
<clus scale="   90.888">  7  8 -1 -1</clus>
<clus scale="   92.026">  5  6 -1 -1</clus>
<clus scale="  111.407">  1  7  2 -1</clus>
<clus scale="   20.381">  2  5  1 -1</clus>
</clustering>
</event>
<event>
10    2  0.1898324E-006  0.2111828E+03  0.7546771E-02  0.1140655E+00
         -1   -1    0    0    0  501 -0.00000000000E+00  0.00000000000E+00  0.20530773174E+03  0.20530773174E+03  0.00000000000E+00 0.  1.
          1   -1    0    0  502    0  0.00000000000E+00 -0.00000000000E+00 -0.62173617637E+03  0.62173617637E+03  0.00000000000E+00 0. -1.
         23    2    1    2    0    0  0.77240093649E+01 -0.19948563625E+03  0.58374577719E+02  0.22705279985E+03  0.91056044311E+02 0.  0.
         23    2    1    2    0    0  0.72766700690E+02  0.16391333702E+03 -0.19066736623E+03  0.27705540285E+03  0.90791392328E+02 0.  0.
        -11    1    4    4    0    0  0.28358756673E+02  0.12221642166E+03 -0.17285657702E+03  0.21358948716E+03  0.00000000000E+00 0. -1.
         11    1    4    4    0    0  0.44407944017E+02  0.41696915365E+02 -0.17810789202E+02  0.63465915693E+02  0.00000000000E+00 0.  1.
        -11    1    3    3    0    0 -0.35348948445E+02 -0.42061303720E+02  0.42715254926E+01  0.55108505304E+02  0.00000000000E+00 0. -1.
         11    1    3    3    0    0  0.43072957810E+02 -0.15742433253E+03  0.54103052227E+02  0.17194429455E+03  0.00000000000E+00 0.  1.
         21    1    1    2  502  503 -0.32864186839E+02 -0.16318606404E+02 -0.23306271159E+03  0.23593342117E+03  0.00000000000E+00 0. -1.
         21    1    1    2  503  501 -0.47626523216E+02  0.51890905629E+02 -0.51072944540E+02  0.87002284250E+02  0.00000000000E+00 0. -1.
<scales pt_clust_5="13000.00000" pt_clust_6="13000.00000" pt_clust_7="13000.00000" pt_clust_8="13000.00000" pt_clust_9="36.69267" pt_clust_10="72.52522"></scales>
<clustering>
<clus scale="   36.693">  2  9  1 -1</clus>
<clus scale="   72.525">  2 10  1 -1</clus>
<clus scale="   90.791">  5  6 -1 -1</clus>
<clus scale="   91.056">  7  8 -1 -1</clus>
<clus scale="  211.069">  2  5  1 -1</clus>
<clus scale="   36.693">  2  5  1 -1</clus>
</clustering>
</event>
<event>
10    2  0.1898324E-006  0.1502322E+03  0.7546771E-02  0.1216801E+00
          2   -1    0    0  503    0  0.00000000000E+00  0.00000000000E+00  0.11367221997E+03  0.11367221997E+03  0.00000000000E+00 0. -1.
         -2   -1    0    0    0  501 -0.00000000000E+00 -0.00000000000E+00 -0.75126347277E+03  0.75126347277E+03  0.00000000000E+00 0.  1.
         23    2    1    2    0    0  0.32600053638E+02  0.11508218754E+03 -0.11341824616E+03  0.19022225208E+03  0.94942789292E+02 0.  0.
         23    2    1    2    0    0  0.34071357495E+02 -0.10878212189E+02  0.22466209753E+02  0.10109159555E+03  0.91845452843E+02 0.  0.
        -11    1    3    3    0    0 -0.31482919305E+02  0.18171887639E+02 -0.23177833376E+02  0.43111525934E+02  0.00000000000E+00 0.  1.
         11    1    3    3    0    0  0.64082972943E+02  0.96910299902E+02 -0.90240412782E+02  0.14711072615E+03  0.00000000000E+00 0. -1.
        -11    1    4    4    0    0  0.20592232261E+02  0.39449605739E+02  0.20387474325E+02  0.48948549844E+02  0.00000000000E+00 0. -1.
         11    1    4    4    0    0  0.13479125234E+02 -0.50327817928E+02  0.20787354279E+01  0.52143045705E+02  0.00000000000E+00 0.  1.
         21    1    1    2  502  501 -0.86233362951E+02 -0.81143139817E+02 -0.52003398581E+03  0.53334393070E+03  0.00000000000E+00 0.  1.
         21    1    1    2  503  502  0.19561951818E+02 -0.23060835534E+02 -0.26605230586E+02  0.40277914407E+02  0.00000000000E+00 0.  1.
<scales pt_clust_5="13000.00000" pt_clust_6="13000.00000" pt_clust_7="13000.00000" pt_clust_8="13000.00000" pt_clust_9="116.42838" pt_clust_10="30.24024"></scales>
<clustering>
<clus scale="   30.240">  1 10  2 -1</clus>
<clus scale="   91.845">  7  8 -1 -1</clus>
<clus scale="   94.943">  5  6 -1 -1</clus>
<clus scale="  105.269">  1  7  2 -1</clus>
<clus scale="  116.428">  2  9  1 -1</clus>
<clus scale="   30.240">  1  5  2 -1</clus>
</clustering>
</event>
<event>
10    2  0.1898324E-006  0.2678180E+03  0.7546771E-02  0.1102636E+00
          1   -1    0    0  502    0  0.00000000000E+00  0.00000000000E+00  0.20468547998E+03  0.20468547998E+03  0.00000000000E+00 0. -1.
         -1   -1    0    0    0  501 -0.00000000000E+00 -0.00000000000E+00 -0.61961233444E+03  0.61961233444E+03  0.00000000000E+00 0.  1.
         23    2    1    2    0    0 -0.15054036786E+02 -0.26875088821E+03 -0.28648050368E+03  0.40447628339E+03  0.95269727114E+02 0.  0.
         23    2    1    2    0    0  0.41069723770E+02  0.23154115098E+03 -0.15666999660E+03  0.29881748239E+03  0.97202742464E+02 0.  0.
        -11    1    3    3    0    0  0.28347721792E+02 -0.17562512993E+03 -0.21626232605E+03  0.28003066486E+03  0.00000000000E+00 0. -1.
         11    1    3    3    0    0 -0.43401758579E+02 -0.93125758280E+02 -0.70218177625E+02  0.12444561853E+03  0.00000000000E+00 0.  1.
        -13    1    4    4    0    0  0.52596301243E+02  0.89935439880E+02 -0.29857595990E+02  0.10838002717E+03  0.00000000000E+00 0. -1.
         13    1    4    4    0    0 -0.11526577472E+02  0.14160571110E+03 -0.12681240061E+03  0.19043745522E+03  0.00000000000E+00 0.  1.
         21    1    1    2  502  503 -0.29218540242E+02  0.10195198297E+02  0.66904606718E+02  0.73714934459E+02  0.00000000000E+00 0. -1.
         21    1    1    2  503  501  0.32028532586E+01  0.27014538938E+02 -0.38680960899E+02  0.47289114171E+02  0.00000000000E+00 0. -1.
<scales pt_clust_5="13000.00000" pt_clust_6="13000.00000" pt_clust_7="13000.00000" pt_clust_8="13000.00000" pt_clust_9="30.98126" pt_clust_10="27.20374"></scales>
<clustering>
<clus scale="   27.204">  2 10  1 -1</clus>
<clus scale="   30.981">  1  9  2 -1</clus>
<clus scale="   95.270">  5  6 -1 -1</clus>
<clus scale="   97.203">  7  8 -1 -1</clus>
<clus scale="  267.123">  2  5  1 -1</clus>
<clus scale="   30.981">  1  5  2 -1</clus>
</clustering>
</event>
<event>
10    2  0.1898324E-006  0.9820508E+02  0.7546771E-02  0.1286079E+00
          1   -1    0    0  502    0  0.00000000000E+00  0.00000000000E+00  0.45669199994E+02  0.45669199994E+02  0.00000000000E+00 0. -1.
         -1   -1    0    0    0  501 -0.00000000000E+00 -0.00000000000E+00 -0.41876711530E+03  0.41876711530E+03  0.00000000000E+00 0.  1.
         23    2    1    2    0    0 -0.42772836056E+02  0.26447576858E+02 -0.24150730510E+03  0.26248470931E+03  0.89685307474E+02 0.  0.
         23    2    1    2    0    0  0.33476370628E+01 -0.10604465745E+02 -0.61482182049E+02  0.11241029137E+03  0.93447062707E+02 0.  0.
        -11    1    4    4    0    0 -0.43963293368E+02  0.34533767437E+01 -0.35632085325E+02  0.56695171569E+02  0.00000000000E+00 0.  1.
         11    1    4    4    0    0  0.47310930431E+02 -0.14057842488E+02 -0.25850096724E+02  0.55715119800E+02  0.00000000000E+00 0. -1.
        -13    1    3    3    0    0 -0.50330644095E+02 -0.21133549528E+02 -0.12390824392E+03  0.13539960695E+03  0.00000000000E+00 0.  1.
         13    1    3    3    0    0  0.75578080393E+01  0.47581126386E+02 -0.11759906118E+03  0.12708510236E+03  0.00000000000E+00 0. -1.
         21    1    1    2  502  503  0.18810356422E+02 -0.12124035211E+02 -0.76287977623E+01  0.23643610000E+02  0.00000000000E+00 0.  1.
         21    1    1    2  503  501  0.20614842570E+02 -0.37190759021E+01 -0.62479630395E+02  0.65897704619E+02  0.00000000000E+00 0.  1.
<scales pt_clust_5="13000.00000" pt_clust_6="13000.00000" pt_clust_7="13000.00000" pt_clust_8="13000.00000" pt_clust_9="23.23471" pt_clust_10="20.94763"></scales>
<clustering>
<clus scale="   20.948">  2 10  1 -1</clus>
<clus scale="   23.235">  1  9  2 -1</clus>
<clus scale="   89.685">  7  8 -1 -1</clus>
<clus scale="   93.447">  5  6 -1 -1</clus>
<clus scale="   94.633">  2  7  1 -1</clus>
<clus scale="   23.235">  1  5  2 -1</clus>
</clustering>
</event>
<event>
10    2  0.1898324E-006  0.9628146E+02  0.7546771E-02  0.1289058E+00
          1   -1    0    0  502    0  0.00000000000E+00  0.00000000000E+00  0.10461074096E+03  0.10461074096E+03  0.00000000000E+00 0. -1.
         -1   -1    0    0    0  501 -0.00000000000E+00 -0.00000000000E+00 -0.59250549443E+03  0.59250549443E+03  0.00000000000E+00 0.  1.
         23    2    1    2    0    0 -0.48798319127E+02  0.95003820095E+01 -0.36974946858E+03  0.38398361546E+03  0.90869214927E+02 0.  0.
         23    2    1    2    0    0 -0.54513923987E+01 -0.24482912561E+02  0.13160855793E+02  0.93833367913E+02  0.89455922789E+02 0.  0.
        -11    1    4    4    0    0 -0.25646085773E+02  0.17592762272E+02 -0.19645616380E+02  0.36785557529E+02  0.00000000000E+00 0.  1.
         11    1    4    4    0    0  0.20194693374E+02 -0.42075674832E+02  0.32806472173E+02  0.57047810383E+02  0.00000000000E+00 0. -1.
        -13    1    3    3    0    0 -0.64453563127E+02  0.35048295761E+02 -0.25004899765E+03  0.26058999609E+03  0.00000000000E+00 0. -1.
         13    1    3    3    0    0  0.15655244000E+02 -0.25547913751E+02 -0.11970047093E+03  0.12339361938E+03  0.00000000000E+00 0.  1.
         21    1    1    2  502  503  0.34240221030E+02  0.76619892616E+01  0.36217417743E+02  0.50426185297E+02  0.00000000000E+00 0. -1.
         21    1    1    2  503  501  0.20009490496E+02  0.73205412897E+01 -0.16752355843E+03  0.16887306672E+03  0.00000000000E+00 0.  1.
<scales pt_clust_5="13000.00000" pt_clust_6="13000.00000" pt_clust_7="13000.00000" pt_clust_8="13000.00000" pt_clust_9="35.44076" pt_clust_10="21.30657"></scales>
<clustering>
<clus scale="   21.307">  2 10  1 -1</clus>
<clus scale="   35.441">  1  9  2 -1</clus>
<clus scale="   89.456">  5  6 -1 -1</clus>
<clus scale="   90.869">  7  8 -1 -1</clus>
<clus scale="   94.949">  1  5  2 -1</clus>
<clus scale="   35.441">  1  5  2 -1</clus>
</clustering>
</event>
<event>
10    2  0.1898324E-006  0.9044450E+02  0.7546771E-02  0.1302135E+00
          1   -1    0    0  502    0  0.00000000000E+00  0.00000000000E+00  0.59450483868E+03  0.59450483868E+03  0.00000000000E+00 0. -1.
         -1   -1    0    0    0  501 -0.00000000000E+00 -0.00000000000E+00 -0.55854054821E+02  0.55854054821E+02  0.00000000000E+00 0.  1.
         23    2    1    2    0    0  0.21684181988E+01 -0.89568927980E+01  0.25333192922E+02  0.94343147113E+02  0.90409793592E+02 0.  0.
         23    2    1    2    0    0 -0.26433810939E+01  0.35314897409E+02  0.34111173733E+03  0.35451223615E+03  0.89819701563E+02 0.  0.
        -11    1    4    4    0    0  0.24586015239E+02  0.55114090189E+02  0.17768954841E+03  0.18765822843E+03  0.00000000000E+00 0.  1.
         11    1    4    4    0    0 -0.27229396333E+02 -0.19799192780E+02  0.16342218892E+03  0.16685400772E+03  0.00000000000E+00 0. -1.
        -13    1    3    3    0    0  0.46026059519E+02 -0.90909194236E+01  0.15359414669E+02  0.49365520253E+02  0.00000000000E+00 0.  1.
         13    1    3    3    0    0 -0.43857641320E+02  0.13402662563E+00  0.99737782531E+01  0.44977626860E+02  0.00000000000E+00 0. -1.
         21    1    1    2  502  503  0.17634033799E+01 -0.51781722070E+02  0.16786589289E+03  0.17567986318E+03  0.00000000000E+00 0.  1.
         21    1    1    2  503  501 -0.12884404849E+01  0.25423717460E+02  0.43399607116E+01  0.25823647057E+02  0.00000000000E+00 0.  1.
<scales pt_clust_5="13000.00000" pt_clust_6="13000.00000" pt_clust_7="13000.00000" pt_clust_8="13000.00000" pt_clust_9="49.60739" pt_clust_10="25.45634"></scales>
<clustering>
<clus scale="   25.456">  2 10  1 -1</clus>
<clus scale="   49.607">  1  9  2 -1</clus>
<clus scale="   89.820">  5  6 -1 -1</clus>
<clus scale="   89.855">  1  5  2 -1</clus>
<clus scale="   90.410">  7  8 -1 -1</clus>
<clus scale="   49.607">  1  5  2 -1</clus>
</clustering>
</event>
<event>
10    2  0.1898324E-006  0.1083564E+03  0.7546771E-02  0.1264845E+00
         -1   -1    0    0    0  501 -0.00000000000E+00  0.00000000000E+00  0.98653215960E+02  0.98653215960E+02  0.00000000000E+00 0.  1.
          1   -1    0    0  502    0  0.00000000000E+00 -0.00000000000E+00 -0.36382373848E+03  0.36382373848E+03  0.00000000000E+00 0. -1.
         23    2    1    2    0    0 -0.55958734961E+02  0.49520120161E+02 -0.31551120149E+02  0.12155738416E+03  0.90537849221E+02 0.  0.
         23    2    1    2    0    0  0.23805031434E+01 -0.41447243281E+02 -0.51424118882E+02  0.11446674521E+03  0.93459376124E+02 0.  0.
        -11    1    3    3    0    0  0.11045111312E+02  0.32151914131E+02 -0.39234220109E+02  0.51914006720E+02  0.00000000000E+00 0. -1.
         11    1    3    3    0    0 -0.67003846273E+02  0.17368206030E+02  0.76830999598E+01  0.69643377439E+02  0.00000000000E+00 0.  1.
        -11    1    4    4    0    0 -0.43896676083E+02 -0.21983162262E+02 -0.39128531351E+02  0.62779133157E+02  0.00000000000E+00 0.  1.
         11    1    4    4    0    0  0.46277179227E+02 -0.19464081019E+02 -0.12295587531E+02  0.51687612054E+02  0.00000000000E+00 0. -1.
         21    1    1    2  502  503  0.28277770139E+02 -0.35169598506E+02 -0.18388559901E+03  0.18934214129E+03  0.00000000000E+00 0. -1.
         21    1    1    2  503  501  0.25300461679E+02  0.27096721625E+02  0.16903155267E+01  0.37110683779E+02  0.00000000000E+00 0. -1.
<scales pt_clust_5="13000.00000" pt_clust_6="13000.00000" pt_clust_7="13000.00000" pt_clust_8="13000.00000" pt_clust_9="44.96451" pt_clust_10="37.07217"></scales>
<clustering>
<clus scale="   37.072">  1 10  2 -1</clus>
<clus scale="   44.965">  2  9  1 -1</clus>
<clus scale="   90.538">  5  6 -1 -1</clus>
<clus scale="   93.459">  7  8 -1 -1</clus>
<clus scale="  105.847">  1  5  2 -1</clus>
<clus scale="   44.965">  2  5  1 -1</clus>
</clustering>
</event>
<event>
10    2  0.1898324E-006  0.1240284E+03  0.7546771E-02  0.1237109E+00
          1   -1    0    0  502    0  0.00000000000E+00  0.00000000000E+00  0.15965541121E+03  0.15965541121E+03  0.00000000000E+00 0. -1.
         -1   -1    0    0    0  501 -0.00000000000E+00 -0.00000000000E+00 -0.38846210564E+03  0.38846210564E+03  0.00000000000E+00 0.  1.
         23    2    1    2    0    0 -0.35698870633E+02  0.10458627368E+03 -0.13477507921E+03  0.19361597461E+03  0.84321560945E+02 0.  0.
         23    2    1    2    0    0  0.65091695249E+02 -0.60964550361E+02  0.79623186684E+02  0.14520449309E+03  0.82406842947E+02 0.  0.
        -11    1    4    4    0    0  0.48838000761E+02 -0.81145128033E+02  0.69100853117E+02  0.11723740880E+03  0.00000000000E+00 0.  1.
         11    1    4    4    0    0  0.16253694488E+02  0.20180577672E+02  0.10522333568E+02  0.27967084285E+02  0.00000000000E+00 0. -1.
        -13    1    3    3    0    0 -0.51929020912E+02  0.26589426132E+02 -0.45678093922E+02  0.74095270154E+02  0.00000000000E+00 0.  1.
         13    1    3    3    0    0  0.16230150279E+02  0.77996847545E+02 -0.89096985293E+02  0.11952070445E+03  0.00000000000E+00 0. -1.
         21    1    1    2  502  503 -0.28534596457E+02 -0.17384881587E+02  0.25778899989E+00  0.33414424399E+02  0.00000000000E+00 0.  1.
         21    1    1    2  503  501 -0.85822815932E+00 -0.26236841729E+02 -0.17391259089E+03  0.17588262476E+03  0.00000000000E+00 0.  1.
<scales pt_clust_5="13000.00000" pt_clust_6="13000.00000" pt_clust_7="13000.00000" pt_clust_8="13000.00000" pt_clust_9="34.57205" pt_clust_10="26.25087"></scales>
<clustering>
<clus scale="   26.251">  2 10  1 -1</clus>
<clus scale="   34.572">  1  9  2 -1</clus>
<clus scale="   82.407">  5  6 -1 -1</clus>
<clus scale="   84.322">  7  8 -1 -1</clus>
<clus scale="  122.735">  1  5  2 -1</clus>
<clus scale="   34.572">  1  5  2 -1</clus>
</clustering>
</event>
<event>
10    2  0.1898324E-006  0.1485052E+03  0.7546771E-02  0.1213419E+00
         -1   -1    0    0    0  501 -0.00000000000E+00  0.00000000000E+00  0.87545586873E+03  0.87545586873E+03  0.00000000000E+00 0.  1.
          1   -1    0    0  502    0  0.00000000000E+00 -0.00000000000E+00 -0.81574185358E+02  0.81574185358E+02  0.00000000000E+00 0. -1.
         23    2    1    2    0    0  0.30797456073E+02 -0.93848091386E+02  0.15760634034E+03  0.20630801774E+03  0.89259689174E+02 0.  0.
         23    2    1    2    0    0 -0.52500854397E+02  0.29072322529E+02  0.12944645079E+03  0.17732392927E+03  0.10528937562E+03 0.  0.
        -11    1    4    4    0    0 -0.80144654111E+02  0.76451106404E+01  0.62977044506E+02  0.10221409606E+03  0.00000000000E+00 0.  1.
         11    1    4    4    0    0  0.27643799714E+02  0.21427211889E+02  0.66469406285E+02  0.75109833203E+02  0.00000000000E+00 0. -1.
        -11    1    3    3    0    0 -0.27905141739E+02 -0.14992496445E+02  0.20999920591E+02  0.38006164631E+02  0.00000000000E+00 0.  1.
         11    1    3    3    0    0  0.58702597812E+02 -0.78855594941E+02  0.13660641975E+03  0.16830185311E+03  0.00000000000E+00 0. -1.
         21    1    1    2  502  503  0.15047505668E+02  0.16548076923E+03  0.28997994848E+03  0.33421352895E+03  0.00000000000E+00 0.  1.
         21    1    1    2  503  501  0.66558926554E+01 -0.10070500037E+03  0.21684894376E+03  0.23918457814E+03  0.00000000000E+00 0. -1.
<scales pt_clust_5="13000.00000" pt_clust_6="13000.00000" pt_clust_7="13000.00000" pt_clust_8="13000.00000" pt_clust_9="118.68655" pt_clust_10="100.92471"></scales>
<clustering>
<clus scale="   89.260">  7  8 -1 -1</clus>
<clus scale="  100.925">  1 10  2 -1</clus>
<clus scale="  105.289">  5  6 -1 -1</clus>
<clus scale="  117.074">  2  5  1 -1</clus>
<clus scale="  118.687">  1  9  2 -1</clus>
<clus scale="  117.074">  2  5  1 -1</clus>
</clustering>
</event>
<event>
10    2  0.1898324E-006  0.1102122E+03  0.7546771E-02  0.1260317E+00
          2   -1    0    0  503    0  0.00000000000E+00  0.00000000000E+00  0.59221616243E+03  0.59221616243E+03  0.00000000000E+00 0. -1.
         -2   -1    0    0    0  501 -0.00000000000E+00 -0.00000000000E+00 -0.30088351863E+03  0.30088351863E+03  0.00000000000E+00 0.  1.
         23    2    1    2    0    0  0.91227873214E+02  0.33272621236E+01 -0.17250857071E+03  0.21511254166E+03  0.90446686439E+02 0.  0.
         23    2    1    2    0    0 -0.72288874176E+01 -0.57809118465E+02 -0.63044441359E+02  0.12496278112E+03  0.90812686825E+02 0.  0.
        -11    1    4    4    0    0 -0.16432186514E+02 -0.17186009798E+02  0.20639429059E+02  0.31485897133E+02  0.00000000000E+00 0.  1.
         11    1    4    4    0    0  0.92032990961E+01 -0.40623108667E+02 -0.83683870418E+02  0.93476883988E+02  0.00000000000E+00 0. -1.
        -13    1    3    3    0    0  0.77391676798E+01  0.27010352808E+02 -0.93923889122E+02  0.98036477002E+02  0.00000000000E+00 0. -1.
         13    1    3    3    0    0  0.83488705534E+02 -0.23683090685E+02 -0.78584681589E+02  0.11707606466E+03  0.00000000000E+00 0.  1.
         21    1    1    2  502  501 -0.78734491976E+02  0.74947322837E+02  0.51932690582E+03  0.53058143252E+03  0.00000000000E+00 0. -1.
         21    1    1    2  503  502 -0.52644938197E+01 -0.20465466496E+02  0.75587500389E+01  0.22442925750E+02  0.00000000000E+00 0.  1.
<scales pt_clust_5="13000.00000" pt_clust_6="13000.00000" pt_clust_7="13000.00000" pt_clust_8="13000.00000" pt_clust_9="100.74518" pt_clust_10="21.13173"></scales>
<clustering>
<clus scale="   21.132">  1 10  2 -1</clus>
<clus scale="   90.447">  7  8 -1 -1</clus>
<clus scale="   90.813">  5  6 -1 -1</clus>
<clus scale="  100.745">  1  9  2 -1</clus>
<clus scale="  109.911">  2  7  1 -1</clus>
<clus scale="   21.132">  1  5  2 -1</clus>
</clustering>
</event>
<event>
10    2  0.1898324E-006  0.9402724E+02  0.7546771E-02  0.1294974E+00
          1   -1    0    0  502    0  0.00000000000E+00  0.00000000000E+00  0.17905361652E+03  0.17905361652E+03  0.00000000000E+00 0. -1.
         -1   -1    0    0    0  501 -0.00000000000E+00 -0.00000000000E+00 -0.38351449826E+03  0.38351449826E+03  0.00000000000E+00 0.  1.
         23    2    1    2    0    0 -0.64987842263E+01 -0.91753986910E+01 -0.26209931400E+03  0.27774646125E+03  0.91217455570E+02 0.  0.
         23    2    1    2    0    0 -0.20144980241E+02 -0.48049411426E+02 -0.45923564362E+02  0.11240860932E+03  0.88386398944E+02 0.  0.
        -13    1    4    4    0    0 -0.35505382187E+02 -0.34032630734E+02 -0.66793650130E+02  0.82947235135E+02  0.00000000000E+00 0.  1.
         13    1    4    4    0    0  0.15360401946E+02 -0.14016780691E+02  0.20870085768E+02  0.29461374185E+02  0.00000000000E+00 0. -1.
        -13    1    3    3    0    0  0.34097376442E+02 -0.26478063232E+02 -0.17316644789E+03  0.17846662878E+03  0.00000000000E+00 0. -1.
         13    1    3    3    0    0 -0.40596160668E+02  0.17302664541E+02 -0.88932866108E+02  0.99279832471E+02  0.00000000000E+00 0.  1.
         21    1    1    2  502  503  0.81059916476E+00  0.36530481398E+02  0.12680690148E+03  0.13196637225E+03  0.00000000000E+00 0. -1.
         21    1    1    2  503  501  0.25833165303E+02  0.20694328719E+02 -0.23244904858E+02  0.40446671959E+02  0.00000000000E+00 0. -1.
<scales pt_clust_5="13000.00000" pt_clust_6="13000.00000" pt_clust_7="13000.00000" pt_clust_8="13000.00000" pt_clust_9="36.69592" pt_clust_10="33.09996"></scales>
<clustering>
<clus scale="   33.100">  2 10  1 -1</clus>
<clus scale="   36.696">  1  9  2 -1</clus>
<clus scale="   88.386">  5  6 -1 -1</clus>
<clus scale="   91.217">  7  8 -1 -1</clus>
<clus scale="   91.283">  1  5  2 -1</clus>
<clus scale="   36.696">  1  5  2 -1</clus>
</clustering>
</event>
<event>
10    2  0.1898324E-006  0.4523494E+03  0.7546771E-02  0.1027126E+00
          1   -1    0    0  502    0  0.00000000000E+00  0.00000000000E+00  0.11065698531E+03  0.11065698531E+03  0.00000000000E+00 0. -1.
         -1   -1    0    0    0  501 -0.00000000000E+00 -0.00000000000E+00 -0.23943027774E+04  0.23943027774E+04  0.00000000000E+00 0.  1.
         23    2    1    2    0    0  0.16490127591E+03  0.37486436716E+03 -0.13102758960E+04  0.13757970323E+04  0.90988054037E+02 0.  0.
         23    2    1    2    0    0 -0.20206576508E+03 -0.42959686017E+03 -0.78622534886E+03  0.92226095506E+03  0.83850666975E+02 0.  0.
        -11    1    4    4    0    0 -0.47856526001E+02 -0.38126342967E+02 -0.10788388452E+03  0.12402740684E+03  0.00000000000E+00 0.  1.
         11    1    4    4    0    0 -0.15420923908E+03 -0.39147051720E+03 -0.67834146434E+03  0.79823354822E+03  0.00000000000E+00 0. -1.
        -13    1    3    3    0    0  0.17155190082E+03  0.35078803331E+03 -0.12672255492E+04  0.13260252228E+04  0.00000000000E+00 0.  1.
         13    1    3    3    0    0 -0.66506249141E+01  0.24076333853E+02 -0.43050346804E+02  0.49771809526E+02  0.00000000000E+00 0. -1.
         21    1    1    2  502  503  0.35847429419E+02  0.11551898218E+02 -0.46879169214E+02  0.60134358354E+02  0.00000000000E+00 0.  1.
         21    1    1    2  503  501  0.13170597557E+01  0.43180594793E+02 -0.14026537797E+03  0.14676741692E+03  0.00000000000E+00 0. -1.
<scales pt_clust_5="13000.00000" pt_clust_6="13000.00000" pt_clust_7="13000.00000" pt_clust_8="13000.00000" pt_clust_9="37.66277" pt_clust_10="43.60977"></scales>
<clustering>
<clus scale="   37.663">  1  9  2 -1</clus>
<clus scale="   43.610">  2 10  1 -1</clus>
<clus scale="   83.851">  5  6 -1 -1</clus>
<clus scale="   90.988">  7  8 -1 -1</clus>
<clus scale="  450.968">  1  5  2 -1</clus>
<clus scale="   37.663">  1  5  2 -1</clus>
</clustering>
</event>
<event>
10    2  0.1898324E-006  0.1532550E+03  0.7546771E-02  0.1196544E+00
          1   -1    0    0  502    0  0.00000000000E+00  0.00000000000E+00  0.58752024211E+03  0.58752024211E+03  0.00000000000E+00 0. -1.
         -1   -1    0    0    0  501 -0.00000000000E+00 -0.00000000000E+00 -0.74111661237E+02  0.74111661237E+02  0.00000000000E+00 0.  1.
         23    2    1    2    0    0  0.13617387202E+03 -0.71219704982E+02  0.16423163427E+03  0.24247157953E+03  0.90580723035E+02 0.  0.
         23    2    1    2    0    0 -0.80369998629E+02  0.65950391644E+02  0.29419346743E+03  0.32488273701E+03  0.90499755196E+02 0.  0.
        -13    1    3    3    0    0  0.12517340211E+03 -0.47137718048E+02  0.83903427900E+02  0.15789278094E+03  0.00000000000E+00 0.  1.
         13    1    3    3    0    0  0.11000469914E+02 -0.24081986933E+02  0.80328206371E+02  0.84578798595E+02  0.00000000000E+00 0. -1.
        -13    1    4    4    0    0 -0.14477421602E+01  0.44025912361E+02  0.17359970479E+03  0.17910118487E+03  0.00000000000E+00 0.  1.
         13    1    4    4    0    0 -0.78922256468E+02  0.21924479282E+02  0.12059376263E+03  0.14578155214E+03  0.00000000000E+00 0. -1.
         21    1    1    2  502  503 -0.23354474294E+02 -0.93055797951E+01  0.52987899833E+02  0.58649320657E+02  0.00000000000E+00 0.  1.
         21    1    1    2  503  501 -0.32449399101E+02  0.14574893133E+02  0.19955793382E+01  0.35628266149E+02  0.00000000000E+00 0. -1.
<scales pt_clust_5="13000.00000" pt_clust_6="13000.00000" pt_clust_7="13000.00000" pt_clust_8="13000.00000" pt_clust_9="25.14011" pt_clust_10="36.19683"></scales>
<clustering>
<clus scale="   25.140">  1  9  2 -1</clus>
<clus scale="   36.197">  2 10  1 -1</clus>
<clus scale="   90.500">  7  8 -1 -1</clus>
<clus scale="   90.581">  5  6 -1 -1</clus>
<clus scale="  153.207">  1  7  2 -1</clus>
<clus scale="   25.140">  1  5  2 -1</clus>
</clustering>
</event>
<event>
10    2  0.1898324E-006  0.1656506E+03  0.7546771E-02  0.1184112E+00
          1   -1    0    0  502    0  0.00000000000E+00  0.00000000000E+00  0.11286142352E+04  0.11286142352E+04  0.00000000000E+00 0. -1.
         -1   -1    0    0    0  501 -0.00000000000E+00 -0.00000000000E+00 -0.52834149387E+02  0.52834149387E+02  0.00000000000E+00 0.  1.
         23    2    1    2    0    0  0.45057482227E+02  0.15915398821E+03  0.36033673469E+03  0.40707253325E+03  0.92224271710E+02 0.  0.
         23    2    1    2    0    0  0.15968505319E+02 -0.11632121090E+03  0.58699043838E+03  0.60406608598E+03  0.80947169254E+02 0.  0.
        -11    1    3    3    0    0  0.67091738628E+01  0.45388693333E+02  0.28083009710E+02  0.53794069662E+02  0.00000000000E+00 0.  1.
         11    1    3    3    0    0  0.38348308364E+02  0.11376529488E+03  0.33225372498E+03  0.35327846359E+03  0.00000000000E+00 0. -1.
        -11    1    4    4    0    0 -0.24661539732E+02 -0.89104141612E+02  0.42038890349E+03  0.43043532589E+03  0.00000000000E+00 0.  1.
         11    1    4    4    0    0  0.40630045051E+02 -0.27217069290E+02  0.16660153489E+03  0.17363076009E+03  0.00000000000E+00 0. -1.
         21    1    1    2  502  503 -0.32431561161E+02 -0.22107049778E+02  0.12915491745E+03  0.13498711239E+03  0.00000000000E+00 0. -1.
         21    1    1    2  503  501 -0.28594426385E+02 -0.20725727531E+02 -0.70200471218E+00  0.35322652966E+02  0.00000000000E+00 0.  1.
<scales pt_clust_5="13000.00000" pt_clust_6="13000.00000" pt_clust_7="13000.00000" pt_clust_8="13000.00000" pt_clust_9="42.20587" pt_clust_10="35.31568"></scales>
<clustering>
<clus scale="   35.316">  2 10  1 -1</clus>
<clus scale="   42.206">  1  9  2 -1</clus>
<clus scale="   80.947">  7  8 -1 -1</clus>
<clus scale="   92.224">  5  6 -1 -1</clus>
<clus scale="  159.647">  1  7  2 -1</clus>
<clus scale="   42.206">  1  5  2 -1</clus>
</clustering>
</event>
<event>
10    2  0.1898324E-006  0.1361163E+03  0.7546771E-02  0.1222111E+00
          1   -1    0    0  502    0  0.00000000000E+00  0.00000000000E+00  0.34627838773E+03  0.34627838773E+03  0.00000000000E+00 0. -1.
         -1   -1    0    0    0  501 -0.00000000000E+00 -0.00000000000E+00 -0.16393476057E+03  0.16393476057E+03  0.00000000000E+00 0.  1.
         23    2    1    2    0    0  0.10492074872E+02  0.10966233130E+03  0.18617885367E+02  0.13696343663E+03  0.79224029049E+02 0.  0.
         23    2    1    2    0    0 -0.23923595260E+02 -0.78738498926E+02  0.68913929766E+02  0.14248021339E+03  0.93698409110E+02 0.  0.
        -13    1    3    3    0    0  0.20321257246E+02  0.63339833975E+02 -0.26455543608E+02  0.71587595655E+02  0.00000000000E+00 0.  1.
         13    1    3    3    0    0 -0.98291823736E+01  0.46322497322E+02  0.45073428975E+02  0.65375840980E+02  0.00000000000E+00 0. -1.
        -13    1    4    4    0    0  0.28608583526E+02 -0.11585869692E+02 -0.29070271514E+01  0.31002165001E+02  0.00000000000E+00 0.  1.
         13    1    4    4    0    0 -0.52532178786E+02 -0.67152629234E+02  0.71820956917E+02  0.11147804839E+03  0.00000000000E+00 0. -1.
         21    1    1    2  502  503 -0.43136631547E+02 -0.33082153124E+02  0.14516275811E+03  0.15500781974E+03  0.00000000000E+00 0. -1.
         21    1    1    2  503  501  0.56568151935E+02  0.21583207531E+01 -0.50350946085E+02  0.75761678528E+02  0.00000000000E+00 0.  1.
<scales pt_clust_5="13000.00000" pt_clust_6="13000.00000" pt_clust_7="13000.00000" pt_clust_8="13000.00000" pt_clust_9="54.36173" pt_clust_10="53.77465"></scales>
<clustering>
<clus scale="   54.362">  1  9  2 -1</clus>
<clus scale="   53.775">  2 10  1 -1</clus>
<clus scale="   79.224">  5  6 -1 -1</clus>
<clus scale="   93.698">  7  8 -1 -1</clus>
<clus scale="  126.589">  2  5  1 -1</clus>
<clus scale="   54.362">  1  5  2 -1</clus>
</clustering>
</event>
<event>
10    2  0.1898324E-006  0.1012410E+03  0.7546771E-02  0.1277891E+00
          1   -1    0    0  502    0  0.00000000000E+00  0.00000000000E+00  0.18456855290E+03  0.18456855290E+03  0.00000000000E+00 0. -1.
         -1   -1    0    0    0  501 -0.00000000000E+00 -0.00000000000E+00 -0.54603250343E+03  0.54603250343E+03  0.00000000000E+00 0.  1.
         23    2    1    2    0    0 -0.55759985577E+02  0.74577017491E+02 -0.16364783959E+03  0.20924233344E+03  0.91273386989E+02 0.  0.
         23    2    1    2    0    0  0.48376444317E+01  0.58163525704E+01 -0.79101752925E+02  0.12072205277E+03  0.90881758063E+02 0.  0.
        -13    1    3    3    0    0  0.25474188579E+02  0.21317843082E+02 -0.43890889771E+02  0.55043572943E+02  0.00000000000E+00 0. -1.
         13    1    3    3    0    0 -0.81234174156E+02  0.53259174409E+02 -0.11975694982E+03  0.15419876050E+03  0.00000000000E+00 0.  1.
        -13    1    4    4    0    0  0.35125539367E+01 -0.37224582354E+02 -0.90111886440E+01  0.38460487352E+02  0.00000000000E+00 0.  1.
         13    1    4    4    0    0  0.13250904950E+01  0.43040934924E+02 -0.70090564281E+02  0.82261565419E+02  0.00000000000E+00 0. -1.
         21    1    1    2  502  503  0.20752764046E+02 -0.81399044136E+02  0.12744182989E+03  0.15263650155E+03  0.00000000000E+00 0. -1.
         21    1    1    2  503  501  0.30169577099E+02  0.10056740747E+01 -0.24615618791E+03  0.24800016856E+03  0.00000000000E+00 0.  1.
<scales pt_clust_5="13000.00000" pt_clust_6="13000.00000" pt_clust_7="13000.00000" pt_clust_8="13000.00000" pt_clust_9="84.28503" pt_clust_10="30.18633"></scales>
<clustering>
<clus scale="   30.186">  2 10  1 -1</clus>
<clus scale="   84.285">  1  9  2 -1</clus>
<clus scale="   90.882">  7  8 -1 -1</clus>
<clus scale="   91.273">  5  6 -1 -1</clus>
<clus scale="  100.888">  1  7  2 -1</clus>
<clus scale="   84.285">  1  5  2 -1</clus>
</clustering>
</event>
<event>
10    2  0.1898324E-006  0.2389231E+03  0.7546771E-02  0.1120520E+00
         -3   -1    0    0    0  501 -0.00000000000E+00  0.00000000000E+00  0.12422550164E+03  0.12422550164E+03  0.00000000000E+00 0.  1.
          3   -1    0    0  502    0  0.00000000000E+00 -0.00000000000E+00 -0.72595666663E+03  0.72595666663E+03  0.00000000000E+00 0. -1.
         23    2    1    2    0    0  0.27210870277E+02 -0.22093501266E+03 -0.13143997819E+03  0.27399605795E+03  0.90800113575E+02 0.  0.
         23    2    1    2    0    0 -0.58935234412E+02  0.22225519480E+03 -0.39679332948E+03  0.46752868742E+03  0.90925209784E+02 0.  0.
        -11    1    3    3    0    0  0.51863315547E+02 -0.20324489494E+03 -0.11933472086E+03  0.24132771581E+03  0.00000000000E+00 0.  1.
         11    1    3    3    0    0 -0.24652445271E+02 -0.17690117724E+02 -0.12105257330E+02  0.32668342136E+02  0.00000000000E+00 0. -1.
        -11    1    4    4    0    0 -0.29459619829E+02  0.11539570258E+03 -0.11866126605E+03  0.16812059195E+03  0.00000000000E+00 0.  1.
         11    1    4    4    0    0 -0.29475614583E+02  0.10685949222E+03 -0.27813206343E+03  0.29940809548E+03  0.00000000000E+00 0. -1.
         21    1    1    2  502  503  0.52783172315E+02 -0.89020055364E+01 -0.66161253597E+02  0.85103586644E+02  0.00000000000E+00 0.  1.
         21    1    1    2  503  501 -0.21058808179E+02  0.75818233970E+01 -0.73366037215E+01  0.23553836251E+02  0.00000000000E+00 0.  1.
<scales pt_clust_5="13000.00000" pt_clust_6="13000.00000" pt_clust_7="13000.00000" pt_clust_8="13000.00000" pt_clust_9="51.73299" pt_clust_10="22.38208"></scales>
<clustering>
<clus scale="   22.382">  1 10  2 -1</clus>
<clus scale="   51.733">  2  9  1 -1</clus>
<clus scale="   90.800">  5  6 -1 -1</clus>
<clus scale="   90.925">  7  8 -1 -1</clus>
<clus scale="  238.876">  1  5  2 -1</clus>
<clus scale="   51.733">  2  5  1 -1</clus>
</clustering>
</event>
<event>
10    2  0.1898324E-006  0.1208306E+03  0.7546771E-02  0.1246609E+00
         -2   -1    0    0    0  501 -0.00000000000E+00  0.00000000000E+00  0.68578204383E+02  0.68578204383E+02  0.00000000000E+00 0.  1.
          2   -1    0    0  502    0  0.00000000000E+00 -0.00000000000E+00 -0.32856858248E+03  0.32856858248E+03  0.00000000000E+00 0. -1.
         23    2    1    2    0    0 -0.37725768839E+02 -0.34337972001E+02 -0.54713432689E+02  0.13023519638E+03  0.10660823938E+03 0.  0.
         23    2    1    2    0    0  0.34831475262E+02  0.59846509562E+02 -0.14582626921E+03  0.18659673431E+03  0.93585277094E+02 0.  0.
        -11    1    4    4    0    0  0.62760917461E+02  0.30254135856E+02 -0.61360389246E+02  0.92840416120E+02  0.00000000000E+00 0. -1.
         11    1    4    4    0    0 -0.27929442198E+02  0.29592373705E+02 -0.84465879962E+02  0.93756318191E+02  0.00000000000E+00 0.  1.
        -13    1    3    3    0    0 -0.63087079262E+02 -0.56342185792E+02 -0.40356741672E+02  0.93718130946E+02  0.00000000000E+00 0.  1.
         13    1    3    3    0    0  0.25361310422E+02  0.22004213791E+02 -0.14356691017E+02  0.36517065434E+02  0.00000000000E+00 0. -1.
         21    1    1    2  502  503  0.24046850924E+02 -0.75826392642E+01 -0.36278945396E+02  0.44180418022E+02  0.00000000000E+00 0.  1.
         21    1    1    2  503  501 -0.21152557347E+02 -0.17925898297E+02 -0.23171730808E+02  0.36134438154E+02  0.00000000000E+00 0.  1.
<scales pt_clust_5="13000.00000" pt_clust_6="13000.00000" pt_clust_7="13000.00000" pt_clust_8="13000.00000" pt_clust_9="25.21403" pt_clust_10="26.43538"></scales>
<clustering>
<clus scale="   25.214">  2  9  1 -1</clus>
<clus scale="   26.435">  2 10  1 -1</clus>
<clus scale="   93.585">  5  6 -1 -1</clus>
<clus scale="  106.608">  7  8 -1 -1</clus>
<clus scale="  109.512">  2  5  1 -1</clus>
<clus scale="   25.214">  2  5  1 -1</clus>
</clustering>
</event>
<event>
10    2  0.1898324E-006  0.1342492E+03  0.7546771E-02  0.1222465E+00
          2   -1    0    0  502    0  0.00000000000E+00  0.00000000000E+00  0.72633010590E+03  0.72633010590E+03  0.00000000000E+00 0. -1.
         -2   -1    0    0    0  501 -0.00000000000E+00 -0.00000000000E+00 -0.12638267282E+03  0.12638267282E+03  0.00000000000E+00 0.  1.
         23    2    1    2    0    0 -0.11501924677E+03 -0.58211751678E+02 -0.24498515051E+02  0.15857352666E+03  0.89035672390E+02 0.  0.
         23    2    1    2    0    0  0.85025280787E+02  0.34747109220E+02  0.53803398370E+03  0.55381769558E+03  0.93791323437E+02 0.  0.
        -11    1    4    4    0    0  0.53963392345E+02 -0.25772872507E+02  0.18967907290E+03  0.19888297908E+03  0.00000000000E+00 0.  1.
         11    1    4    4    0    0  0.31061888443E+02  0.60519981727E+02  0.34835491079E+03  0.35493471650E+03  0.00000000000E+00 0. -1.
        -11    1    3    3    0    0 -0.11051435299E+03 -0.26307370768E+02  0.65986714799E+01  0.11379385941E+03  0.00000000000E+00 0.  1.
         11    1    3    3    0    0 -0.45048937771E+01 -0.31904380910E+02 -0.31097186531E+02  0.44779667253E+02  0.00000000000E+00 0. -1.
         21    1    1    2  502  503  0.90909018094E+01 -0.31436333302E+02  0.73094113194E+02  0.80085185464E+02  0.00000000000E+00 0. -1.
         21    1    1    2  503  501  0.20903064174E+02  0.54900975760E+02  0.13317851243E+02  0.60236371014E+02  0.00000000000E+00 0. -1.
<scales pt_clust_5="13000.00000" pt_clust_6="13000.00000" pt_clust_7="13000.00000" pt_clust_8="13000.00000" pt_clust_9="32.72442" pt_clust_10="57.27668"></scales>
<clustering>
<clus scale="   32.724">  1  9  2 -1</clus>
<clus scale="   57.277">  2 10  1 -1</clus>
<clus scale="   89.036">  7  8 -1 -1</clus>
<clus scale="   93.791">  5  6 -1 -1</clus>
<clus scale="  130.971">  2  7  1 -1</clus>
<clus scale="   32.724">  1  5  2 -1</clus>
</clustering>
</event>
<event>
10    2  0.1898324E-006  0.1115137E+03  0.7546771E-02  0.1262394E+00
         -1   -1    0    0    0  501 -0.00000000000E+00  0.00000000000E+00  0.17022703225E+03  0.17022703225E+03  0.00000000000E+00 0.  1.
          1   -1    0    0  502    0  0.00000000000E+00 -0.00000000000E+00 -0.53981479974E+03  0.53981479974E+03  0.00000000000E+00 0. -1.
         23    2    1    2    0    0 -0.92264685088E+01 -0.54434060933E+02  0.10174728799E+03  0.14038268384E+03  0.79414057936E+02 0.  0.
         23    2    1    2    0    0 -0.15966042425E+02  0.14510468895E+02 -0.15392095922E+03  0.18033644415E+03  0.91455471048E+02 0.  0.
        -11    1    3    3    0    0  0.85771825522E+00  0.20569682294E+02  0.27615600311E+02  0.34445157727E+02  0.00000000000E+00 0. -1.
         11    1    3    3    0    0 -0.10084186764E+02 -0.75003743227E+02  0.74131687676E+02  0.10593752611E+03  0.00000000000E+00 0.  1.
        -13    1    4    4    0    0 -0.22442672655E+02 -0.36332910691E+02 -0.68932940303E+02  0.81089482758E+02  0.00000000000E+00 0.  1.
         13    1    4    4    0    0  0.64766302303E+01  0.50843379586E+02 -0.84988018914E+02  0.99246961393E+02  0.00000000000E+00 0. -1.
         21    1    1    2  502  503 -0.17846048199E+02  0.57254483243E+02 -0.33453477185E+03  0.33986772554E+03  0.00000000000E+00 0. -1.
         21    1    1    2  503  501  0.43038559133E+02 -0.17330891206E+02  0.17120675580E+02  0.49454978461E+02  0.00000000000E+00 0.  1.
<scales pt_clust_5="13000.00000" pt_clust_6="13000.00000" pt_clust_7="13000.00000" pt_clust_8="13000.00000" pt_clust_9="59.40386" pt_clust_10="46.39695"></scales>
<clustering>
<clus scale="   46.397">  1 10  2 -1</clus>
<clus scale="   59.404">  2  9  1 -1</clus>
<clus scale="   79.414">  5  6 -1 -1</clus>
<clus scale="   91.455">  7  8 -1 -1</clus>
<clus scale="  101.871">  1  5  2 -1</clus>
<clus scale="   59.404">  2  5  1 -1</clus>
</clustering>
</event>
<event>
10    2  0.1898324E-006  0.1165021E+03  0.7546771E-02  0.1257198E+00
          1   -1    0    0  502    0  0.00000000000E+00  0.00000000000E+00  0.70762717906E+02  0.70762717906E+02  0.00000000000E+00 0. -1.
         -1   -1    0    0    0  501 -0.00000000000E+00 -0.00000000000E+00 -0.79887137089E+03  0.79887137089E+03  0.00000000000E+00 0.  1.
         23    2    1    2    0    0 -0.31911271408E+02 -0.52500728082E+02 -0.31699725778E+03  0.33583324179E+03  0.92314945468E+02 0.  0.
         23    2    1    2    0    0 -0.51959047052E+02  0.13545276033E+02 -0.30953572047E+03  0.33316623386E+03  0.11092411850E+03 0.  0.
        -11    1    3    3    0    0  0.31579314861E+02 -0.10468538594E+02 -0.72833733611E+02  0.80072443319E+02  0.00000000000E+00 0. -1.
         11    1    3    3    0    0 -0.63490586269E+02 -0.42032189488E+02 -0.24416352417E+03  0.25576079847E+03  0.00000000000E+00 0.  1.
        -13    1    4    4    0    0 -0.20781877612E+02  0.62127624524E+02 -0.16438235261E+03  0.17695560465E+03  0.00000000000E+00 0. -1.
         13    1    4    4    0    0 -0.31177169440E+02 -0.48582348491E+02 -0.14515336785E+03  0.15621062921E+03  0.00000000000E+00 0.  1.
         21    1    1    2  502  503  0.19237461897E+02  0.28568128957E+02  0.35047546347E+02  0.49138054879E+02  0.00000000000E+00 0. -1.
         21    1    1    2  503  501  0.64632856563E+02  0.10387323092E+02 -0.13662322109E+03  0.15149655827E+03  0.00000000000E+00 0. -1.
<scales pt_clust_5="13000.00000" pt_clust_6="13000.00000" pt_clust_7="13000.00000" pt_clust_8="13000.00000" pt_clust_9="34.44151" pt_clust_10="71.86164"></scales>
<clustering>
<clus scale="   34.442">  1  9  2 -1</clus>
<clus scale="   71.862">  1 10  2 -1</clus>
<clus scale="   92.315">  5  6 -1 -1</clus>
<clus scale="   98.948">  2  5  1 -1</clus>
<clus scale="  110.924">  7  8 -1 -1</clus>
<clus scale="   34.442">  1  5  2 -1</clus>
</clustering>
</event>
<event>
10    2  0.1898324E-006  0.1191250E+03  0.7546771E-02  0.1244699E+00
         -1   -1    0    0    0  501 -0.00000000000E+00  0.00000000000E+00  0.77581862239E+02  0.77581862239E+02  0.00000000000E+00 0.  1.
          1   -1    0    0  502    0  0.00000000000E+00 -0.00000000000E+00 -0.52068716657E+03  0.52068716657E+03  0.00000000000E+00 0. -1.
         23    2    1    2    0    0 -0.42480930826E+02  0.95874576624E+02 -0.45172037666E+02  0.14626900624E+03  0.91419610984E+02 0.  0.
         23    2    1    2    0    0  0.21810822790E+02 -0.37061782050E+02 -0.25497144172E+03  0.27410001267E+03  0.90945550588E+02 0.  0.
        -11    1    3    3    0    0  0.25600054538E+02  0.19200405605E+02 -0.27554942528E+02  0.42229056649E+02  0.00000000000E+00 0. -1.
         11    1    3    3    0    0 -0.68080985364E+02  0.76674171019E+02 -0.17617095138E+02  0.10403994959E+03  0.00000000000E+00 0.  1.
        -13    1    4    4    0    0  0.36387659120E+02 -0.56644079460E+02 -0.22794980353E+03  0.23768408951E+03  0.00000000000E+00 0. -1.
         13    1    4    4    0    0 -0.14576836331E+02  0.19582297410E+02 -0.27021638187E+02  0.36415923159E+02  0.00000000000E+00 0.  1.
         21    1    1    2  502  503  0.17819612448E+02 -0.34029341962E+02 -0.14760792833E+03  0.15252421188E+03  0.00000000000E+00 0. -1.
         21    1    1    2  503  501  0.28504955884E+01 -0.24783452611E+02  0.46461033932E+01  0.25375798020E+02  0.00000000000E+00 0. -1.
<scales pt_clust_5="13000.00000" pt_clust_6="13000.00000" pt_clust_7="13000.00000" pt_clust_8="13000.00000" pt_clust_9="39.32875" pt_clust_10="24.94684"></scales>
<clustering>
<clus scale="   24.947">  1 10  2 -1</clus>
<clus scale="   39.329">  2  9  1 -1</clus>
<clus scale="   90.946">  7  8 -1 -1</clus>
<clus scale="   91.420">  5  6 -1 -1</clus>
<clus scale="  118.762">  2  7  1 -1</clus>
<clus scale="   39.329">  2  5  1 -1</clus>
</clustering>
</event>
<event>
10    2  0.1898324E-006  0.2209932E+03  0.7546771E-02  0.1133248E+00
          1   -1    0    0  502    0  0.00000000000E+00  0.00000000000E+00  0.87948377626E+03  0.87948377626E+03  0.00000000000E+00 0. -1.
         -1   -1    0    0    0  501 -0.00000000000E+00 -0.00000000000E+00 -0.96865941331E+02  0.96865941331E+02  0.00000000000E+00 0.  1.
         23    2    1    2    0    0  0.19876269674E+03  0.43723226343E+02  0.24173146489E+03  0.32900534268E+03  0.91608319811E+02 0.  0.
         23    2    1    2    0    0 -0.18914954891E+03 -0.43922863050E+02  0.33664962181E+03  0.39959580620E+03  0.92935841933E+02 0.  0.
        -13    1    4    4    0    0 -0.11962545317E+03 -0.72749518887E+02  0.21793886987E+03  0.25903685557E+03  0.00000000000E+00 0. -1.
         13    1    4    4    0    0 -0.69524095740E+02  0.28826655837E+02  0.11871075195E+03  0.14055895063E+03  0.00000000000E+00 0.  1.
        -13    1    3    3    0    0  0.13602698211E+03  0.30081483819E+02  0.94375209022E+02  0.16827036462E+03  0.00000000000E+00 0.  1.
         13    1    3    3    0    0  0.62735714622E+02  0.13641742524E+02  0.14735625587E+03  0.16073497806E+03  0.00000000000E+00 0. -1.
         21    1    1    2  502  503 -0.14818308113E+02 -0.24214967587E+02  0.21759276660E+03  0.21943691345E+03  0.00000000000E+00 0.  1.
         21    1    1    2  503  501  0.52051602840E+01  0.24414604294E+02 -0.13356018373E+02  0.28311655253E+02  0.00000000000E+00 0. -1.
<scales pt_clust_5="13000.00000" pt_clust_6="13000.00000" pt_clust_7="13000.00000" pt_clust_8="13000.00000" pt_clust_9="28.10388" pt_clust_10="24.96330"></scales>
<clustering>
<clus scale="   24.963">  2 10  1 -1</clus>
<clus scale="   28.104">  1  9  2 -1</clus>
<clus scale="   91.608">  7  8 -1 -1</clus>
<clus scale="   92.936">  5  6 -1 -1</clus>
<clus scale="  220.438">  2  7  1 -1</clus>
<clus scale="   28.104">  1  5  2 -1</clus>
</clustering>
</event>
<event>
10    2  0.1898324E-006  0.1166028E+03  0.7546771E-02  0.1250727E+00
         -1   -1    0    0    0  501 -0.00000000000E+00  0.00000000000E+00  0.22841957303E+03  0.22841957303E+03  0.00000000000E+00 0.  1.
          1   -1    0    0  502    0  0.00000000000E+00 -0.00000000000E+00 -0.18082776623E+03  0.18082776623E+03  0.00000000000E+00 0. -1.
         23    2    1    2    0    0  0.67744159525E+02 -0.25171798660E+02  0.11444558245E+03  0.16007240436E+03  0.85454623626E+02 0.  0.
         23    2    1    2    0    0 -0.53548375753E+02  0.15609511242E+02 -0.37357062499E+02  0.11319274787E+03  0.91137054293E+02 0.  0.
        -11    1    4    4    0    0  0.12265050080E+02  0.18717536359E+02  0.16736998609E+02  0.27944672896E+02  0.00000000000E+00 0.  1.
         11    1    4    4    0    0 -0.65813425832E+02 -0.31080251173E+01 -0.54094061108E+02  0.85248074976E+02  0.00000000000E+00 0. -1.
        -11    1    3    3    0    0  0.57428454366E+02  0.91715581906E+01  0.24249351141E+02  0.63009331700E+02  0.00000000000E+00 0. -1.
         11    1    3    3    0    0  0.10315705159E+02 -0.34343356850E+02  0.90196231309E+02  0.97063072664E+02  0.00000000000E+00 0.  1.
         21    1    1    2  502  503 -0.30928384496E+02 -0.15552183121E+02 -0.74296628517E+02  0.81965995244E+02  0.00000000000E+00 0. -1.
         21    1    1    2  503  501  0.16732600724E+02  0.25114470539E+02  0.44799915362E+02  0.54016191775E+02  0.00000000000E+00 0.  1.
<scales pt_clust_5="13000.00000" pt_clust_6="13000.00000" pt_clust_7="13000.00000" pt_clust_8="13000.00000" pt_clust_9="34.05801" pt_clust_10="30.17808"></scales>
<clustering>
<clus scale="   30.178">  1 10  2 -1</clus>
<clus scale="   34.058">  2  9  1 -1</clus>
<clus scale="   85.455">  7  8 -1 -1</clus>
<clus scale="   91.137">  5  6 -1 -1</clus>
<clus scale="  112.217">  1  7  2 -1</clus>
<clus scale="   34.058">  2  5  1 -1</clus>
</clustering>
</event>
<event>
10    2  0.1898324E-006  0.1793109E+03  0.7546771E-02  0.1168476E+00
         -2   -1    0    0    0  501 -0.00000000000E+00  0.00000000000E+00  0.30518323801E+03  0.30518323801E+03  0.00000000000E+00 0.  1.
          2   -1    0    0  502    0  0.00000000000E+00 -0.00000000000E+00 -0.42243768728E+03  0.42243768728E+03  0.00000000000E+00 0. -1.
         23    2    1    2    0    0 -0.73859850137E+02 -0.13285047271E+03  0.21406572984E+02  0.17810105628E+03  0.90317325686E+02 0.  0.
         23    2    1    2    0    0  0.17616426651E+01  0.17375137773E+03 -0.17781605703E+03  0.26452837398E+03  0.90355220407E+02 0.  0.
        -11    1    4    4    0    0  0.10741601720E+02  0.13902499285E+03 -0.80947312827E+02  0.16123212489E+03  0.00000000000E+00 0.  1.
         11    1    4    4    0    0 -0.89799590548E+01  0.34726384881E+02 -0.96868744204E+02  0.10329624909E+03  0.00000000000E+00 0. -1.
        -11    1    3    3    0    0 -0.14240109019E+02 -0.10927829048E+03  0.27852037800E+02  0.11366732813E+03  0.00000000000E+00 0.  1.
         11    1    3    3    0    0 -0.59619741118E+02 -0.23572182228E+02 -0.64454648164E+01  0.64433728145E+02  0.00000000000E+00 0. -1.
         21    1    1    2  502  503 -0.13048500121E+02 -0.19030884290E+02 -0.10970818471E+03  0.11210853538E+03  0.00000000000E+00 0.  1.
         21    1    1    2  503  501  0.85146707592E+02 -0.21870020733E+02  0.14886321949E+03  0.17288295965E+03  0.00000000000E+00 0.  1.
<scales pt_clust_5="13000.00000" pt_clust_6="13000.00000" pt_clust_7="13000.00000" pt_clust_8="13000.00000" pt_clust_9="23.07462" pt_clust_10="87.60980"></scales>
<clustering>
<clus scale="   23.075">  2  9  1 -1</clus>
<clus scale="   87.610">  1 10  2 -1</clus>
<clus scale="   90.317">  7  8 -1 -1</clus>
<clus scale="   90.355">  5  6 -1 -1</clus>
<clus scale="  179.292">  1  7  2 -1</clus>
<clus scale="   23.075">  2  5  1 -1</clus>
</clustering>
</event>
<event>
10    2  0.1898324E-006  0.1123635E+03  0.7546771E-02  0.1256570E+00
          1   -1    0    0  502    0  0.00000000000E+00  0.00000000000E+00  0.33801389873E+03  0.33801389873E+03  0.00000000000E+00 0. -1.
         -1   -1    0    0    0  501 -0.00000000000E+00 -0.00000000000E+00 -0.16060577840E+03  0.16060577840E+03  0.00000000000E+00 0.  1.
         23    2    1    2    0    0 -0.29760597407E+02  0.75239687731E+02  0.11672460719E+02  0.12184146340E+03  0.90345957827E+02 0.  0.
         23    2    1    2    0    0  0.34887800355E+01 -0.69709347817E+02  0.61609049372E+02  0.13033076625E+03  0.91207833586E+02 0.  0.
        -11    1    3    3    0    0 -0.20920307730E+02  0.44465640824E+02 -0.38428758233E+02  0.62382865827E+02  0.00000000000E+00 0.  1.
         11    1    3    3    0    0 -0.88402896770E+01  0.30774046907E+02  0.50101218952E+02  0.59458597571E+02  0.00000000000E+00 0. -1.
        -13    1    4    4    0    0 -0.37802736333E+02 -0.52163590848E+01  0.23193869849E+02  0.44656610652E+02  0.00000000000E+00 0. -1.
         13    1    4    4    0    0  0.41291516368E+02 -0.64492988732E+02  0.38415179523E+02  0.85674155598E+02  0.00000000000E+00 0.  1.
         21    1    1    2  502  503 -0.48440225873E+02  0.28348963154E+02  0.14449904940E+03  0.15501643291E+03  0.00000000000E+00 0.  1.
         21    1    1    2  503  501  0.74712043245E+02 -0.33879303068E+02 -0.40372439168E+02  0.91431014577E+02  0.00000000000E+00 0.  1.
<scales pt_clust_5="13000.00000" pt_clust_6="13000.00000" pt_clust_7="13000.00000" pt_clust_8="13000.00000" pt_clust_9="56.12592" pt_clust_10="74.46864"></scales>
<clustering>
<clus scale="   56.126">  1  9  2 -1</clus>
<clus scale="   74.469">  2 10  1 -1</clus>
<clus scale="   90.346">  5  6 -1 -1</clus>
<clus scale="   91.208">  7  8 -1 -1</clus>
<clus scale="  111.665">  2  5  1 -1</clus>
<clus scale="   56.126">  1  5  2 -1</clus>
</clustering>
</event>
<event>
10    2  0.1898324E-006  0.1614807E+03  0.7546771E-02  0.1187370E+00
         -2   -1    0    0    0  501 -0.00000000000E+00  0.00000000000E+00  0.11695248559E+04  0.11695248559E+04  0.00000000000E+00 0.  1.
          2   -1    0    0  502    0  0.00000000000E+00 -0.00000000000E+00 -0.99356276718E+02  0.99356276718E+02  0.00000000000E+00 0. -1.
         23    2    1    2    0    0 -0.13703782622E+03 -0.61726801209E+02  0.25745306964E+03  0.31170089501E+03  0.91026375739E+02 0.  0.
         23    2    1    2    0    0  0.71833749835E+01  0.13466033474E+03  0.92444144452E+02  0.18815172183E+03  0.93113607782E+02 0.  0.
        -11    1    3    3    0    0 -0.21133321725E+00 -0.24411323312E+02  0.84918566363E+02  0.88357910120E+02  0.00000000000E+00 0.  1.
         11    1    3    3    0    0 -0.13682649301E+03 -0.37315477897E+02  0.17253450328E+03  0.22334298489E+03  0.00000000000E+00 0. -1.
        -13    1    4    4    0    0 -0.41894920405E+02  0.57806440080E+02  0.52404368450E+02  0.88560638565E+02  0.00000000000E+00 0. -1.
         13    1    4    4    0    0  0.49078295389E+02  0.76853894664E+02  0.40039776002E+02  0.99591083263E+02  0.00000000000E+00 0.  1.
         21    1    1    2  502  503  0.51907144658E+02  0.49411563991E+02  0.61382514687E+02  0.94359246668E+02  0.00000000000E+00 0. -1.
         21    1    1    2  503  501  0.77947306584E+02 -0.12234509753E+03  0.65888885036E+03  0.67466926907E+03  0.00000000000E+00 0.  1.
<scales pt_clust_5="13000.00000" pt_clust_6="13000.00000" pt_clust_7="13000.00000" pt_clust_8="13000.00000" pt_clust_9="71.66488" pt_clust_10="143.90953"></scales>
<clustering>
<clus scale="   71.665">  2  9  1 -1</clus>
<clus scale="   91.026">  5  6 -1 -1</clus>
<clus scale="   93.114">  7  8 -1 -1</clus>
<clus scale="  143.910">  1 10  2 -1</clus>
<clus scale="  160.286">  1  5  2 -1</clus>
<clus scale="   71.665">  2  5  1 -1</clus>
</clustering>
</event>
<event>
10    2  0.1898324E-006  0.1161362E+03  0.7546771E-02  0.1255712E+00
         -1   -1    0    0    0  501 -0.00000000000E+00  0.00000000000E+00  0.84412623698E+02  0.84412623698E+02  0.00000000000E+00 0.  1.
          1   -1    0    0  502    0  0.00000000000E+00 -0.00000000000E+00 -0.82384569918E+03  0.82384569918E+03  0.00000000000E+00 0. -1.
         23    2    1    2    0    0  0.49585091621E+01  0.27600475511E+02 -0.53501393607E+02  0.10845220730E+03  0.90072798829E+02 0.  0.
         23    2    1    2    0    0  0.55009405283E+02 -0.83434764665E+01 -0.35906870683E+03  0.37821425454E+03  0.10497636803E+03 0.  0.
        -11    1    4    4    0    0 -0.15441622144E+02 -0.38851633255E+02 -0.13800660987E+03  0.14420026862E+03  0.00000000000E+00 0. -1.
         11    1    4    4    0    0  0.70451027427E+02  0.30508156789E+02 -0.22106209696E+03  0.23401398593E+03  0.00000000000E+00 0.  1.
        -13    1    3    3    0    0  0.44591187303E+02 -0.18116438316E+01 -0.30109881189E+02  0.53835499289E+02  0.00000000000E+00 0. -1.
         13    1    3    3    0    0 -0.39632678140E+02  0.29412119343E+02 -0.23391512418E+02  0.54616708012E+02  0.00000000000E+00 0.  1.
         21    1    1    2  502  503 -0.35739761751E+02 -0.73121092268E+02 -0.34911541005E+03  0.35847676945E+03  0.00000000000E+00 0. -1.
         21    1    1    2  503  501 -0.24228152694E+02  0.53864093224E+02  0.22252435005E+02  0.63115091582E+02  0.00000000000E+00 0.  1.
<scales pt_clust_5="13000.00000" pt_clust_6="13000.00000" pt_clust_7="13000.00000" pt_clust_8="13000.00000" pt_clust_9="77.32136" pt_clust_10="59.06220"></scales>
<clustering>
<clus scale="   59.062">  1 10  2 -1</clus>
<clus scale="   77.321">  2  9  1 -1</clus>
<clus scale="   90.073">  7  8 -1 -1</clus>
<clus scale="  102.862">  1  7  2 -1</clus>
<clus scale="  104.976">  5  6 -1 -1</clus>
<clus scale="   77.321">  2  5  1 -1</clus>
</clustering>
</event>
<event>
10    2  0.1898324E-006  0.2500148E+03  0.7546771E-02  0.1113460E+00
          1   -1    0    0  502    0  0.00000000000E+00  0.00000000000E+00  0.63762760814E+03  0.63762760814E+03  0.00000000000E+00 0. -1.
         -1   -1    0    0    0  501 -0.00000000000E+00 -0.00000000000E+00 -0.13194265711E+03  0.13194265711E+03  0.00000000000E+00 0.  1.
         23    2    1    2    0    0  0.25589283109E+02 -0.24948737582E+03  0.21214212750E+03  0.34132912380E+03  0.92749805357E+02 0.  0.
         23    2    1    2    0    0 -0.55261401375E+02  0.20907425616E+03  0.20446226611E+03  0.31089400694E+03  0.89913281651E+02 0.  0.
        -11    1    3    3    0    0  0.47896516262E+02 -0.13138167066E+03  0.73982365563E+02  0.15820433013E+03  0.00000000000E+00 0.  1.
         11    1    3    3    0    0 -0.22307233153E+02 -0.11810570515E+03  0.13815976193E+03  0.18312479367E+03  0.00000000000E+00 0. -1.
        -13    1    4    4    0    0 -0.30591452976E+02  0.20654997843E+03  0.18922156758E+03  0.28178632369E+03  0.00000000000E+00 0.  1.
         13    1    4    4    0    0 -0.24669948399E+02  0.25242777271E+01  0.15240698537E+02  0.29107683246E+02  0.00000000000E+00 0. -1.
         21    1    1    2  502  503  0.15045861162E+02  0.18812141187E+02  0.88000367011E+02  0.91237816656E+02  0.00000000000E+00 0.  1.
         21    1    1    2  503  501  0.14626257104E+02  0.21600978468E+02  0.10801904060E+01  0.26109317857E+02  0.00000000000E+00 0.  1.
<scales pt_clust_5="13000.00000" pt_clust_6="13000.00000" pt_clust_7="13000.00000" pt_clust_8="13000.00000" pt_clust_9="24.08889" pt_clust_10="26.68271"></scales>
<clustering>
<clus scale="   24.089">  1  9  2 -1</clus>
<clus scale="   26.683">  2 10  1 -1</clus>
<clus scale="   89.913">  7  8 -1 -1</clus>
<clus scale="   92.750">  5  6 -1 -1</clus>
<clus scale="  248.976">  1  7  2 -1</clus>
<clus scale="   24.089">  1  5  2 -1</clus>
</clustering>
</event>
<event>
10    2  0.1898324E-006  0.9942295E+02  0.7546771E-02  0.1282210E+00
         -1   -1    0    0    0  501 -0.00000000000E+00  0.00000000000E+00  0.18175366991E+03  0.18175366991E+03  0.00000000000E+00 0.  1.
          1   -1    0    0  502    0  0.00000000000E+00 -0.00000000000E+00 -0.28386400079E+03  0.28386400079E+03  0.00000000000E+00 0. -1.
         23    2    1    2    0    0 -0.31017417561E+02  0.35238557310E+02 -0.86380019504E+02  0.13432367871E+03  0.91528721067E+02 0.  0.
         23    2    1    2    0    0  0.36851990983E+02  0.59853399790E+01 -0.75614889615E+02  0.12402645493E+03  0.90945348738E+02 0.  0.
        -11    1    3    3    0    0 -0.58347404997E+02  0.86189353249E+01 -0.29796446778E+02  0.66079754514E+02  0.00000000000E+00 0. -1.
         11    1    3    3    0    0  0.27329987435E+02  0.26619621985E+02 -0.56583572726E+02  0.68243924200E+02  0.00000000000E+00 0.  1.
        -11    1    4    4    0    0  0.54720316096E+02  0.34072297311E+02 -0.43456179371E+02  0.77741069991E+02  0.00000000000E+00 0. -1.
         11    1    4    4    0    0 -0.17868325113E+02 -0.28086957332E+02 -0.32158710243E+02  0.46285384940E+02  0.00000000000E+00 0.  1.
         21    1    1    2  502  503  0.10968619498E+01  0.64949177070E+02 -0.26559826688E+02  0.70178508833E+02  0.00000000000E+00 0. -1.
         21    1    1    2  503  501 -0.69314353715E+01 -0.10617307436E+03  0.86444404924E+02  0.13708902822E+03  0.00000000000E+00 0.  1.
<scales pt_clust_5="13000.00000" pt_clust_6="13000.00000" pt_clust_7="13000.00000" pt_clust_8="13000.00000" pt_clust_9="64.95844" pt_clust_10="99.42295"></scales>
<clustering>
<clus scale="   64.958">  2  9  1 -1</clus>
<clus scale="   90.945">  7  8 -1 -1</clus>
<clus scale="   91.529">  5  6 -1 -1</clus>
<clus scale="   99.423">  1 10  2 -1</clus>
<clus scale="   98.120">  2  7  1 -1</clus>
<clus scale="   64.958">  2  5  1 -1</clus>
</clustering>
</event>
<event>
10    2  0.1898324E-006  0.1279310E+03  0.7546771E-02  0.1230865E+00
          2   -1    0    0  502    0  0.00000000000E+00  0.00000000000E+00  0.32123557990E+03  0.32123557990E+03  0.00000000000E+00 0. -1.
         -2   -1    0    0    0  501 -0.00000000000E+00 -0.00000000000E+00 -0.15672072185E+03  0.15672072185E+03  0.00000000000E+00 0.  1.
         23    2    1    2    0    0  0.10994607672E+03  0.80717999787E+02 -0.40567291658E+02  0.16921241199E+03  0.91562000529E+02 0.  0.
         23    2    1    2    0    0 -0.25812571826E+02  0.70917466276E+01  0.75436319741E+02  0.12076959864E+03  0.90432714690E+02 0.  0.
        -11    1    3    3    0    0  0.38859348919E+02  0.70905833711E+02 -0.52586365504E+02  0.96452123302E+02  0.00000000000E+00 0.  1.
         11    1    3    3    0    0  0.71086727804E+02  0.98121660766E+01  0.12019073847E+02  0.72760288683E+02  0.00000000000E+00 0. -1.
        -11    1    4    4    0    0 -0.94787347566E+01  0.44859666042E+02  0.16167817752E+02  0.48617223089E+02  0.00000000000E+00 0.  1.
         11    1    4    4    0    0 -0.16333837069E+02 -0.37767919415E+02  0.59268501989E+02  0.72152375555E+02  0.00000000000E+00 0. -1.
         21    1    1    2  502  503 -0.15075944339E+02 -0.39569626618E+02  0.79138542494E+02  0.89754934998E+02  0.00000000000E+00 0. -1.
         21    1    1    2  503  501 -0.69057560558E+02 -0.48240119797E+02  0.50507287473E+02  0.98219356117E+02  0.00000000000E+00 0. -1.
<scales pt_clust_5="13000.00000" pt_clust_6="13000.00000" pt_clust_7="13000.00000" pt_clust_8="13000.00000" pt_clust_9="42.34430" pt_clust_10="95.52883"></scales>
<clustering>
<clus scale="   42.344">  1  9  2 -1</clus>
<clus scale="   90.433">  7  8 -1 -1</clus>
<clus scale="   91.562">  5  6 -1 -1</clus>
<clus scale="   95.529">  1 10  2 -1</clus>
<clus scale="  127.125">  1  7  2 -1</clus>
<clus scale="   42.344">  1  5  2 -1</clus>
</clustering>
</event>
<event>
10    2  0.1898324E-006  0.1978288E+03  0.7546771E-02  0.1177876E+00
         -2   -1    0    0    0  501 -0.00000000000E+00  0.00000000000E+00  0.15626621219E+04  0.15626621219E+04  0.00000000000E+00 0.  1.
          2   -1    0    0  502    0  0.00000000000E+00 -0.00000000000E+00 -0.72834949232E+02  0.72834949232E+02  0.00000000000E+00 0. -1.
         23    2    1    2    0    0  0.24715959118E+03  0.21870069964E+02  0.73628256786E+03  0.78245858045E+03  0.92537813374E+02 0.  0.
         23    2    1    2    0    0 -0.42916932825E+02  0.60533134414E+01  0.73815714100E+02  0.12798104429E+03  0.95141380703E+02 0.  0.
        -11    1    3    3    0    0  0.22963458776E+02 -0.19925765926E+02  0.15667498733E+03  0.15959764485E+03  0.00000000000E+00 0.  1.
         11    1    3    3    0    0  0.22419613240E+03  0.41795835889E+02  0.57960758054E+03  0.62286093560E+03  0.00000000000E+00 0. -1.
        -13    1    4    4    0    0 -0.35029534147E+02  0.45225485427E+02  0.65865990668E+02  0.87239563968E+02  0.00000000000E+00 0. -1.
         13    1    4    4    0    0 -0.78873986774E+01 -0.39172171986E+02  0.79497234319E+01  0.40741480319E+02  0.00000000000E+00 0.  1.
         21    1    1    2  502  503 -0.12602094837E+03 -0.40868693694E+02  0.20727391330E+03  0.24599594445E+03  0.00000000000E+00 0.  1.
         21    1    1    2  503  501 -0.78221709977E+02  0.12945310289E+02  0.47245497745E+03  0.47906150199E+03  0.00000000000E+00 0.  1.
<scales pt_clust_5="13000.00000" pt_clust_6="13000.00000" pt_clust_7="13000.00000" pt_clust_8="13000.00000" pt_clust_9="174.85128" pt_clust_10="79.28567"></scales>
<clustering>
<clus scale="   79.286">  1 10  2 -1</clus>
<clus scale="   92.538">  5  6 -1 -1</clus>
<clus scale="   95.141">  7  8 -1 -1</clus>
<clus scale="  107.807">  2  7  1 -1</clus>
<clus scale="  174.851">  2  9  1 -1</clus>
<clus scale="  107.807">  2  5  1 -1</clus>
</clustering>
</event>
<event>
10    2  0.1898324E-006  0.1944129E+03  0.7546771E-02  0.1154857E+00
         -1   -1    0    0    0  501 -0.00000000000E+00  0.00000000000E+00  0.73832624573E+02  0.73832624573E+02  0.00000000000E+00 0.  1.
          1   -1    0    0  502    0  0.00000000000E+00 -0.00000000000E+00 -0.90389532667E+03  0.90389532667E+03  0.00000000000E+00 0. -1.
         23    2    1    2    0    0  0.13584529970E+03  0.97491647915E+02 -0.18181096041E+03  0.26352996181E+03  0.91838165163E+02 0.  0.
         23    2    1    2    0    0 -0.11448413506E+03 -0.12243660134E+03 -0.52313317809E+03  0.55645498561E+03  0.88749594181E+02 0.  0.
        -11    1    3    3    0    0  0.48611384020E+02  0.28511385525E+02 -0.76253847459E+01  0.56869255784E+02  0.00000000000E+00 0.  1.
         11    1    3    3    0    0  0.87233915684E+02  0.68980262390E+02 -0.17418557566E+03  0.20666070602E+03  0.00000000000E+00 0. -1.
        -11    1    4    4    0    0  0.11572382798E+02 -0.17822052533E+02 -0.29540106914E+02  0.36389057649E+02  0.00000000000E+00 0.  1.
         11    1    4    4    0    0 -0.12605651785E+03 -0.10461454881E+03 -0.49359307117E+03  0.52006592796E+03  0.00000000000E+00 0. -1.
         21    1    1    2  502  503  0.67182585951E+01 -0.25103070085E+02 -0.81838312792E+02  0.85865060222E+02  0.00000000000E+00 0.  1.
         21    1    1    2  503  501 -0.28079423243E+02  0.50048023508E+02 -0.43280250808E+02  0.71877943604E+02  0.00000000000E+00 0. -1.
<scales pt_clust_5="13000.00000" pt_clust_6="13000.00000" pt_clust_7="13000.00000" pt_clust_8="13000.00000" pt_clust_9="25.98652" pt_clust_10="55.62074"></scales>
<clustering>
<clus scale="   25.987">  2  9  1 -1</clus>
<clus scale="   55.621">  1 10  2 -1</clus>
<clus scale="   88.750">  7  8 -1 -1</clus>
<clus scale="   91.838">  5  6 -1 -1</clus>
<clus scale="  192.973">  2  7  1 -1</clus>
<clus scale="   25.987">  2  5  1 -1</clus>
</clustering>
</event>
<event>
10    2  0.1898324E-006  0.4127300E+03  0.7546771E-02  0.1039490E+00
          2   -1    0    0  502    0  0.00000000000E+00  0.00000000000E+00  0.30154761946E+03  0.30154761946E+03  0.00000000000E+00 0. -1.
         -2   -1    0    0    0  501 -0.00000000000E+00 -0.00000000000E+00 -0.92566156351E+03  0.92566156351E+03  0.00000000000E+00 0.  1.
         23    2    1    2    0    0  0.43663958266E+03 -0.64895022883E+02 -0.54570277571E+03  0.70778767799E+03  0.91139390829E+02 0.  0.
         23    2    1    2    0    0 -0.39857927506E+03  0.40270524578E+02 -0.28767273906E+02  0.41147232404E+03  0.89413442763E+02 0.  0.
        -11    1    3    3    0    0  0.16632480043E+03 -0.33159569366E+01 -0.14594938682E+03  0.22130557680E+03  0.00000000000E+00 0. -1.
         11    1    3    3    0    0  0.27031478223E+03 -0.61579065947E+02 -0.39975338888E+03  0.48648210119E+03  0.00000000000E+00 0.  1.
        -11    1    4    4    0    0 -0.35192505206E+03  0.14981023187E+02 -0.46987571569E+02  0.35536390532E+03  0.00000000000E+00 0. -1.
         11    1    4    4    0    0 -0.46654223003E+02  0.25289501391E+02  0.18220297664E+02  0.56108418723E+02  0.00000000000E+00 0.  1.
         21    1    1    2  502  503  0.17866879096E+02 -0.15488552592E+02 -0.99586643009E+00  0.23666693474E+02  0.00000000000E+00 0.  1.
         21    1    1    2  503  501 -0.55927186697E+02  0.40113050898E+02 -0.48648028003E+02  0.84282487462E+02  0.00000000000E+00 0. -1.
<scales pt_clust_5="13000.00000" pt_clust_6="13000.00000" pt_clust_7="13000.00000" pt_clust_8="13000.00000" pt_clust_9="23.64573" pt_clust_10="67.37976"></scales>
<clustering>
<clus scale="   23.646">  1  9  2 -1</clus>
<clus scale="   67.380">  2 10  1 -1</clus>
<clus scale="   89.413">  7  8 -1 -1</clus>
<clus scale="   91.139">  5  6 -1 -1</clus>
<clus scale="  412.352">  1  7  2 -1</clus>
<clus scale="   23.646">  1  5  2 -1</clus>
</clustering>
</event>
<event>
10    2  0.1898324E-006  0.1256882E+03  0.7546771E-02  0.1234573E+00
         -1   -1    0    0    0  501 -0.00000000000E+00  0.00000000000E+00  0.68395327982E+03  0.68395327982E+03  0.00000000000E+00 0.  1.
          1   -1    0    0  502    0  0.00000000000E+00 -0.00000000000E+00 -0.17107955516E+03  0.17107955516E+03  0.00000000000E+00 0. -1.
         23    2    1    2    0    0  0.12542077696E+02  0.11618711701E+03  0.66109285915E+02  0.16287220697E+03  0.92196357014E+02 0.  0.
         23    2    1    2    0    0  0.19915779314E+02 -0.78903441054E+02  0.79788114356E+01  0.12172823042E+03  0.90175991110E+02 0.  0.
        -11    1    4    4    0    0  0.47458452578E+02 -0.12483937846E+02  0.86054264025E+01  0.49821750158E+02  0.00000000000E+00 0. -1.
         11    1    4    4    0    0 -0.27542673264E+02 -0.66419503208E+02 -0.62661496693E+00  0.71906480259E+02  0.00000000000E+00 0.  1.
        -13    1    3    3    0    0 -0.26853928803E+02  0.97988774482E+02  0.62590626735E+02  0.11933364979E+03  0.00000000000E+00 0. -1.
         13    1    3    3    0    0  0.39396006499E+02  0.18198342524E+02  0.35186591802E+01  0.43538557178E+02  0.00000000000E+00 0.  1.
         21    1    1    2  502  503  0.39729722443E+02  0.36540263052E+02 -0.48354941203E+02  0.72469593680E+02  0.00000000000E+00 0. -1.
         21    1    1    2  503  501 -0.72187579454E+02 -0.73823939005E+02  0.48714056851E+03  0.49796280392E+03  0.00000000000E+00 0.  1.
<scales pt_clust_5="13000.00000" pt_clust_6="13000.00000" pt_clust_7="13000.00000" pt_clust_8="13000.00000" pt_clust_9="53.97816" pt_clust_10="100.61674"></scales>
<clustering>
<clus scale="   53.978">  2  9  1 -1</clus>
<clus scale="   90.176">  5  6 -1 -1</clus>
<clus scale="   92.196">  7  8 -1 -1</clus>
<clus scale="  100.617">  1 10  2 -1</clus>
<clus scale="  124.214">  2  5  1 -1</clus>
<clus scale="   53.978">  2  5  1 -1</clus>
</clustering>
</event>
<event>
10    2  0.1898324E-006  0.1081900E+03  0.7546771E-02  0.1264501E+00
         -1   -1    0    0    0  501 -0.00000000000E+00  0.00000000000E+00  0.10718133714E+03  0.10718133714E+03  0.00000000000E+00 0.  1.
          1   -1    0    0  502    0  0.00000000000E+00 -0.00000000000E+00 -0.38040663893E+03  0.38040663893E+03  0.00000000000E+00 0. -1.
         23    2    1    2    0    0 -0.61002445785E+02  0.79746434113E+02 -0.58985685677E+02  0.14865790550E+03  0.92407086346E+02 0.  0.
         23    2    1    2    0    0 -0.30058335432E+01 -0.15746739717E+02 -0.70245976313E+02  0.11821835219E+03  0.93723458956E+02 0.  0.
        -11    1    3    3    0    0 -0.65373515112E+02  0.34320506625E+02  0.30818883768E+00  0.73835551284E+02  0.00000000000E+00 0.  1.
         11    1    3    3    0    0  0.43710693266E+01  0.45425927488E+02 -0.59293874515E+02  0.74822354214E+02  0.00000000000E+00 0. -1.
        -13    1    4    4    0    0 -0.39151558529E+02 -0.31426174529E+02 -0.19234181833E+02  0.53762465824E+02  0.00000000000E+00 0.  1.
         13    1    4    4    0    0  0.36145724985E+02  0.15679434811E+02 -0.51011794480E+02  0.64455886363E+02  0.00000000000E+00 0. -1.
         21    1    1    2  502  503  0.28751607192E+02 -0.72621835750E+02 -0.16225893134E+03  0.18007927905E+03  0.00000000000E+00 0. -1.
         21    1    1    2  503  501  0.35256672136E+02  0.86221413548E+01  0.18265291541E+02  0.40632439340E+02  0.00000000000E+00 0.  1.
<scales pt_clust_5="13000.00000" pt_clust_6="13000.00000" pt_clust_7="13000.00000" pt_clust_8="13000.00000" pt_clust_9="78.78285" pt_clust_10="36.29565"></scales>
<clustering>
<clus scale="   36.296">  1 10  2 -1</clus>
<clus scale="   78.783">  2  9  1 -1</clus>
<clus scale="   92.407">  5  6 -1 -1</clus>
<clus scale="   93.723">  7  8 -1 -1</clus>
<clus scale="  107.052">  1  5  2 -1</clus>
<clus scale="   78.783">  2  5  1 -1</clus>
</clustering>
</event>
<event>
10    2  0.1898324E-006  0.2867704E+03  0.7546771E-02  0.1119166E+00
         -2   -1    0    0    0  501 -0.00000000000E+00  0.00000000000E+00  0.12370272760E+03  0.12370272760E+03  0.00000000000E+00 0.  1.
          2   -1    0    0  502    0  0.00000000000E+00 -0.00000000000E+00 -0.19709335497E+04  0.19709335497E+04  0.00000000000E+00 0. -1.
         23    2    1    2    0    0  0.85841235242E+02 -0.56117734746E+02 -0.17699571713E+03  0.22151696786E+03  0.84996266673E+02 0.  0.
         23    2    1    2    0    0  0.20606602389E+03 -0.38898630744E+01 -0.59522128037E+03  0.63650127094E+03  0.91472170950E+02 0.  0.
        -13    1    4    4    0    0  0.90851685210E+02  0.38663716451E+02 -0.32520572640E+03  0.33986420252E+03  0.00000000000E+00 0.  1.
         13    1    4    4    0    0  0.11521433868E+03 -0.42553579525E+02 -0.27001555397E+03  0.29663706841E+03  0.00000000000E+00 0. -1.
        -13    1    3    3    0    0 -0.53323604661E+01 -0.28705127517E+02 -0.81922455860E+02  0.86969576221E+02  0.00000000000E+00 0. -1.
         13    1    3    3    0    0  0.91173595708E+02 -0.27412607229E+02 -0.95073261270E+02  0.13454739164E+03  0.00000000000E+00 0.  1.
         21    1    1    2  502  503 -0.37872880832E+03 -0.32022181494E+02 -0.10370782387E+04  0.11045325724E+04  0.00000000000E+00 0. -1.
         21    1    1    2  503  501  0.86821549188E+02  0.92029779315E+02 -0.37935585963E+02  0.13208546614E+03  0.00000000000E+00 0.  1.
<scales pt_clust_5="13000.00000" pt_clust_6="13000.00000" pt_clust_7="13000.00000" pt_clust_8="13000.00000" pt_clust_9="271.79059" pt_clust_10="126.52060"></scales>
<clustering>
<clus scale="   84.996">  7  8 -1 -1</clus>
<clus scale="   91.472">  5  6 -1 -1</clus>
<clus scale="  126.521">  1 10  2 -1</clus>
<clus scale="  142.908">  1  7  2 -1</clus>
<clus scale="  271.791">  1  9  2 -1</clus>
<clus scale="  286.770">  2  5  1 -1</clus>
</clustering>
</event>
<event>
10    2  0.1898324E-006  0.2075996E+03  0.7546771E-02  0.1144204E+00
         -2   -1    0    0    0  501 -0.00000000000E+00  0.00000000000E+00  0.10543746681E+03  0.10543746681E+03  0.00000000000E+00 0.  1.
          2   -1    0    0  502    0  0.00000000000E+00 -0.00000000000E+00 -0.10379316535E+04  0.10379316535E+04  0.00000000000E+00 0. -1.
         23    2    1    2    0    0 -0.77599558998E+02  0.12569726784E+03 -0.23671231646E+03  0.29594560783E+03  0.98638670541E+02 0.  0.
         23    2    1    2    0    0  0.13623678775E+03 -0.15701841719E+03 -0.69897369518E+03  0.73487478376E+03  0.90892659722E+02 0.  0.
        -11    1    3    3    0    0 -0.10048127621E+03  0.98460775877E+02 -0.20265462782E+03  0.24669801262E+03  0.00000000000E+00 0.  1.
         11    1    3    3    0    0  0.22881717217E+02  0.27236491965E+02 -0.34057688646E+02  0.49247595203E+02  0.00000000000E+00 0. -1.
        -11    1    4    4    0    0  0.10607198170E+03 -0.55028426834E+02 -0.40456613362E+03  0.42184493541E+03  0.00000000000E+00 0.  1.
         11    1    4    4    0    0  0.30164806044E+02 -0.10198999036E+03 -0.29440756156E+03  0.31302984835E+03  0.00000000000E+00 0. -1.
         21    1    1    2  502  503 -0.19176995572E+02 -0.81040231801E+01 -0.37917063349E+02  0.43256630057E+02  0.00000000000E+00 0. -1.
         21    1    1    2  503  501 -0.39460233176E+02  0.39425172529E+02  0.41108888343E+02  0.69292098626E+02  0.00000000000E+00 0.  1.
<scales pt_clust_5="13000.00000" pt_clust_6="13000.00000" pt_clust_7="13000.00000" pt_clust_8="13000.00000" pt_clust_9="20.81904" pt_clust_10="55.89182"></scales>
<clustering>
<clus scale="   20.819">  2  9  1 -1</clus>
<clus scale="   55.892">  1 10  2 -1</clus>
<clus scale="   90.893">  7  8 -1 -1</clus>
<clus scale="   98.639">  5  6 -1 -1</clus>
<clus scale="  204.033">  2  7  1 -1</clus>
<clus scale="   20.819">  2  5  1 -1</clus>
</clustering>
</event>
<event>
10    2  0.1898324E-006  0.1639507E+03  0.7546771E-02  0.1185004E+00
         -3   -1    0    0    0  501 -0.00000000000E+00  0.00000000000E+00  0.41715344601E+03  0.41715344601E+03  0.00000000000E+00 0.  1.
          3   -1    0    0  502    0  0.00000000000E+00 -0.00000000000E+00 -0.27644326933E+03  0.27644326933E+03  0.00000000000E+00 0. -1.
         23    2    1    2    0    0 -0.97456630802E+02  0.75214328228E+02  0.18293253242E+03  0.23946291927E+03  0.93398009786E+02 0.  0.
         23    2    1    2    0    0  0.76230116016E+02 -0.15739909857E+03 -0.13991425059E+03  0.24096166349E+03  0.88887675959E+02 0.  0.
        -11    1    3    3    0    0 -0.43774152355E+02  0.87034778247E+02  0.13531642538E+03  0.16673860986E+03  0.00000000000E+00 0.  1.
         11    1    3    3    0    0 -0.53682478448E+02 -0.11820450019E+02  0.47616107038E+02  0.72724309418E+02  0.00000000000E+00 0. -1.
        -13    1    4    4    0    0  0.21975347442E+02  0.35486899151E+01 -0.34512315955E+02  0.41068346058E+02  0.00000000000E+00 0.  1.
         13    1    4    4    0    0  0.54254768574E+02 -0.16094778848E+03 -0.10540193463E+03  0.19989331743E+03  0.00000000000E+00 0. -1.
         21    1    1    2  502  503  0.15215907301E+02  0.61832270913E+02 -0.39113667617E+02  0.74730399140E+02  0.00000000000E+00 0. -1.
         21    1    1    2  503  501  0.60106074848E+01  0.20352499427E+02  0.13680556247E+03  0.13844173344E+03  0.00000000000E+00 0.  1.
<scales pt_clust_5="13000.00000" pt_clust_6="13000.00000" pt_clust_7="13000.00000" pt_clust_8="13000.00000" pt_clust_9="65.02754" pt_clust_10="21.22149"></scales>
<clustering>
<clus scale="   21.221">  1 10  2 -1</clus>
<clus scale="   65.028">  2  9  1 -1</clus>
<clus scale="   88.888">  7  8 -1 -1</clus>
<clus scale="   93.398">  5  6 -1 -1</clus>
<clus scale="  161.424">  2  7  1 -1</clus>
<clus scale="   65.028">  2  5  1 -1</clus>
</clustering>
</event>
<event>
10    2  0.1898324E-006  0.1366848E+03  0.7546771E-02  0.1217980E+00
         -1   -1    0    0    0  501 -0.00000000000E+00  0.00000000000E+00  0.83441291424E+02  0.83441291424E+02  0.00000000000E+00 0.  1.
          1   -1    0    0  502    0  0.00000000000E+00 -0.00000000000E+00 -0.69561325154E+03  0.69561325154E+03  0.00000000000E+00 0. -1.
         23    2    1    2    0    0 -0.95775755792E+02 -0.11851242598E+03 -0.70411853455E+02  0.19130505222E+03  0.91769294369E+02 0.  0.
         23    2    1    2    0    0  0.41192544368E+02  0.53964373442E+02 -0.37385868590E+03  0.39077772626E+03  0.91257520282E+02 0.  0.
        -11    1    4    4    0    0  0.50393622375E+02  0.74134014470E+02 -0.32479593616E+03  0.33693882148E+03  0.00000000000E+00 0. -1.
         11    1    4    4    0    0 -0.92010780069E+01 -0.20169641029E+02 -0.49062749745E+02  0.53838904783E+02  0.00000000000E+00 0.  1.
        -13    1    3    3    0    0 -0.10747913768E+03 -0.84368003563E+02 -0.73369371593E+02  0.15508961845E+03  0.00000000000E+00 0.  1.
         13    1    3    3    0    0  0.11703381891E+02 -0.34144422417E+02  0.29575181381E+01  0.36215433773E+02  0.00000000000E+00 0. -1.
         21    1    1    2  502  503  0.24329014358E+02  0.24892120472E+02 -0.12929309935E+03  0.13389631862E+03  0.00000000000E+00 0. -1.
         21    1    1    2  503  501  0.30254197066E+02  0.39655932067E+02 -0.38608321414E+02  0.63075445861E+02  0.00000000000E+00 0. -1.
<scales pt_clust_5="13000.00000" pt_clust_6="13000.00000" pt_clust_7="13000.00000" pt_clust_8="13000.00000" pt_clust_9="34.80688" pt_clust_10="52.99448"></scales>
<clustering>
<clus scale="   34.807">  2  9  1 -1</clus>
<clus scale="   52.994">  1 10  2 -1</clus>
<clus scale="   91.258">  5  6 -1 -1</clus>
<clus scale="   91.769">  7  8 -1 -1</clus>
<clus scale="  136.342">  2  5  1 -1</clus>
<clus scale="   34.807">  2  5  1 -1</clus>
</clustering>
</event>
<event>
10    2  0.1898324E-006  0.1895162E+03  0.7546771E-02  0.1159481E+00
         -1   -1    0    0    0  501 -0.00000000000E+00  0.00000000000E+00  0.17417594329E+03  0.17417594329E+03  0.00000000000E+00 0.  1.
          1   -1    0    0  502    0  0.00000000000E+00 -0.00000000000E+00 -0.69884209087E+03  0.69884209087E+03  0.00000000000E+00 0. -1.
         23    2    1    2    0    0  0.11727444552E+03  0.85794949239E+02  0.71003650571E+02  0.18358689297E+03  0.86882449256E+02 0.  0.
         23    2    1    2    0    0 -0.11166476471E+03 -0.15565938642E+03 -0.43947565631E+03  0.48820996705E+03  0.92256464172E+02 0.  0.
        -13    1    3    3    0    0  0.43300841621E+02  0.51656653527E+02 -0.10649521947E+02  0.68240640797E+02  0.00000000000E+00 0. -1.
         13    1    3    3    0    0  0.73973603899E+02  0.34138295712E+02  0.81653172518E+02  0.11534625217E+03  0.00000000000E+00 0.  1.
        -13    1    4    4    0    0 -0.44954572719E+02 -0.10099546100E+03 -0.15115904753E+03  0.18727000401E+03  0.00000000000E+00 0.  1.
         13    1    4    4    0    0 -0.66710191989E+02 -0.54663925414E+02 -0.28831660878E+03  0.30093996304E+03  0.00000000000E+00 0. -1.
         21    1    1    2  502  503 -0.21251224086E+02  0.54330139600E+02 -0.16683634219E+03  0.17674202576E+03  0.00000000000E+00 0.  1.
         21    1    1    2  503  501  0.15641543274E+02  0.15534297576E+02  0.10642200345E+02  0.24479148379E+02  0.00000000000E+00 0.  1.
<scales pt_clust_5="13000.00000" pt_clust_6="13000.00000" pt_clust_7="13000.00000" pt_clust_8="13000.00000" pt_clust_9="58.61929" pt_clust_10="22.04478"></scales>
<clustering>
<clus scale="   22.045">  1 10  2 -1</clus>
<clus scale="   58.619">  2  9  1 -1</clus>
<clus scale="   86.882">  5  6 -1 -1</clus>
<clus scale="   92.256">  7  8 -1 -1</clus>
<clus scale="  186.959">  1  5  2 -1</clus>
<clus scale="   58.619">  2  5  1 -1</clus>
</clustering>
</event>
<event>
10    2  0.1898324E-006  0.1102788E+03  0.7546771E-02  0.1260511E+00
          1   -1    0    0  502    0  0.00000000000E+00  0.00000000000E+00  0.48299823963E+03  0.48299823963E+03  0.00000000000E+00 0. -1.
         -1   -1    0    0    0  501 -0.00000000000E+00 -0.00000000000E+00 -0.10499107976E+03  0.10499107976E+03  0.00000000000E+00 0.  1.
         23    2    1    2    0    0  0.50860305175E+02 -0.30792697907E+02  0.31087844221E+02  0.11394663795E+03  0.92100061645E+02 0.  0.
         23    2    1    2    0    0 -0.32992676276E+02 -0.17102364604E+02  0.27344098134E+03  0.29054627996E+03  0.90918441270E+02 0.  0.
        -11    1    3    3    0    0  0.24144265788E+02 -0.31123975996E+02 -0.28515380473E+02  0.48628945863E+02  0.00000000000E+00 0.  1.
         11    1    3    3    0    0  0.26716039387E+02  0.33127808899E+00  0.59603224694E+02  0.65317692088E+02  0.00000000000E+00 0. -1.
        -13    1    4    4    0    0 -0.16280871104E+02  0.34685804710E+02  0.16278149451E+03  0.16723034045E+03  0.00000000000E+00 0. -1.
         13    1    4    4    0    0 -0.16711805172E+02 -0.51788169315E+02  0.11065948683E+03  0.12331593951E+03  0.00000000000E+00 0.  1.
         21    1    1    2  502  503 -0.37938069298E+02  0.50905794824E+02  0.11831934787E+03  0.13427645039E+03  0.00000000000E+00 0. -1.
         21    1    1    2  503  501  0.20070440399E+02 -0.30107323130E+01 -0.44841013567E+02  0.49219951083E+02  0.00000000000E+00 0.  1.
<scales pt_clust_5="13000.00000" pt_clust_6="13000.00000" pt_clust_7="13000.00000" pt_clust_8="13000.00000" pt_clust_9="61.53598" pt_clust_10="20.29500"></scales>
<clustering>
<clus scale="   20.295">  2 10  1 -1</clus>
<clus scale="   61.536">  1  9  2 -1</clus>
<clus scale="   90.918">  7  8 -1 -1</clus>
<clus scale="   92.100">  5  6 -1 -1</clus>
<clus scale="  109.294">  1  7  2 -1</clus>
<clus scale="   61.536">  1  5  2 -1</clus>
</clustering>
</event>
<event>
10    2  0.1898324E-006  0.1063013E+03  0.7546771E-02  0.1269897E+00
          2   -1    0    0  502    0  0.00000000000E+00  0.00000000000E+00  0.29760899528E+03  0.29760899528E+03  0.00000000000E+00 0. -1.
         -2   -1    0    0    0  501 -0.00000000000E+00 -0.00000000000E+00 -0.51727486785E+03  0.51727486785E+03  0.00000000000E+00 0.  1.
         23    2    1    2    0    0  0.64379593348E+02  0.85082268710E+02 -0.37027490903E+03  0.39738774646E+03  0.97107097023E+02 0.  0.
         23    2    1    2    0    0 -0.10311107793E+02 -0.23860127652E+02  0.22322334983E+03  0.24282177288E+03  0.91968064238E+02 0.  0.
        -13    1    4    4    0    0 -0.40245509149E+01  0.26401780924E+02  0.19958498664E+02  0.33340556609E+02  0.00000000000E+00 0.  1.
         13    1    4    4    0    0 -0.62865568784E+01 -0.50261908576E+02  0.20326485117E+03  0.20948121627E+03  0.00000000000E+00 0. -1.
        -13    1    3    3    0    0  0.15212093184E+02  0.47839506020E+02 -0.29875986801E+03  0.30294799033E+03  0.00000000000E+00 0.  1.
         13    1    3    3    0    0  0.49167500164E+02  0.37242762690E+02 -0.71515041025E+02  0.94439756131E+02  0.00000000000E+00 0. -1.
         21    1    1    2  502  503  0.14539547828E+02 -0.19831861559E+02  0.33593371076E+02  0.41631908006E+02  0.00000000000E+00 0. -1.
         21    1    1    2  503  501 -0.68608033383E+02 -0.41390279499E+02 -0.10620768445E+03  0.13304243578E+03  0.00000000000E+00 0. -1.
<scales pt_clust_5="13000.00000" pt_clust_6="13000.00000" pt_clust_7="13000.00000" pt_clust_8="13000.00000" pt_clust_9="24.59067" pt_clust_10="80.02245"></scales>
<clustering>
<clus scale="   24.591">  1  9  2 -1</clus>
<clus scale="   80.022">  2 10  1 -1</clus>
<clus scale="   91.968">  5  6 -1 -1</clus>
<clus scale="   97.107">  7  8 -1 -1</clus>
<clus scale="  101.628">  1  5  2 -1</clus>
<clus scale="   24.591">  1  5  2 -1</clus>
</clustering>
</event>
<event>
10    2  0.1898324E-006  0.1613133E+03  0.7546771E-02  0.1213722E+00
          1   -1    0    0  502    0  0.00000000000E+00  0.00000000000E+00  0.16930124632E+03  0.16930124632E+03  0.00000000000E+00 0. -1.
         -1   -1    0    0    0  501 -0.00000000000E+00 -0.00000000000E+00 -0.36992945025E+03  0.36992945025E+03  0.00000000000E+00 0.  1.
         23    2    1    2    0    0 -0.26319875654E+02 -0.12352746018E+03 -0.19755533093E+03  0.25130218729E+03  0.90404155240E+02 0.  0.
         23    2    1    2    0    0 -0.21458156352E+02  0.80030801142E+01 -0.15535767254E+02  0.92792879137E+02  0.88570065987E+02 0.  0.
        -11    1    4    4    0    0 -0.34164096390E+02 -0.33623800536E+02 -0.92355369857E+01  0.48816396713E+02  0.00000000000E+00 0.  1.
         11    1    4    4    0    0  0.12705940038E+02  0.41626880650E+02 -0.63002302682E+01  0.43976482424E+02  0.00000000000E+00 0. -1.
        -11    1    3    3    0    0 -0.44686633736E+02 -0.11135019048E+03 -0.11624619321E+03  0.16705968272E+03  0.00000000000E+00 0.  1.
         11    1    3    3    0    0  0.18366758082E+02 -0.12177269704E+02 -0.81309137719E+02  0.84242504571E+02  0.00000000000E+00 0. -1.
         21    1    1    2  502  503  0.33028439914E+02  0.12963478565E+03  0.57560204099E+02  0.14563389918E+03  0.00000000000E+00 0. -1.
         21    1    1    2  503  501  0.14749592092E+02 -0.14110405585E+02 -0.45097309847E+02  0.49501730961E+02  0.00000000000E+00 0.  1.
<scales pt_clust_5="13000.00000" pt_clust_6="13000.00000" pt_clust_7="13000.00000" pt_clust_8="13000.00000" pt_clust_9="133.60036" pt_clust_10="20.41210"></scales>
<clustering>
<clus scale="   20.412">  2 10  1 -1</clus>
<clus scale="   88.570">  5  6 -1 -1</clus>
<clus scale="   90.404">  7  8 -1 -1</clus>
<clus scale="   90.756">  1  5  2 -1</clus>
<clus scale="  133.600">  1  9  2 -1</clus>
<clus scale="   90.756">  1  5  2 -1</clus>
</clustering>
</event>
<event>
10    2  0.1898324E-006  0.1879585E+03  0.7546771E-02  0.1160362E+00
         -1   -1    0    0    0  501 -0.00000000000E+00  0.00000000000E+00  0.51549902175E+03  0.51549902175E+03  0.00000000000E+00 0.  1.
          1   -1    0    0  502    0  0.00000000000E+00 -0.00000000000E+00 -0.31341829920E+03  0.31341829920E+03  0.00000000000E+00 0. -1.
         23    2    1    2    0    0 -0.53543057685E+02  0.15496336257E+03  0.41538977937E+03  0.45608120258E+03  0.92633103068E+02 0.  0.
         23    2    1    2    0    0  0.99062410042E+02 -0.13415519191E+03 -0.18111470337E+03  0.26290387148E+03  0.92222195054E+02 0.  0.
        -11    1    3    3    0    0  0.25514193625E+02  0.43557973969E+02  0.13642088555E+03  0.14546109166E+03  0.00000000000E+00 0. -1.
         11    1    3    3    0    0 -0.79057251310E+02  0.11140538860E+03  0.27896889382E+03  0.31062011093E+03  0.00000000000E+00 0.  1.
        -13    1    4    4    0    0  0.13963252012E+01 -0.49497800311E+02 -0.96374744878E+02  0.10835161932E+03  0.00000000000E+00 0.  1.
         13    1    4    4    0    0  0.97666084840E+02 -0.84657391600E+02 -0.84739958497E+02  0.15455225216E+03  0.00000000000E+00 0. -1.
         21    1    1    2  502  503 -0.21284763278E+02 -0.97101255081E+01 -0.64171279982E+02  0.68302861285E+02  0.00000000000E+00 0. -1.
         21    1    1    2  503  501 -0.24234589079E+02 -0.11098045154E+02  0.31976926544E+02  0.41629385598E+02  0.00000000000E+00 0. -1.
<scales pt_clust_5="13000.00000" pt_clust_6="13000.00000" pt_clust_7="13000.00000" pt_clust_8="13000.00000" pt_clust_9="23.39504" pt_clust_10="27.11166"></scales>
<clustering>
<clus scale="   23.395">  2  9  1 -1</clus>
<clus scale="   27.112">  1 10  2 -1</clus>
<clus scale="   92.222">  7  8 -1 -1</clus>
<clus scale="   92.633">  5  6 -1 -1</clus>
<clus scale="  187.756">  2  7  1 -1</clus>
<clus scale="   23.395">  2  5  1 -1</clus>
</clustering>
</event>
<event>
10    2  0.1898324E-006  0.9270069E+02  0.7546771E-02  0.1297490E+00
          1   -1    0    0  502    0  0.00000000000E+00  0.00000000000E+00  0.35768814460E+03  0.35768814460E+03  0.00000000000E+00 0. -1.
         -1   -1    0    0    0  501 -0.00000000000E+00 -0.00000000000E+00 -0.58111929128E+02  0.58111929128E+02  0.00000000000E+00 0.  1.
         23    2    1    2    0    0 -0.48027590488E+00 -0.41551533395E+02  0.53235344147E+02  0.11176916152E+03  0.89059435257E+02 0.  0.
         23    2    1    2    0    0  0.88881984829E+01 -0.12842487514E+02  0.14946659245E+03  0.17562335831E+03  0.90881088059E+02 0.  0.
        -11    1    3    3    0    0 -0.68406955685E+01  0.21762751223E+02 -0.72894426724E+01  0.23948871186E+02  0.00000000000E+00 0. -1.
         11    1    3    3    0    0  0.63604196636E+01 -0.63314284617E+02  0.60524786819E+02  0.87820290334E+02  0.00000000000E+00 0.  1.
        -13    1    4    4    0    0  0.44119730116E+02 -0.39784090005E+01  0.12283310633E+03  0.13057699006E+03  0.00000000000E+00 0.  1.
         13    1    4    4    0    0 -0.35231531633E+02 -0.88640785131E+01  0.26633486127E+02  0.45046368249E+02  0.00000000000E+00 0. -1.
         21    1    1    2  502  503  0.84824751980E+00  0.35755576465E+02  0.10104097039E+03  0.10718422677E+03  0.00000000000E+00 0. -1.
         21    1    1    2  503  501 -0.92561700978E+01  0.18638444443E+02 -0.41666915131E+01  0.21223327126E+02  0.00000000000E+00 0. -1.
<scales pt_clust_5="13000.00000" pt_clust_6="13000.00000" pt_clust_7="13000.00000" pt_clust_8="13000.00000" pt_clust_9="37.01680" pt_clust_10="20.81029"></scales>
<clustering>
<clus scale="   20.810">  2 10  1 -1</clus>
<clus scale="   37.017">  1  9  2 -1</clus>
<clus scale="   89.059">  5  6 -1 -1</clus>
<clus scale="   90.881">  7  8 -1 -1</clus>
<clus scale="   90.916">  2  5  1 -1</clus>
<clus scale="   37.017">  1  5  2 -1</clus>
</clustering>
</event>
<event>
10    2  0.1898324E-006  0.2272043E+03  0.7546771E-02  0.1139574E+00
          3   -1    0    0  502    0  0.00000000000E+00  0.00000000000E+00  0.57422522590E+03  0.57422522590E+03  0.00000000000E+00 0. -1.
         -3   -1    0    0    0  501 -0.00000000000E+00 -0.00000000000E+00 -0.25403769895E+04  0.25403769895E+04  0.00000000000E+00 0.  1.
         23    2    1    2    0    0 -0.42945041063E+02  0.13818998356E+03 -0.26557287061E+03  0.31704340020E+03  0.95114772252E+02 0.  0.
         23    2    1    2    0    0 -0.39465591240E+02  0.18470036489E+03  0.45205631777E+03  0.49854606388E+03  0.92312001861E+02 0.  0.
        -11    1    4    4    0    0  0.16017185343E+01  0.15766767379E+03  0.37895274878E+03  0.41044713018E+03  0.00000000000E+00 0. -1.
         11    1    4    4    0    0 -0.41067309774E+02  0.27032691106E+02  0.73103568988E+02  0.88098933702E+02  0.00000000000E+00 0.  1.
        -13    1    3    3    0    0  0.42528158808E+01  0.88559339030E+02 -0.21295733695E+03  0.23067654916E+03  0.00000000000E+00 0. -1.
         13    1    3    3    0    0 -0.47197856944E+02  0.49630644529E+02 -0.52615533659E+02  0.86366851041E+02  0.00000000000E+00 0.  1.
         21    1    1    2  502  503 -0.23959168039E+02  0.12490307840E+02  0.56185545078E+02  0.62344727113E+02  0.00000000000E+00 0.  1.
         21    1    1    2  503  501  0.10636980034E+03 -0.33538065629E+03 -0.22088207559E+04  0.22366680242E+04  0.00000000000E+00 0.  1.
<scales pt_clust_5="13000.00000" pt_clust_6="13000.00000" pt_clust_7="13000.00000" pt_clust_8="13000.00000" pt_clust_9="27.01943" pt_clust_10="207.60606"></scales>
<clustering>
<clus scale="   27.019">  1  9  2 -1</clus>
<clus scale="   92.312">  5  6 -1 -1</clus>
<clus scale="   95.115">  7  8 -1 -1</clus>
<clus scale="  173.968">  2  7  1 -1</clus>
<clus scale="  207.606">  2 10  1 -1</clus>
<clus scale="   27.019">  1  5  2 -1</clus>
</clustering>
</event>
<event>
10    2  0.4122663E-006  0.1351362E+03  0.7546771E-02  0.1226357E+00
          1   -1    0    0  502    0  0.00000000000E+00  0.00000000000E+00  0.65650595873E+03  0.65650595873E+03  0.00000000000E+00 0. -1.
         -1   -1    0    0    0  501 -0.00000000000E+00 -0.00000000000E+00 -0.19388853523E+03  0.19388853523E+03  0.00000000000E+00 0.  1.
         23    2    1    2    0    0  0.35620518988E+02  0.32915483342E+02 -0.12593840895E+03  0.17776726088E+03  0.11570853805E+03 0.  0.
         23    2    1    2    0    0 -0.49204581107E+01 -0.52258851788E+02  0.35134288740E+03  0.36789021169E+03  0.95635688059E+02 0.  0.
        -13    1    3    3    0    0  0.69550012185E+02  0.26528376889E+02 -0.12213739888E+03  0.14303322405E+03  0.00000000000E+00 0.  1.
         13    1    3    3    0    0 -0.33929493196E+02  0.63871064540E+01 -0.38010100644E+01  0.34734036836E+02  0.00000000000E+00 0. -1.
        -13    1    4    4    0    0  0.40875724052E+02 -0.46383514778E+02  0.17486597115E+03  0.18547334883E+03  0.00000000000E+00 0.  1.
         13    1    4    4    0    0 -0.45796182162E+02 -0.58753370096E+01  0.17647691625E+03  0.18241686286E+03  0.00000000000E+00 0. -1.
         21    1    1    2  502  503 -0.63885113061E+02  0.18029483243E+02  0.25743384990E+03  0.26585439062E+03  0.00000000000E+00 0.  1.
         21    1    1    2  503  501  0.33185052183E+02  0.13138852029E+01 -0.20220904858E+02  0.38882630775E+02  0.00000000000E+00 0.  1.
<scales pt_clust_5="13000.00000" pt_clust_6="13000.00000" pt_clust_7="13000.00000" pt_clust_8="13000.00000" pt_clust_9="65.57193" pt_clust_10="33.21105"></scales>
<clustering>
<clus scale="   33.211">  2 10  1 -1</clus>
<clus scale="   65.572">  1  9  2 -1</clus>
<clus scale="   95.636">  7  8 -1 -1</clus>
<clus scale="  115.709">  5  6 -1 -1</clus>
<clus scale="  118.404">  1  7  2 -1</clus>
<clus scale="   65.572">  1  5  2 -1</clus>
</clustering>
</event>
<event>
10    2  0.1898324E-006  0.1606593E+03  0.7546771E-02  0.1208634E+00
         -1   -1    0    0    0  501 -0.00000000000E+00  0.00000000000E+00  0.16628506210E+03  0.16628506210E+03  0.00000000000E+00 0.  1.
          1   -1    0    0  502    0  0.00000000000E+00 -0.00000000000E+00 -0.40115735180E+03  0.40115735180E+03  0.00000000000E+00 0. -1.
         23    2    1    2    0    0 -0.16651297183E+01  0.50448038885E+02  0.28639360399E+02  0.10834936059E+03  0.91496413544E+02 0.  0.
         23    2    1    2    0    0 -0.11164979944E+03 -0.88576106167E+02 -0.22614690842E+03  0.28252848536E+03  0.91479596381E+02 0.  0.
        -11    1    3    3    0    0 -0.20063561590E+02 -0.20694454097E+02  0.18300479787E+02  0.34142561335E+02  0.00000000000E+00 0. -1.
         11    1    3    3    0    0  0.18398431871E+02  0.71142492982E+02  0.10338880612E+02  0.74206799253E+02  0.00000000000E+00 0.  1.
        -13    1    4    4    0    0 -0.44608003583E+02  0.14033638606E+02 -0.64317571591E+02  0.79520858971E+02  0.00000000000E+00 0.  1.
         13    1    4    4    0    0 -0.67041795859E+02 -0.10260974477E+03 -0.16182933683E+03  0.20300762639E+03  0.00000000000E+00 0. -1.
         21    1    1    2  502  503  0.32715657849E+02 -0.39746212922E+02 -0.38828945150E+02  0.64480715657E+02  0.00000000000E+00 0.  1.
         21    1    1    2  503  501  0.80599271311E+02  0.77874280204E+02  0.14642034732E+01  0.11208385229E+03  0.00000000000E+00 0.  1.
<scales pt_clust_5="13000.00000" pt_clust_6="13000.00000" pt_clust_7="13000.00000" pt_clust_8="13000.00000" pt_clust_9="51.47889" pt_clust_10="132.07155"></scales>
<clustering>
<clus scale="   51.479">  2  9  1 -1</clus>
<clus scale="   91.480">  7  8 -1 -1</clus>
<clus scale="   91.496">  5  6 -1 -1</clus>
<clus scale="  102.392">  1  5  2 -1</clus>
<clus scale="  132.072">  1 10  2 -1</clus>
<clus scale="   51.479">  2  5  1 -1</clus>
</clustering>
</event>
<event>
10    2  0.1898324E-006  0.1025129E+03  0.7546771E-02  0.1276106E+00
          2   -1    0    0  502    0  0.00000000000E+00  0.00000000000E+00  0.94492591439E+03  0.94492591439E+03  0.00000000000E+00 0. -1.
         -2   -1    0    0    0  501 -0.00000000000E+00 -0.00000000000E+00 -0.38863886445E+02  0.38863886445E+02  0.00000000000E+00 0.  1.
         23    2    1    2    0    0 -0.37640731423E+02 -0.14595671808E+02  0.29061049599E+03  0.30777057448E+03  0.92943035449E+02 0.  0.
         23    2    1    2    0    0  0.42179688102E+02  0.15194105485E+02  0.53940017135E+03  0.54881955222E+03  0.90776478839E+02 0.  0.
        -13    1    3    3    0    0 -0.52731356596E+02  0.21025969644E+02  0.22054821248E+03  0.22773713223E+03  0.00000000000E+00 0. -1.
         13    1    3    3    0    0  0.15090625173E+02 -0.35621641451E+02  0.70062283508E+02  0.80033442248E+02  0.00000000000E+00 0.  1.
        -13    1    4    4    0    0 -0.18305014018E+02  0.33081531141E+02  0.22507343725E+03  0.22822689017E+03  0.00000000000E+00 0. -1.
         13    1    4    4    0    0  0.60484702120E+02 -0.17887425655E+02  0.31432673411E+03  0.32059266205E+03  0.00000000000E+00 0.  1.
         21    1    1    2  502  503 -0.24767787373E+02 -0.40036380769E+01  0.95615623487E+02  0.98852515719E+02  0.00000000000E+00 0. -1.
         21    1    1    2  503  501  0.20228830694E+02  0.34052043993E+01 -0.19564262884E+02  0.28347158419E+02  0.00000000000E+00 0.  1.
<scales pt_clust_5="13000.00000" pt_clust_6="13000.00000" pt_clust_7="13000.00000" pt_clust_8="13000.00000" pt_clust_9="22.86238" pt_clust_10="20.51343"></scales>
<clustering>
<clus scale="   20.513">  2 10  1 -1</clus>
<clus scale="   22.862">  2  9  1 -1</clus>
<clus scale="   90.776">  7  8 -1 -1</clus>
<clus scale="   92.943">  5  6 -1 -1</clus>
<clus scale="  100.553">  1  7  2 -1</clus>
<clus scale="  100.553">  1  5  2 -1</clus>
</clustering>
</event>
<event>
10    2  0.1898324E-006  0.1061145E+03  0.7546771E-02  0.1268193E+00
          1   -1    0    0  502    0  0.00000000000E+00  0.00000000000E+00  0.19090935437E+03  0.19090935437E+03  0.00000000000E+00 0. -1.
         -1   -1    0    0    0  501 -0.00000000000E+00 -0.00000000000E+00 -0.34455800504E+03  0.34455800504E+03  0.00000000000E+00 0.  1.
         23    2    1    2    0    0 -0.41340503325E+02  0.57120399474E+02 -0.15563893131E+03  0.19446339656E+03  0.92848039360E+02 0.  0.
         23    2    1    2    0    0  0.47892379843E+02 -0.39991889501E+02  0.13276453382E+03  0.17329101883E+03  0.92251420018E+02 0.  0.
        -11    1    4    4    0    0  0.39320753660E+02 -0.62053491369E+02  0.54349121112E+02  0.91381532188E+02  0.00000000000E+00 0. -1.
         11    1    4    4    0    0  0.85716261831E+01  0.22061601868E+02  0.78415412709E+02  0.81909486646E+02  0.00000000000E+00 0.  1.
        -13    1    3    3    0    0  0.28914368346E+02  0.19080184943E+02 -0.31408445114E+02  0.46760930047E+02  0.00000000000E+00 0.  1.
         13    1    3    3    0    0 -0.70254871672E+02  0.38040214531E+02 -0.12423048619E+03  0.14770246652E+03  0.00000000000E+00 0. -1.
         21    1    1    2  502  503 -0.20010330002E+02  0.21149762265E+01  0.11727073766E+02  0.23289712114E+02  0.00000000000E+00 0.  1.
         21    1    1    2  503  501  0.13458453484E+02 -0.19243486200E+02 -0.14250132694E+03  0.14442323190E+03  0.00000000000E+00 0.  1.
<scales pt_clust_5="13000.00000" pt_clust_6="13000.00000" pt_clust_7="13000.00000" pt_clust_8="13000.00000" pt_clust_9="20.12179" pt_clust_10="23.40979"></scales>
<clustering>
<clus scale="   20.122">  1  9  2 -1</clus>
<clus scale="   23.410">  2 10  1 -1</clus>
<clus scale="   92.251">  5  6 -1 -1</clus>
<clus scale="   92.848">  7  8 -1 -1</clus>
<clus scale="  105.593">  1  5  2 -1</clus>
<clus scale="   20.122">  1  5  2 -1</clus>
</clustering>
</event>
<event>
10    2  0.1898324E-006  0.3767058E+03  0.7546771E-02  0.1052229E+00
         -1   -1    0    0    0  501 -0.00000000000E+00  0.00000000000E+00  0.90667144584E+02  0.90667144584E+02  0.00000000000E+00 0.  1.
          1   -1    0    0  502    0  0.00000000000E+00 -0.00000000000E+00 -0.26170078785E+04  0.26170078785E+04  0.00000000000E+00 0. -1.
         23    2    1    2    0    0 -0.11193311130E+03 -0.31367735169E+03 -0.45233844791E+03  0.56860678584E+03  0.88210561032E+02 0.  0.
         23    2    1    2    0    0  0.18067134608E+03  0.33111274212E+03 -0.19433629563E+04  0.19817381272E+04  0.91370901418E+02 0.  0.
        -13    1    3    3    0    0 -0.16691638853E+02 -0.15339269903E+03 -0.16342937688E+03  0.22476007687E+03  0.00000000000E+00 0.  1.
         13    1    3    3    0    0 -0.95241472445E+02 -0.16028465266E+03 -0.28890907102E+03  0.34384670897E+03  0.00000000000E+00 0. -1.
        -13    1    4    4    0    0  0.60631034928E+02  0.39301407527E+02 -0.39416772697E+03  0.40073547387E+03  0.00000000000E+00 0.  1.
         13    1    4    4    0    0  0.12004031116E+03  0.29181133459E+03 -0.15491952293E+04  0.15810026533E+04  0.00000000000E+00 0. -1.
         21    1    1    2  502  503 -0.53684312579E+02 -0.21753972114E+01 -0.12359244373E+03  0.13476583364E+03  0.00000000000E+00 0. -1.
         21    1    1    2  503  501 -0.15053922208E+02 -0.15259993215E+02 -0.70468859643E+01  0.22564276380E+02  0.00000000000E+00 0.  1.
<scales pt_clust_5="13000.00000" pt_clust_6="13000.00000" pt_clust_7="13000.00000" pt_clust_8="13000.00000" pt_clust_9="54.79244" pt_clust_10="21.43567"></scales>
<clustering>
<clus scale="   21.436">  1 10  2 -1</clus>
<clus scale="   54.792">  1  9  2 -1</clus>
<clus scale="   88.211">  5  6 -1 -1</clus>
<clus scale="   91.371">  7  8 -1 -1</clus>
<clus scale="  375.952">  1  5  2 -1</clus>
<clus scale="  376.706">  2  5  1 -1</clus>
</clustering>
</event>
<event>
10    2  0.1898324E-006  0.1285040E+03  0.7546771E-02  0.1230313E+00
          2   -1    0    0  502    0  0.00000000000E+00  0.00000000000E+00  0.74889693096E+03  0.74889693096E+03  0.00000000000E+00 0. -1.
         -2   -1    0    0    0  501 -0.00000000000E+00 -0.00000000000E+00 -0.22028900121E+03  0.22028900121E+03  0.00000000000E+00 0.  1.
         23    2    1    2    0    0  0.46171779892E+02  0.97489405599E+02  0.26863623225E+02  0.14376376112E+03  0.91161106268E+02 0.  0.
         23    2    1    2    0    0 -0.24426599004E+02 -0.51545224368E+02  0.26364076213E+03  0.28546098849E+03  0.93423528077E+02 0.  0.
        -11    1    4    4    0    0 -0.31105072746E+02 -0.72842950446E+01  0.19885848965E+02  0.37630220486E+02  0.00000000000E+00 0.  1.
         11    1    4    4    0    0  0.66784737418E+01 -0.44260929323E+02  0.24375491317E+03  0.24783076801E+03  0.00000000000E+00 0. -1.
        -13    1    3    3    0    0  0.51239529346E+02  0.93914741069E+01  0.17825738297E+02  0.55058569718E+02  0.00000000000E+00 0. -1.
         13    1    3    3    0    0 -0.50677494544E+01  0.88097931492E+02  0.90378849282E+01  0.88705191402E+02  0.00000000000E+00 0.  1.
         21    1    1    2  502  503  0.31230573818E+02 -0.47600630186E+02  0.38220487979E+03  0.38642171118E+03  0.00000000000E+00 0. -1.
         21    1    1    2  503  501 -0.52975754706E+02  0.16564489543E+01 -0.14410133539E+03  0.15353947138E+03  0.00000000000E+00 0.  1.
<scales pt_clust_5="13000.00000" pt_clust_6="13000.00000" pt_clust_7="13000.00000" pt_clust_8="13000.00000" pt_clust_9="56.04769" pt_clust_10="53.00165"></scales>
<clustering>
<clus scale="   53.002">  2 10  1 -1</clus>
<clus scale="   56.048">  1  9  2 -1</clus>
<clus scale="   91.161">  7  8 -1 -1</clus>
<clus scale="   93.424">  5  6 -1 -1</clus>
<clus scale="  126.869">  2  7  1 -1</clus>
<clus scale="   56.048">  1  5  2 -1</clus>
</clustering>
</event>
<event>
10    2  0.1898324E-006  0.9857315E+02  0.7546771E-02  0.1284490E+00
          2   -1    0    0  502    0  0.00000000000E+00  0.00000000000E+00  0.74910082025E+03  0.74910082025E+03  0.00000000000E+00 0. -1.
         -2   -1    0    0    0  501 -0.00000000000E+00 -0.00000000000E+00 -0.59902407143E+02  0.59902407143E+02  0.00000000000E+00 0.  1.
         23    2    1    2    0    0 -0.97536961587E+01 -0.73293172081E+01  0.21524382366E+03  0.23420591962E+03  0.91507681001E+02 0.  0.
         23    2    1    2    0    0 -0.39267049936E+02  0.40498195626E+02  0.36620291133E+03  0.38220259701E+03  0.93766986896E+02 0.  0.
        -11    1    3    3    0    0 -0.44095634431E+02 -0.11288789942E+01  0.56542070571E+02  0.71712656401E+02  0.00000000000E+00 0. -1.
         11    1    3    3    0    0  0.34341938272E+02 -0.62004382139E+01  0.15870175309E+03  0.16249326322E+03  0.00000000000E+00 0.  1.
        -13    1    4    4    0    0  0.24190582897E+01  0.54528791433E+02  0.11646348414E+03  0.12861953225E+03  0.00000000000E+00 0.  1.
         13    1    4    4    0    0 -0.41686108226E+02 -0.14030595807E+02  0.24973942719E+03  0.25358306476E+03  0.00000000000E+00 0. -1.
         21    1    1    2  502  503  0.48876081609E+02 -0.60240089160E+02  0.13403379714E+03  0.15486380620E+03  0.00000000000E+00 0. -1.
         21    1    1    2  503  501  0.14466448600E+00  0.27071210742E+02 -0.26282119024E+02  0.37730904564E+02  0.00000000000E+00 0.  1.
<scales pt_clust_5="13000.00000" pt_clust_6="13000.00000" pt_clust_7="13000.00000" pt_clust_8="13000.00000" pt_clust_9="70.05334" pt_clust_10="27.07160"></scales>
<clustering>
<clus scale="   27.072">  2 10  1 -1</clus>
<clus scale="   70.053">  2  9  1 -1</clus>
<clus scale="   91.508">  5  6 -1 -1</clus>
<clus scale="   93.767">  7  8 -1 -1</clus>
<clus scale="   96.427">  2  5  1 -1</clus>
<clus scale="   98.573">  1  5  2 -1</clus>
</clustering>
</event>
<event>
10    2  0.1898324E-006  0.1578580E+03  0.7546771E-02  0.1199045E+00
         -1   -1    0    0    0  501 -0.00000000000E+00  0.00000000000E+00  0.78810586110E+02  0.78810586110E+02  0.00000000000E+00 0.  1.
          1   -1    0    0  502    0  0.00000000000E+00 -0.00000000000E+00 -0.74877007674E+03  0.74877007674E+03  0.00000000000E+00 0. -1.
         23    2    1    2    0    0  0.55678490085E+02  0.42014042338E+02 -0.24525685205E+03  0.28439953387E+03  0.12596387330E+03 0.  0.
         23    2    1    2    0    0 -0.10056800725E+03 -0.52002206542E+02 -0.38084400824E+03  0.40795938791E+03  0.92577265056E+02 0.  0.
        -11    1    3    3    0    0  0.82591792558E+02  0.22297012583E+02 -0.84600073099E+02  0.12031514176E+03  0.00000000000E+00 0.  1.
         11    1    3    3    0    0 -0.26913302474E+02  0.19717029755E+02 -0.16065677895E+03  0.16408439211E+03  0.00000000000E+00 0. -1.
        -13    1    4    4    0    0 -0.10013895469E+03 -0.73098010705E+02 -0.30501846195E+03  0.32925277759E+03  0.00000000000E+00 0. -1.
         13    1    4    4    0    0 -0.42905256210E+00  0.21095804163E+02 -0.75825546289E+02  0.78706610329E+02  0.00000000000E+00 0.  1.
         21    1    1    2  502  503  0.16120790576E+02  0.53458338318E+02 -0.58707883141E+02  0.81020302192E+02  0.00000000000E+00 0. -1.
         21    1    1    2  503  501  0.28768726593E+02 -0.43470174113E+02  0.14849252801E+02  0.54201438873E+02  0.00000000000E+00 0.  1.
<scales pt_clust_5="13000.00000" pt_clust_6="13000.00000" pt_clust_7="13000.00000" pt_clust_8="13000.00000" pt_clust_9="48.50725" pt_clust_10="52.12769"></scales>
<clustering>
<clus scale="   52.128">  1 10  2 -1</clus>
<clus scale="   48.507">  1  9  2 -1</clus>
<clus scale="   92.577">  7  8 -1 -1</clus>
<clus scale="  125.964">  5  6 -1 -1</clus>
<clus scale="  132.751">  2  7  1 -1</clus>
<clus scale="  132.751">  2  5  1 -1</clus>
</clustering>
</event>
<event>
10    2  0.1898324E-006  0.1377315E+03  0.7546771E-02  0.1217315E+00
          1   -1    0    0  502    0  0.00000000000E+00  0.00000000000E+00  0.25159858721E+03  0.25159858721E+03  0.00000000000E+00 0. -1.
         -1   -1    0    0    0  501 -0.00000000000E+00 -0.00000000000E+00 -0.29582336275E+03  0.29582336275E+03  0.00000000000E+00 0.  1.
         23    2    1    2    0    0 -0.11036131856E+03 -0.14044771849E+02 -0.30452352488E+02  0.14492662565E+03  0.87746822167E+02 0.  0.
         23    2    1    2    0    0  0.13424145728E+03 -0.32684382812E+02  0.30031567782E+02  0.16851782032E+03  0.91691455268E+02 0.  0.
        -11    1    3    3    0    0 -0.11536854997E+03  0.85974253065E+01 -0.14084439962E+02  0.11654265096E+03  0.00000000000E+00 0.  1.
         11    1    3    3    0    0  0.50072314166E+01 -0.22642197156E+02 -0.16367912525E+02  0.28383974685E+02  0.00000000000E+00 0. -1.
        -11    1    4    4    0    0  0.51928275750E+02 -0.57559225220E+02  0.28253443180E+02  0.82509801126E+02  0.00000000000E+00 0.  1.
         11    1    4    4    0    0  0.82313181528E+02  0.24874842408E+02  0.17781246017E+01  0.86008019191E+02  0.00000000000E+00 0. -1.
         21    1    1    2  502  503 -0.86172620724E+02  0.11977314191E+02  0.61674756672E+02  0.10664404450E+03  0.00000000000E+00 0.  1.
         21    1    1    2  503  501  0.62292482003E+02  0.34751840470E+02 -0.10547874750E+03  0.12733345949E+03  0.00000000000E+00 0.  1.
<scales pt_clust_5="13000.00000" pt_clust_6="13000.00000" pt_clust_7="13000.00000" pt_clust_8="13000.00000" pt_clust_9="80.04995" pt_clust_10="71.33052"></scales>
<clustering>
<clus scale="   71.331">  2 10  1 -1</clus>
<clus scale="   80.050">  1  9  2 -1</clus>
<clus scale="   87.747">  5  6 -1 -1</clus>
<clus scale="   91.691">  7  8 -1 -1</clus>
<clus scale="  135.138">  2  5  1 -1</clus>
<clus scale="   80.050">  1  5  2 -1</clus>
</clustering>
</event>
<event>
10    2  0.1898324E-006  0.1387203E+03  0.7546771E-02  0.1223146E+00
          1   -1    0    0  502    0  0.00000000000E+00  0.00000000000E+00  0.11392297762E+03  0.11392297762E+03  0.00000000000E+00 0. -1.
         -1   -1    0    0    0  501 -0.00000000000E+00 -0.00000000000E+00 -0.70225576357E+03  0.70225576357E+03  0.00000000000E+00 0.  1.
         23    2    1    2    0    0 -0.65489255077E+02 -0.43543431520E+02 -0.32776086219E+03  0.34986125796E+03  0.93759501269E+02 0.  0.
         23    2    1    2    0    0 -0.47525741785E+02 -0.41606502813E+02 -0.10710363234E+03  0.15401423653E+03  0.90881239999E+02 0.  0.
        -13    1    4    4    0    0 -0.57617757901E+02  0.91735731149E+01 -0.48995687540E+02  0.76187517788E+02  0.00000000000E+00 0.  1.
         13    1    4    4    0    0  0.10092016116E+02 -0.50780075927E+02 -0.58107944804E+02  0.77826718740E+02  0.00000000000E+00 0. -1.
        -13    1    3    3    0    0 -0.78538831996E+02 -0.28070548624E+01 -0.18998921353E+03  0.20560187000E+03  0.00000000000E+00 0.  1.
         13    1    3    3    0    0  0.13049576919E+02 -0.40736376658E+02 -0.13777164866E+03  0.14425938796E+03  0.00000000000E+00 0. -1.
         21    1    1    2  502  503 -0.20644542869E+02 -0.22004554049E+02  0.42431417103E+02  0.52065561618E+02  0.00000000000E+00 0. -1.
         21    1    1    2  503  501  0.13365953973E+03  0.10715448838E+03 -0.19589970852E+03  0.26023768509E+03  0.00000000000E+00 0.  1.
<scales pt_clust_5="13000.00000" pt_clust_6="13000.00000" pt_clust_7="13000.00000" pt_clust_8="13000.00000" pt_clust_9="30.17279" pt_clust_10="102.23731"></scales>
<clustering>
<clus scale="   30.173">  1  9  2 -1</clus>
<clus scale="   90.881">  5  6 -1 -1</clus>
<clus scale="   93.760">  7  8 -1 -1</clus>
<clus scale="  117.031">  1  5  2 -1</clus>
<clus scale="  102.237">  1 10  2 -1</clus>
<clus scale="   30.173">  1  5  2 -1</clus>
</clustering>
</event>
<event>
10    2  0.1898324E-006  0.1231353E+03  0.7546771E-02  0.1241738E+00
          2   -1    0    0  502    0  0.00000000000E+00  0.00000000000E+00  0.41705448345E+03  0.41705448345E+03  0.00000000000E+00 0.  1.
         -2   -1    0    0    0  501 -0.00000000000E+00 -0.00000000000E+00 -0.57942697468E+02  0.57942697468E+02  0.00000000000E+00 0. -1.
         23    2    1    2    0    0 -0.71958928086E+02  0.24756208803E+02  0.12206491276E+03  0.17579204856E+03  0.10105465949E+03 0.  0.
         23    2    1    2    0    0  0.48233220346E+02 -0.43179317355E+02  0.14984169949E+03  0.18634828612E+03  0.89901345052E+02 0.  0.
        -11    1    4    4    0    0  0.60442993831E+02 -0.84233225563E+01  0.46759654911E+02  0.76881553012E+02  0.00000000000E+00 0.  1.
         11    1    4    4    0    0 -0.12209773485E+02 -0.34755994799E+02  0.10308204458E+03  0.10946673311E+03  0.00000000000E+00 0. -1.
        -11    1    3    3    0    0 -0.32919679985E+02  0.34733535882E+02  0.12650512691E+03  0.13525409783E+03  0.00000000000E+00 0.  1.
         11    1    3    3    0    0 -0.39039248101E+02 -0.99773270787E+01 -0.44402141462E+01  0.40537950733E+02  0.00000000000E+00 0. -1.
         21    1    1    2  502  503  0.35929268129E+02 -0.11832292085E+02  0.56916392503E+02  0.68340260314E+02  0.00000000000E+00 0.  1.
         21    1    1    2  503  501 -0.12203560389E+02  0.30255400637E+02  0.30288781225E+02  0.44516585920E+02  0.00000000000E+00 0. -1.
<scales pt_clust_5="13000.00000" pt_clust_6="13000.00000" pt_clust_7="13000.00000" pt_clust_8="13000.00000" pt_clust_9="35.57177" pt_clust_10="32.62386"></scales>
<clustering>
<clus scale="   32.624">  2 10  1 -1</clus>
<clus scale="   35.572">  1  9  2 -1</clus>
<clus scale="   89.901">  5  6 -1 -1</clus>
<clus scale="  101.055">  7  8 -1 -1</clus>
<clus scale="  114.160">  1  5  2 -1</clus>
<clus scale="   35.572">  1  5  2 -1</clus>
</clustering>
</event>
<event>
10    2  0.1898324E-006  0.1120153E+03  0.7546771E-02  0.1258619E+00
         -3   -1    0    0    0  501 -0.00000000000E+00  0.00000000000E+00  0.28810237456E+03  0.28810237456E+03  0.00000000000E+00 0.  1.
          3   -1    0    0  502    0  0.00000000000E+00 -0.00000000000E+00 -0.36820051151E+03  0.36820051151E+03  0.00000000000E+00 0. -1.
         23    2    1    2    0    0  0.54124119349E+02 -0.25905073242E+02 -0.16528029640E+02  0.11092405006E+03  0.91817623600E+02 0.  0.
         23    2    1    2    0    0  0.30401919569E+02  0.10617857413E+03 -0.22301205078E+03  0.26368950598E+03  0.87175767588E+02 0.  0.
        -11    1    3    3    0    0  0.45773655054E+01 -0.51947825238E+02 -0.17302420898E+02  0.54944541047E+02  0.00000000000E+00 0.  1.
         11    1    3    3    0    0  0.49546753843E+02  0.26042751995E+02  0.77439125763E+00  0.55979509016E+02  0.00000000000E+00 0. -1.
        -13    1    4    4    0    0 -0.21643626324E+02 -0.71579535027E+00 -0.30022498390E+02  0.37017689460E+02  0.00000000000E+00 0.  1.
         13    1    4    4    0    0  0.52045545893E+02  0.10689436948E+03 -0.19298955239E+03  0.22667181652E+03  0.00000000000E+00 0. -1.
         21    1    1    2  502  503  0.14336341472E+02 -0.40276761370E+02 -0.38056235710E+02  0.57236572833E+02  0.00000000000E+00 0.  1.
         21    1    1    2  503  501 -0.98862380389E+02 -0.39996739513E+02  0.19749817918E+03  0.22445275719E+03  0.00000000000E+00 0.  1.
<scales pt_clust_5="13000.00000" pt_clust_6="13000.00000" pt_clust_7="13000.00000" pt_clust_8="13000.00000" pt_clust_9="42.75217" pt_clust_10="106.73809"></scales>
<clustering>
<clus scale="   42.752">  2  9  1 -1</clus>
<clus scale="   87.176">  7  8 -1 -1</clus>
<clus scale="   91.818">  5  6 -1 -1</clus>
<clus scale="  106.738">  1 10  2 -1</clus>
<clus scale="  108.243">  2  7  1 -1</clus>
<clus scale="   42.752">  2  5  1 -1</clus>
</clustering>
</event>
<event>
10    2  0.1898324E-006  0.2013004E+03  0.7546771E-02  0.1149132E+00
          2   -1    0    0  502    0  0.00000000000E+00  0.00000000000E+00  0.85240397833E+03  0.85240397833E+03  0.00000000000E+00 0. -1.
         -2   -1    0    0    0  501 -0.00000000000E+00 -0.00000000000E+00 -0.76922743806E+02  0.76922743806E+02  0.00000000000E+00 0.  1.
         23    2    1    2    0    0 -0.19514344096E+03  0.89337964696E+01  0.38884233513E+03  0.44554381246E+03  0.95656426681E+02 0.  0.
         23    2    1    2    0    0  0.15845571280E+03 -0.42877073772E+02  0.35633581996E+03  0.40267596703E+03  0.90697637611E+02 0.  0.
        -11    1    4    4    0    0  0.79697681187E+02 -0.65503083276E+02  0.16591004136E+03  0.19536764351E+03  0.00000000000E+00 0.  1.
         11    1    4    4    0    0  0.78758031613E+02  0.22626009504E+02  0.19042577859E+03  0.20730832352E+03  0.00000000000E+00 0. -1.
        -13    1    3    3    0    0 -0.10327850174E+03  0.20110916781E+02  0.29731840424E+03  0.31538727209E+03  0.00000000000E+00 0. -1.
         13    1    3    3    0    0 -0.91864939220E+02 -0.11177120311E+02  0.91523930884E+02  0.13015654037E+03  0.00000000000E+00 0.  1.
         21    1    1    2  502  503  0.10958021546E+02  0.27276036281E+02  0.42650951577E+02  0.51799267001E+02  0.00000000000E+00 0.  1.
         21    1    1    2  503  501  0.25729706611E+02  0.66672410213E+01 -0.12347872138E+02  0.29307675641E+02  0.00000000000E+00 0. -1.
<scales pt_clust_5="13000.00000" pt_clust_6="13000.00000" pt_clust_7="13000.00000" pt_clust_8="13000.00000" pt_clust_9="30.73105" pt_clust_10="26.57950"></scales>
<clustering>
<clus scale="   26.580">  2 10  1 -1</clus>
<clus scale="   30.731">  2  9  1 -1</clus>
<clus scale="   90.698">  5  6 -1 -1</clus>
<clus scale="   95.656">  7  8 -1 -1</clus>
<clus scale="  198.992">  1  5  2 -1</clus>
<clus scale="  198.992">  1  5  2 -1</clus>
</clustering>
</event>
<event>
10    2  0.1898324E-006  0.9511321E+02  0.7546771E-02  0.1291132E+00
         -3   -1    0    0    0  501 -0.00000000000E+00  0.00000000000E+00  0.14530837512E+03  0.14530837512E+03  0.00000000000E+00 0.  1.
          3   -1    0    0  502    0  0.00000000000E+00 -0.00000000000E+00 -0.52085319403E+03  0.52085319403E+03  0.00000000000E+00 0. -1.
         23    2    1    2    0    0  0.14708350441E+02 -0.68086203795E+01  0.43343593122E+02  0.10235525037E+03  0.91297520933E+02 0.  0.
         23    2    1    2    0    0  0.55298123301E+01  0.24710059817E+01 -0.13090776603E+03  0.15949252253E+03  0.90908398091E+02 0.  0.
        -11    1    4    4    0    0 -0.20488359020E+02 -0.31281868755E+02 -0.24076948825E+02  0.44475022573E+02  0.00000000000E+00 0.  1.
         11    1    4    4    0    0  0.26018171350E+02  0.33752874737E+02 -0.10683081720E+03  0.11501749996E+03  0.00000000000E+00 0. -1.
        -13    1    3    3    0    0 -0.33897849799E+02 -0.14326099885E+02  0.41616833039E-02  0.36800833907E+02  0.00000000000E+00 0.  1.
         13    1    3    3    0    0  0.48606200240E+02  0.75174795053E+01  0.43339431439E+02  0.65554416459E+02  0.00000000000E+00 0. -1.
         21    1    1    2  502  503 -0.41596193864E+02  0.12713199639E+02 -0.34245473919E+03  0.34520590549E+03  0.00000000000E+00 0. -1.
         21    1    1    2  503  501  0.21358031092E+02 -0.83755852412E+01  0.54474093193E+02  0.59107890754E+02  0.00000000000E+00 0.  1.
<scales pt_clust_5="13000.00000" pt_clust_6="13000.00000" pt_clust_7="13000.00000" pt_clust_8="13000.00000" pt_clust_9="43.14017" pt_clust_10="22.94158"></scales>
<clustering>
<clus scale="   22.942">  1 10  2 -1</clus>
<clus scale="   43.140">  2  9  1 -1</clus>
<clus scale="   90.908">  5  6 -1 -1</clus>
<clus scale="   91.298">  7  8 -1 -1</clus>
<clus scale="   94.740">  2  5  1 -1</clus>
<clus scale="   43.140">  2  5  1 -1</clus>
</clustering>
</event>
<event>
10    2  0.1898324E-006  0.1710712E+03  0.7546771E-02  0.1177015E+00
          1   -1    0    0  502    0  0.00000000000E+00  0.00000000000E+00  0.27576319781E+03  0.27576319781E+03  0.00000000000E+00 0. -1.
         -1   -1    0    0    0  501 -0.00000000000E+00 -0.00000000000E+00 -0.57191897158E+03  0.57191897158E+03  0.00000000000E+00 0.  1.
         23    2    1    2    0    0 -0.14265214709E+03  0.15656242255E+03 -0.16040898530E+03  0.28334395822E+03  0.98444547176E+02 0.  0.
         23    2    1    2    0    0  0.35027022842E+02 -0.77590852467E+02 -0.43666656783E+02  0.13593486290E+03  0.96562297625E+02 0.  0.
        -11    1    4    4    0    0 -0.22875550979E+02 -0.45139884908E+02 -0.47557321618E+02  0.69444934167E+02  0.00000000000E+00 0.  1.
         11    1    4    4    0    0  0.57902573821E+02 -0.32450967560E+02  0.38906648347E+01  0.66489928737E+02  0.00000000000E+00 0. -1.
        -11    1    3    3    0    0 -0.10679839841E+03  0.11113843747E+03 -0.16437760586E+03  0.22533896133E+03  0.00000000000E+00 0. -1.
         11    1    3    3    0    0 -0.35853748676E+02  0.45423985080E+02  0.39686205537E+01  0.58004996886E+02  0.00000000000E+00 0.  1.
         21    1    1    2  502  503  0.13182631195E+03 -0.20606910208E+02  0.13672137577E+03  0.19103810055E+03  0.00000000000E+00 0. -1.
         21    1    1    2  503  501 -0.24201187706E+02 -0.58364659874E+02 -0.22880150745E+03  0.23736524771E+03  0.00000000000E+00 0.  1.
<scales pt_clust_5="13000.00000" pt_clust_6="13000.00000" pt_clust_7="13000.00000" pt_clust_8="13000.00000" pt_clust_9="132.32476" pt_clust_10="63.18331"></scales>
<clustering>
<clus scale="   63.183">  2 10  1 -1</clus>
<clus scale="   96.562">  5  6 -1 -1</clus>
<clus scale="   98.445">  7  8 -1 -1</clus>
<clus scale="  132.325">  1  9  2 -1</clus>
<clus scale="  169.995">  1  5  2 -1</clus>
<clus scale="  132.325">  1  5  2 -1</clus>
</clustering>
</event>
<event>
10    2  0.1898324E-006  0.1092296E+03  0.7546771E-02  0.1262027E+00
          2   -1    0    0  502    0  0.00000000000E+00  0.00000000000E+00  0.72844842425E+03  0.72844842425E+03  0.00000000000E+00 0. -1.
         -2   -1    0    0    0  501 -0.00000000000E+00 -0.00000000000E+00 -0.22188508698E+03  0.22188508698E+03  0.00000000000E+00 0.  1.
         23    2    1    2    0    0  0.77683628437E+02 -0.44904194187E+01 -0.48953321944E+02  0.13015718919E+03  0.92138787571E+02 0.  0.
         23    2    1    2    0    0 -0.36218673834E+02  0.75508944570E+02  0.63825953138E+03  0.65028214782E+03  0.92077409464E+02 0.  0.
        -13    1    4    4    0    0 -0.55837858345E+02  0.82117238381E+02  0.58032422958E+03  0.58875913471E+03  0.00000000000E+00 0. -1.
         13    1    4    4    0    0  0.19619184511E+02 -0.66082938111E+01  0.57935301800E+02  0.61523013114E+02  0.00000000000E+00 0.  1.
        -13    1    3    3    0    0  0.84531186628E+02  0.21535887030E+02 -0.54255688811E+02  0.10272777478E+03  0.00000000000E+00 0.  1.
         13    1    3    3    0    0 -0.68475581913E+01 -0.26026306449E+02  0.53023668665E+01  0.27429414411E+02  0.00000000000E+00 0. -1.
         21    1    1    2  502  503  0.17322637578E+02 -0.19249410239E+02  0.25458372544E+02  0.36314491595E+02  0.00000000000E+00 0. -1.
         21    1    1    2  503  501 -0.58787592181E+02 -0.51769114913E+02 -0.10820124471E+03  0.13357968262E+03  0.00000000000E+00 0.  1.
<scales pt_clust_5="13000.00000" pt_clust_6="13000.00000" pt_clust_7="13000.00000" pt_clust_8="13000.00000" pt_clust_9="25.89621" pt_clust_10="78.32911"></scales>
<clustering>
<clus scale="   25.896">  1  9  2 -1</clus>
<clus scale="   78.329">  2 10  1 -1</clus>
<clus scale="   92.077">  5  6 -1 -1</clus>
<clus scale="   92.139">  7  8 -1 -1</clus>
<clus scale="  109.178">  1  5  2 -1</clus>
<clus scale="   25.896">  1  5  2 -1</clus>
</clustering>
</event>
<event>
10    2  0.1898324E-006  0.9585085E+02  0.7546771E-02  0.1289374E+00
         -1   -1    0    0    0  501 -0.00000000000E+00  0.00000000000E+00  0.86823803935E+02  0.86823803935E+02  0.00000000000E+00 0.  1.
          1   -1    0    0  502    0  0.00000000000E+00 -0.00000000000E+00 -0.34873947209E+03  0.34873947209E+03  0.00000000000E+00 0. -1.
         23    2    1    2    0    0  0.24293202491E+01  0.80200829355E+01 -0.10077224239E+03  0.13514733850E+03  0.89663453751E+02 0.  0.
         23    2    1    2    0    0  0.68516496993E+02  0.39080603685E+02 -0.12607900137E+03  0.17376068024E+03  0.89861312405E+02 0.  0.
        -11    1    4    4    0    0  0.73021837328E+02  0.60527312284E+02 -0.11542196506E+03  0.14939201544E+03  0.00000000000E+00 0. -1.
         11    1    4    4    0    0 -0.45053403356E+01 -0.21446708599E+02 -0.10657036310E+02  0.24368664801E+02  0.00000000000E+00 0.  1.
        -11    1    3    3    0    0  0.19899938246E+01  0.48689739900E+02 -0.62944924149E+02  0.79603481852E+02  0.00000000000E+00 0. -1.
         11    1    3    3    0    0  0.43932642456E+00 -0.40669656965E+02 -0.37827318246E+02  0.55543856645E+02  0.00000000000E+00 0.  1.
         21    1    1    2  502  503 -0.47374211432E+02 -0.22175425747E+02 -0.63377108049E+02  0.82174955069E+02  0.00000000000E+00 0.  1.
         21    1    1    2  503  501 -0.23571605809E+02 -0.24925260874E+02  0.28312683653E+02  0.44480302221E+02  0.00000000000E+00 0.  1.
<scales pt_clust_5="13000.00000" pt_clust_6="13000.00000" pt_clust_7="13000.00000" pt_clust_8="13000.00000" pt_clust_9="58.30317" pt_clust_10="34.30582"></scales>
<clustering>
<clus scale="   34.306">  1 10  2 -1</clus>
<clus scale="   58.303">  2  9  1 -1</clus>
<clus scale="   89.663">  7  8 -1 -1</clus>
<clus scale="   89.861">  5  6 -1 -1</clus>
<clus scale="   95.665">  1  7  2 -1</clus>
<clus scale="   58.303">  2  5  1 -1</clus>
</clustering>
</event>
<event>
10    2  0.1898324E-006  0.1261711E+03  0.7546771E-02  0.1238572E+00
          1   -1    0    0  502    0  0.00000000000E+00  0.00000000000E+00  0.22872645957E+03  0.22872645957E+03  0.00000000000E+00 0. -1.
         -1   -1    0    0    0  501 -0.00000000000E+00 -0.00000000000E+00 -0.18825505639E+03  0.18825505639E+03  0.00000000000E+00 0.  1.
         23    2    1    2    0    0  0.55876384949E+02  0.36849087157E+02 -0.43134257427E+02  0.13351499306E+03  0.10717118824E+03 0.  0.
         23    2    1    2    0    0 -0.65705000594E+02  0.52627476675E+02  0.68074738094E+02  0.14175009841E+03  0.91499300705E+02 0.  0.
        -11    1    4    4    0    0 -0.33895117114E+02  0.63465413139E+02  0.73205706332E+01  0.72321009282E+02  0.00000000000E+00 0.  1.
         11    1    4    4    0    0 -0.31809883480E+02 -0.10837936464E+02  0.60754167461E+02  0.69429089132E+02  0.00000000000E+00 0. -1.
        -11    1    3    3    0    0  0.30364743361E+02  0.47206866483E+02 -0.73528369421E+02  0.92503659345E+02  0.00000000000E+00 0.  1.
         11    1    3    3    0    0  0.25511641589E+02 -0.10357779325E+02  0.30394111994E+02  0.41011333714E+02  0.00000000000E+00 0. -1.
         21    1    1    2  502  503 -0.13723948666E+02 -0.80365133451E+02  0.52482037986E+02  0.96960124550E+02  0.00000000000E+00 0. -1.
         21    1    1    2  503  501  0.23552564311E+02 -0.91114303821E+01 -0.36951115471E+02  0.44756299934E+02  0.00000000000E+00 0. -1.
<scales pt_clust_5="13000.00000" pt_clust_6="13000.00000" pt_clust_7="13000.00000" pt_clust_8="13000.00000" pt_clust_9="82.37011" pt_clust_10="25.25354"></scales>
<clustering>
<clus scale="   25.254">  2 10  1 -1</clus>
<clus scale="   82.370">  1  9  2 -1</clus>
<clus scale="   91.499">  5  6 -1 -1</clus>
<clus scale="  107.171">  7  8 -1 -1</clus>
<clus scale="  113.162">  1  5  2 -1</clus>
<clus scale="   82.370">  1  5  2 -1</clus>
</clustering>
</event>
<event>
10    2  0.1898324E-006  0.3159880E+03  0.7546771E-02  0.1096430E+00
          1   -1    0    0  502    0  0.00000000000E+00  0.00000000000E+00  0.81508714995E+03  0.81508714995E+03  0.00000000000E+00 0. -1.
         -1   -1    0    0    0  501 -0.00000000000E+00 -0.00000000000E+00 -0.43657067191E+03  0.43657067191E+03  0.00000000000E+00 0.  1.
         23    2    1    2    0    0 -0.16171682520E+03  0.32355584420E+03  0.35037410369E+03  0.51209441140E+03  0.92940614260E+02 0.  0.
         23    2    1    2    0    0  0.17383415540E+03 -0.50045964471E+02  0.24039885233E+03  0.31429799252E+03  0.90932435143E+02 0.  0.
        -11    1    3    3    0    0 -0.12498555241E+03  0.28383709605E+03  0.25113044017E+03  0.39906313208E+03  0.00000000000E+00 0. -1.
         11    1    3    3    0    0 -0.36731272786E+02  0.39718748150E+02  0.99243663518E+02  0.11303127932E+03  0.00000000000E+00 0.  1.
        -11    1    4    4    0    0  0.23611843285E+02  0.21226479042E+02  0.17623408836E+02  0.36313456112E+02  0.00000000000E+00 0. -1.
         11    1    4    4    0    0  0.15022231211E+03 -0.71272443513E+02  0.22277544349E+03  0.27798453641E+03  0.00000000000E+00 0.  1.
         21    1    1    2  502  503 -0.31422964216E+02  0.21936047428E+02  0.25085317102E+02  0.45802467084E+02  0.00000000000E+00 0. -1.
         21    1    1    2  503  501  0.19305634019E+02 -0.29544592716E+03 -0.23734179508E+03  0.37946295086E+03  0.00000000000E+00 0.  1.
<scales pt_clust_5="13000.00000" pt_clust_6="13000.00000" pt_clust_7="13000.00000" pt_clust_8="13000.00000" pt_clust_9="38.32222" pt_clust_10="302.01071"></scales>
<clustering>
<clus scale="   38.322">  1  9  2 -1</clus>
<clus scale="   90.932">  7  8 -1 -1</clus>
<clus scale="   92.941">  5  6 -1 -1</clus>
<clus scale="  191.076">  1  7  2 -1</clus>
<clus scale="  302.011">  2 10  1 -1</clus>
<clus scale="   38.322">  1  5  2 -1</clus>
</clustering>
</event>
<event>
10    2  0.1898324E-006  0.1425856E+03  0.7546771E-02  0.1210114E+00
         -2   -1    0    0    0  501 -0.00000000000E+00  0.00000000000E+00  0.59599515511E+03  0.59599515511E+03  0.00000000000E+00 0.  1.
          2   -1    0    0  502    0  0.00000000000E+00 -0.00000000000E+00 -0.83898276850E+03  0.83898276850E+03  0.00000000000E+00 0. -1.
         23    2    1    2    0    0 -0.10140273167E+03  0.85418355849E+02 -0.61796855450E+02  0.17243438535E+03  0.91301458918E+02 0.  0.
         23    2    1    2    0    0  0.59817544522E+02  0.59947686239E+02 -0.50357086191E+03  0.51892538357E+03  0.92347588113E+02 0.  0.
        -13    1    4    4    0    0 -0.10177339943E+02 -0.17857187956E+02 -0.90178219415E+02  0.92490911267E+02  0.00000000000E+00 0.  1.
         13    1    4    4    0    0  0.69994884465E+02  0.77804874195E+02 -0.41339264249E+03  0.42643447230E+03  0.00000000000E+00 0. -1.
        -13    1    3    3    0    0 -0.58708699797E+02  0.97060396508E+02 -0.59571220006E+02  0.12812557221E+03  0.00000000000E+00 0. -1.
         13    1    3    3    0    0 -0.42694031871E+02 -0.11642040659E+02 -0.22256354445E+01  0.44308813132E+02  0.00000000000E+00 0.  1.
         21    1    1    2  502  503  0.70043224540E+02 -0.53397301893E+02 -0.19678840496E+03  0.21559916855E+03  0.00000000000E+00 0. -1.
         21    1    1    2  503  501 -0.28458037394E+02 -0.91968740195E+02  0.51916850893E+03  0.52801898615E+03  0.00000000000E+00 0.  1.
<scales pt_clust_5="13000.00000" pt_clust_6="13000.00000" pt_clust_7="13000.00000" pt_clust_8="13000.00000" pt_clust_9="88.07568" pt_clust_10="96.48469"></scales>
<clustering>
<clus scale="   88.076">  2  9  1 -1</clus>
<clus scale="   91.301">  7  8 -1 -1</clus>
<clus scale="   92.348">  5  6 -1 -1</clus>
<clus scale="   96.485">  1 10  2 -1</clus>
<clus scale="  141.910">  1  7  2 -1</clus>
<clus scale="   88.076">  2  5  1 -1</clus>
</clustering>
</event>
<event>
10    2  0.1898324E-006  0.2260413E+03  0.7546771E-02  0.1129534E+00
         -1   -1    0    0    0  501 -0.00000000000E+00  0.00000000000E+00  0.35941904066E+03  0.35941904066E+03  0.00000000000E+00 0.  1.
          1   -1    0    0  502    0  0.00000000000E+00 -0.00000000000E+00 -0.40326565982E+03  0.40326565982E+03  0.00000000000E+00 0. -1.
         23    2    1    2    0    0  0.23030109695E+01 -0.17251609250E+03  0.14804561186E+03  0.24433524337E+03  0.89527101673E+02 0.  0.
         23    2    1    2    0    0  0.33154333776E+02  0.21863726392E+03 -0.13772846679E+03  0.27582208972E+03  0.90593772370E+02 0.  0.
        -11    1    4    4    0    0  0.42318900332E+02  0.57005270780E+02 -0.71940463439E+02  0.10107383688E+03  0.00000000000E+00 0.  1.
         11    1    4    4    0    0 -0.91645665564E+01  0.16163199314E+03 -0.65788003353E+02  0.17474825284E+03  0.00000000000E+00 0. -1.
        -13    1    3    3    0    0 -0.39555225306E+02 -0.11751746671E+03  0.10813562346E+03  0.16452441731E+03  0.00000000000E+00 0.  1.
         13    1    3    3    0    0  0.41858236275E+02 -0.54998625789E+02  0.39909988396E+02  0.79810826061E+02  0.00000000000E+00 0. -1.
         21    1    1    2  502  503  0.46269609193E+02 -0.89358238353E+01 -0.12148418399E+03  0.13030400087E+03  0.00000000000E+00 0. -1.
         21    1    1    2  503  501 -0.81726953938E+02 -0.37185347588E+02  0.67320419755E+02  0.11222336651E+03  0.00000000000E+00 0.  1.
<scales pt_clust_5="13000.00000" pt_clust_6="13000.00000" pt_clust_7="13000.00000" pt_clust_8="13000.00000" pt_clust_9="47.12458" pt_clust_10="86.70764"></scales>
<clustering>
<clus scale="   47.125">  2  9  1 -1</clus>
<clus scale="   86.708">  1 10  2 -1</clus>
<clus scale="   89.527">  7  8 -1 -1</clus>
<clus scale="   90.594">  5  6 -1 -1</clus>
<clus scale="  225.616">  1  7  2 -1</clus>
<clus scale="   47.125">  2  5  1 -1</clus>
</clustering>
</event>
<event>
10    2  0.1898324E-006  0.9236917E+02  0.7546771E-02  0.1297385E+00
         -1   -1    0    0    0  501 -0.00000000000E+00  0.00000000000E+00  0.14902320977E+03  0.14902320977E+03  0.00000000000E+00 0.  1.
          1   -1    0    0  502    0  0.00000000000E+00 -0.00000000000E+00 -0.34319391055E+03  0.34319391055E+03  0.00000000000E+00 0. -1.
         23    2    1    2    0    0  0.96579456857E+01 -0.17624963097E+02  0.10737668622E+03  0.14205814024E+03  0.90812153524E+02 0.  0.
         23    2    1    2    0    0  0.30901581479E+02 -0.32519099197E+02 -0.19401252303E+03  0.21898417689E+03  0.91108787104E+02 0.  0.
        -11    1    3    3    0    0  0.25716488363E+02 -0.49046990215E+02  0.49529943417E+02  0.74297781378E+02  0.00000000000E+00 0. -1.
         11    1    3    3    0    0 -0.16058542677E+02  0.31422027118E+02  0.57846742799E+02  0.67760358865E+02  0.00000000000E+00 0.  1.
        -13    1    4    4    0    0  0.63326327638E+02 -0.17582933628E+02 -0.13098791953E+03  0.14655107775E+03  0.00000000000E+00 0. -1.
         13    1    4    4    0    0 -0.32424746159E+02 -0.14936165569E+02 -0.63024603495E+02  0.72433099140E+02  0.00000000000E+00 0.  1.
         21    1    1    2  502  503 -0.18558000616E+02  0.17854393764E+02 -0.78155379723E+02  0.82288772887E+02  0.00000000000E+00 0. -1.
         21    1    1    2  503  501 -0.22001526548E+02  0.32289668530E+02 -0.29379484244E+02  0.48886030302E+02  0.00000000000E+00 0. -1.
<scales pt_clust_5="13000.00000" pt_clust_6="13000.00000" pt_clust_7="13000.00000" pt_clust_8="13000.00000" pt_clust_9="25.75226" pt_clust_10="42.83078"></scales>
<clustering>
<clus scale="   25.752">  2  9  1 -1</clus>
<clus scale="   42.831">  2 10  1 -1</clus>
<clus scale="   90.812">  5  6 -1 -1</clus>
<clus scale="   91.109">  7  8 -1 -1</clus>
<clus scale="   92.077">  1  5  2 -1</clus>
<clus scale="   25.752">  2  5  1 -1</clus>
</clustering>
</event>
<event>
10    2  0.1898324E-006  0.1278789E+03  0.7546771E-02  0.1231353E+00
         -1   -1    0    0    0  501 -0.00000000000E+00  0.00000000000E+00  0.96950771701E+02  0.96950771701E+02  0.00000000000E+00 0.  1.
          1   -1    0    0  502    0  0.00000000000E+00 -0.00000000000E+00 -0.54873530103E+03  0.54873530103E+03  0.00000000000E+00 0. -1.
         23    2    1    2    0    0 -0.99850662611E+02  0.47935500995E+02 -0.14965544257E+03  0.20580796237E+03  0.87705181167E+02 0.  0.
         23    2    1    2    0    0  0.47942250905E+02 -0.59111089760E+02 -0.21700796675E+03  0.24708786509E+03  0.90373530903E+02 0.  0.
        -11    1    3    3    0    0 -0.67946390369E+02  0.35333704542E+02 -0.31561733286E+02  0.82833119275E+02  0.00000000000E+00 0.  1.
         11    1    3    3    0    0 -0.31904272242E+02  0.12601796454E+02 -0.11809370928E+03  0.12297484309E+03  0.00000000000E+00 0. -1.
        -11    1    4    4    0    0  0.66687208957E+02 -0.12468780093E+02 -0.12140710936E+03  0.13907674327E+03  0.00000000000E+00 0. -1.
         11    1    4    4    0    0 -0.18744958052E+02 -0.46642309666E+02 -0.95600857388E+02  0.10801112182E+03  0.00000000000E+00 0.  1.
         21    1    1    2  502  503  0.30473899002E+02  0.13932955697E+02 -0.13464743986E+03  0.13875416691E+03  0.00000000000E+00 0. -1.
         21    1    1    2  503  501  0.21434512704E+02 -0.27573669327E+01  0.49526319847E+02  0.54036078363E+02  0.00000000000E+00 0.  1.
<scales pt_clust_5="13000.00000" pt_clust_6="13000.00000" pt_clust_7="13000.00000" pt_clust_8="13000.00000" pt_clust_9="34.34596" pt_clust_10="21.61114"></scales>
<clustering>
<clus scale="   21.611">  1 10  2 -1</clus>
<clus scale="   34.346">  2  9  1 -1</clus>
<clus scale="   87.705">  5  6 -1 -1</clus>
<clus scale="   90.374">  7  8 -1 -1</clus>
<clus scale="  126.007">  1  5  2 -1</clus>
<clus scale="   34.346">  2  5  1 -1</clus>
</clustering>
</event>
<event>
10    2  0.1898324E-006  0.9715629E+02  0.7546771E-02  0.1286832E+00
         -1   -1    0    0    0  501 -0.00000000000E+00  0.00000000000E+00  0.13273983906E+03  0.13273983906E+03  0.00000000000E+00 0.  1.
          1   -1    0    0  502    0  0.00000000000E+00 -0.00000000000E+00 -0.43331427797E+03  0.43331427797E+03  0.00000000000E+00 0. -1.
         23    2    1    2    0    0  0.23981227833E+01 -0.30401389539E+02 -0.80102245346E+02  0.12572716826E+03  0.91983453136E+02 0.  0.
         23    2    1    2    0    0 -0.46550184752E+00  0.32732356761E+02 -0.18054222388E+03  0.20487336502E+03  0.91137134161E+02 0.  0.
        -13    1    4    4    0    0 -0.35346827500E+02  0.27720502594E+02 -0.15492684485E+03  0.16130763074E+03  0.00000000000E+00 0.  1.
         13    1    4    4    0    0  0.34881325652E+02  0.50118541667E+01 -0.25615379027E+02  0.43565734289E+02  0.00000000000E+00 0. -1.
        -13    1    3    3    0    0 -0.33712476924E+02 -0.40574671538E+02 -0.23335279896E+02  0.57683362928E+02  0.00000000000E+00 0.  1.
         13    1    3    3    0    0  0.36110599708E+02  0.10173281999E+02 -0.56766965450E+02  0.68043805334E+02  0.00000000000E+00 0. -1.
         21    1    1    2  502  503 -0.28674887196E+02 -0.71448626974E+01 -0.13416411548E+03  0.13738015906E+03  0.00000000000E+00 0.  1.
         21    1    1    2  503  501  0.26742266261E+02  0.48138954753E+01  0.94234145800E+02  0.98073424683E+02  0.00000000000E+00 0.  1.
<scales pt_clust_5="13000.00000" pt_clust_6="13000.00000" pt_clust_7="13000.00000" pt_clust_8="13000.00000" pt_clust_9="28.36008" pt_clust_10="27.17209"></scales>
<clustering>
<clus scale="   27.172">  1 10  2 -1</clus>
<clus scale="   28.360">  2  9  1 -1</clus>
<clus scale="   91.137">  5  6 -1 -1</clus>
<clus scale="   91.983">  7  8 -1 -1</clus>
<clus scale="   96.355">  2  5  1 -1</clus>
<clus scale="   28.360">  2  5  1 -1</clus>
</clustering>
</event>
<event>
10    2  0.1898324E-006  0.1372615E+03  0.7546771E-02  0.1217479E+00
          1   -1    0    0  502    0  0.00000000000E+00  0.00000000000E+00  0.12019938774E+03  0.12019938774E+03  0.00000000000E+00 0. -1.
         -1   -1    0    0    0  501 -0.00000000000E+00 -0.00000000000E+00 -0.25342591931E+03  0.25342591931E+03  0.00000000000E+00 0.  1.
         23    2    1    2    0    0 -0.55975768567E+02  0.75574246178E+02 -0.10761945602E+03  0.16993572541E+03  0.91931768740E+02 0.  0.
         23    2    1    2    0    0  0.72953160097E+02 -0.89340739902E+02 -0.20784101592E+02  0.14784727379E+03  0.90127166354E+02 0.  0.
        -11    1    4    4    0    0  0.56018040777E+02 -0.10515091991E+03 -0.39465091364E+01  0.11920701231E+03  0.00000000000E+00 0. -1.
         11    1    4    4    0    0  0.16935119320E+02  0.15810180004E+02 -0.16837592456E+02  0.28640261484E+02  0.00000000000E+00 0.  1.
        -13    1    3    3    0    0 -0.40225799791E+02  0.90976618090E+02 -0.56800894692E+02  0.11454781380E+03  0.00000000000E+00 0.  1.
         13    1    3    3    0    0 -0.15749968775E+02 -0.15402371912E+02 -0.50818561332E+02  0.55387911612E+02  0.00000000000E+00 0. -1.
         21    1    1    2  502  503  0.20719752567E+01  0.27674840692E+02  0.81491038103E+01  0.28924000098E+02  0.00000000000E+00 0.  1.
         21    1    1    2  503  501 -0.19049366787E+02 -0.13908346967E+02 -0.12972077761E+02  0.26918307743E+02  0.00000000000E+00 0. -1.
<scales pt_clust_5="13000.00000" pt_clust_6="13000.00000" pt_clust_7="13000.00000" pt_clust_8="13000.00000" pt_clust_9="27.08376" pt_clust_10="23.58645"></scales>
<clustering>
<clus scale="   23.586">  2 10  1 -1</clus>
<clus scale="   27.084">  1  9  2 -1</clus>
<clus scale="   90.127">  5  6 -1 -1</clus>
<clus scale="   91.932">  7  8 -1 -1</clus>
<clus scale="  136.059">  1  5  2 -1</clus>
<clus scale="   27.084">  1  5  2 -1</clus>
</clustering>
</event>
<event>
10    2  0.1898324E-006  0.1338671E+03  0.7546771E-02  0.1222129E+00
          2   -1    0    0  502    0  0.00000000000E+00  0.00000000000E+00  0.47772542013E+03  0.47772542013E+03  0.00000000000E+00 0. -1.
         -2   -1    0    0    0  501 -0.00000000000E+00 -0.00000000000E+00 -0.87382653897E+02  0.87382653897E+02  0.00000000000E+00 0.  1.
         23    2    1    2    0    0 -0.65741487744E+02  0.41048486990E+02  0.72799041724E+02  0.14044637391E+03  0.91752721879E+02 0.  0.
         23    2    1    2    0    0  0.10000009984E+03 -0.36885524784E+02  0.23472735901E+03  0.27322432504E+03  0.90520919223E+02 0.  0.
        -11    1    3    3    0    0 -0.80912921123E+02  0.59590960397E+01  0.56616852411E+02  0.98933713198E+02  0.00000000000E+00 0. -1.
         11    1    3    3    0    0  0.15171433379E+02  0.35089390950E+02  0.16182189313E+02  0.41512660707E+02  0.00000000000E+00 0.  1.
        -13    1    4    4    0    0  0.63650541424E+02 -0.67075393449E+02  0.14999059679E+03  0.17620351573E+03  0.00000000000E+00 0. -1.
         13    1    4    4    0    0  0.36349558417E+02  0.30189868665E+02  0.84736762225E+02  0.97020809312E+02  0.00000000000E+00 0.  1.
         21    1    1    2  502  503 -0.40325193951E+01 -0.29576944898E+02  0.10289374372E+03  0.10713626547E+03  0.00000000000E+00 0.  1.
         21    1    1    2  503  501 -0.30226092702E+02  0.25413982692E+02 -0.20077378226E+02  0.44301109611E+02  0.00000000000E+00 0.  1.
<scales pt_clust_5="13000.00000" pt_clust_6="13000.00000" pt_clust_7="13000.00000" pt_clust_8="13000.00000" pt_clust_9="29.85058" pt_clust_10="38.98072"></scales>
<clustering>
<clus scale="   29.851">  1  9  2 -1</clus>
<clus scale="   38.981">  2 10  1 -1</clus>
<clus scale="   90.521">  7  8 -1 -1</clus>
<clus scale="   91.753">  5  6 -1 -1</clus>
<clus scale="  133.026">  1  7  2 -1</clus>
<clus scale="   29.851">  1  5  2 -1</clus>
</clustering>
</event>
<event>
10    2  0.1898324E-006  0.9513273E+02  0.7546771E-02  0.1291406E+00
         -1   -1    0    0    0  501 -0.00000000000E+00  0.00000000000E+00  0.12643016771E+03  0.12643016771E+03  0.00000000000E+00 0.  1.
          1   -1    0    0  502    0  0.00000000000E+00 -0.00000000000E+00 -0.27646445876E+03  0.27646445876E+03  0.00000000000E+00 0. -1.
         23    2    1    2    0    0  0.37359888886E+02  0.21839194227E+02 -0.38621382767E+02  0.10814560582E+03  0.91275128867E+02 0.  0.
         23    2    1    2    0    0 -0.11812080128E+02  0.33485850559E+02 -0.40737404232E+02  0.10690546971E+03  0.92241075052E+02 0.  0.
        -13    1    4    4    0    0  0.15627561757E+02  0.54425675654E+02 -0.44125360446E+01  0.56796525697E+02  0.00000000000E+00 0.  1.
         13    1    4    4    0    0 -0.27439641885E+02 -0.20939825095E+02 -0.36324868187E+02  0.50108944018E+02  0.00000000000E+00 0. -1.
        -13    1    3    3    0    0  0.58490111498E+02 -0.28667814965E+01 -0.46404443654E+02  0.74717360567E+02  0.00000000000E+00 0. -1.
         13    1    3    3    0    0 -0.21130222612E+02  0.24705975723E+02  0.77830608877E+01  0.33428245255E+02  0.00000000000E+00 0.  1.
         21    1    1    2  502  503  0.26827140001E+02 -0.62685027069E+02 -0.10470740463E+03  0.12495098497E+03  0.00000000000E+00 0. -1.
         21    1    1    2  503  501 -0.52374948758E+02  0.73599822834E+01  0.34031900576E+02  0.62892565964E+02  0.00000000000E+00 0.  1.
<scales pt_clust_5="13000.00000" pt_clust_6="13000.00000" pt_clust_7="13000.00000" pt_clust_8="13000.00000" pt_clust_9="64.89724" pt_clust_10="52.88955"></scales>
<clustering>
<clus scale="   52.890">  1 10  2 -1</clus>
<clus scale="   64.897">  2  9  1 -1</clus>
<clus scale="   91.275">  7  8 -1 -1</clus>
<clus scale="   92.241">  5  6 -1 -1</clus>
<clus scale="   94.196">  1  7  2 -1</clus>
<clus scale="   64.897">  2  5  1 -1</clus>
</clustering>
</event>
<event>
10    2  0.1898324E-006  0.1641816E+03  0.7546771E-02  0.1201757E+00
         -2   -1    0    0    0  501 -0.00000000000E+00  0.00000000000E+00  0.68432167008E+03  0.68432167008E+03  0.00000000000E+00 0.  1.
          2   -1    0    0  502    0  0.00000000000E+00 -0.00000000000E+00 -0.13720385775E+03  0.13720385775E+03  0.00000000000E+00 0. -1.
         23    2    1    2    0    0  0.44074975226E+02 -0.39365399937E+02  0.78796245390E+02  0.13819717381E+03  0.96940045429E+02 0.  0.
         23    2    1    2    0    0  0.27756245456E+02 -0.91118913509E+02  0.29470583978E+03  0.32385048375E+03  0.94628422079E+02 0.  0.
        -13    1    4    4    0    0  0.33094582748E+01 -0.10029376944E+03  0.26942425675E+03  0.28750517009E+03  0.00000000000E+00 0.  1.
         13    1    4    4    0    0  0.24446787181E+02  0.91748559268E+01  0.25281583023E+02  0.36345313658E+02  0.00000000000E+00 0. -1.
        -13    1    3    3    0    0  0.55321421515E+02 -0.59603750729E+02  0.34745992891E+02  0.88432747336E+02  0.00000000000E+00 0.  1.
         13    1    3    3    0    0 -0.11246446288E+02  0.20238350793E+02  0.44050252499E+02  0.49764426473E+02  0.00000000000E+00 0. -1.
         21    1    1    2  502  503 -0.39316037906E+02  0.13539889322E+03 -0.37438180941E+02  0.14587744348E+03  0.00000000000E+00 0. -1.
         21    1    1    2  503  501 -0.32515182776E+02 -0.49145797771E+01  0.21105390810E+03  0.21360042680E+03  0.00000000000E+00 0. -1.
<scales pt_clust_5="13000.00000" pt_clust_6="13000.00000" pt_clust_7="13000.00000" pt_clust_8="13000.00000" pt_clust_9="134.16799" pt_clust_10="32.88450"></scales>
<clustering>
<clus scale="   32.884">  1 10  2 -1</clus>
<clus scale="   94.628">  5  6 -1 -1</clus>
<clus scale="   96.940">  7  8 -1 -1</clus>
<clus scale="  111.251">  1  7  2 -1</clus>
<clus scale="  134.168">  2  9  1 -1</clus>
<clus scale="  134.168">  2  5  1 -1</clus>
</clustering>
</event>
<event>
10    2  0.1898324E-006  0.1020093E+03  0.7546771E-02  0.1277849E+00
         -1   -1    0    0    0  501 -0.00000000000E+00  0.00000000000E+00  0.65023810734E+03  0.65023810734E+03  0.00000000000E+00 0.  1.
          1   -1    0    0  502    0  0.00000000000E+00 -0.00000000000E+00 -0.28909631995E+02  0.28909631995E+02  0.00000000000E+00 0. -1.
         23    2    1    2    0    0 -0.27460012163E+01  0.39193622835E+02  0.30444158127E+03  0.32097543214E+03  0.93791636294E+02 0.  0.
         23    2    1    2    0    0  0.15199811747E+01 -0.21897628083E+02  0.13289208058E+03  0.16613982301E+03  0.97264172484E+02 0.  0.
        -11    1    3    3    0    0  0.37767664649E+02  0.47046709563E+02  0.18736513209E+03  0.19683872103E+03  0.00000000000E+00 0.  1.
         11    1    3    3    0    0 -0.40513665865E+02 -0.78530867276E+01  0.11707644917E+03  0.12413671110E+03  0.00000000000E+00 0. -1.
        -13    1    4    4    0    0 -0.35003082299E+02 -0.35805634281E+02  0.10996733215E+03  0.12083076329E+03  0.00000000000E+00 0. -1.
         13    1    4    4    0    0  0.36523063473E+02  0.13908006199E+02  0.22924748431E+02  0.45309059718E+02  0.00000000000E+00 0.  1.
         21    1    1    2  502  503  0.20405042529E+02 -0.52257281523E+01  0.31694017605E+02  0.38055022629E+02  0.00000000000E+00 0.  1.
         21    1    1    2  503  501 -0.19179022487E+02 -0.12070266600E+02  0.15230079589E+03  0.15397746156E+03  0.00000000000E+00 0.  1.
<scales pt_clust_5="13000.00000" pt_clust_6="13000.00000" pt_clust_7="13000.00000" pt_clust_8="13000.00000" pt_clust_9="21.06357" pt_clust_10="22.19471"></scales>
<clustering>
<clus scale="   21.064">  2  9  1 -1</clus>
<clus scale="   22.195">  1 10  2 -1</clus>
<clus scale="   93.792">  5  6 -1 -1</clus>
<clus scale="   97.264">  7  8 -1 -1</clus>
<clus scale="   98.704">  1  5  2 -1</clus>
<clus scale="   21.064">  2  5  1 -1</clus>
</clustering>
</event>
<event>
10    2  0.1898324E-006  0.1958146E+03  0.7546771E-02  0.1153327E+00
          1   -1    0    0  502    0  0.00000000000E+00  0.00000000000E+00  0.12599305968E+03  0.12599305968E+03  0.00000000000E+00 0. -1.
         -1   -1    0    0    0  501 -0.00000000000E+00 -0.00000000000E+00 -0.60168990479E+03  0.60168990479E+03  0.00000000000E+00 0.  1.
         23    2    1    2    0    0  0.41063743268E+02 -0.15388808841E+03 -0.20149124535E+03  0.27274667772E+03  0.91783732166E+02 0.  0.
         23    2    1    2    0    0 -0.92531677124E+02  0.15347275666E+03 -0.88704279790E+02  0.21998818751E+03  0.91707988104E+02 0.  0.
        -11    1    4    4    0    0 -0.64261747550E+02  0.15983997707E+03 -0.74038068319E+02  0.18751006914E+03  0.00000000000E+00 0. -1.
         11    1    4    4    0    0 -0.28269929574E+02 -0.63672204119E+01 -0.14666211470E+02  0.32478118369E+02  0.00000000000E+00 0.  1.
        -13    1    3    3    0    0  0.58128463176E+02 -0.12177777966E+03 -0.19284855087E+03  0.23537057892E+03  0.00000000000E+00 0.  1.
         13    1    3    3    0    0 -0.17064719908E+02 -0.32110308751E+02 -0.86426944815E+01  0.37376098800E+02  0.00000000000E+00 0. -1.
         21    1    1    2  502  503  0.16198569057E+01  0.23390036265E+02  0.14489503294E+02  0.27561992645E+02  0.00000000000E+00 0.  1.
         21    1    1    2  503  501  0.49848076950E+02 -0.22974704512E+02 -0.19999082325E+03  0.20738610659E+03  0.00000000000E+00 0.  1.
<scales pt_clust_5="13000.00000" pt_clust_6="13000.00000" pt_clust_7="13000.00000" pt_clust_8="13000.00000" pt_clust_9="23.44606" pt_clust_10="54.60017"></scales>
<clustering>
<clus scale="   23.446">  1  9  2 -1</clus>
<clus scale="   54.600">  2 10  1 -1</clus>
<clus scale="   91.708">  5  6 -1 -1</clus>
<clus scale="   91.784">  7  8 -1 -1</clus>
<clus scale="  195.779">  1  5  2 -1</clus>
<clus scale="   23.446">  1  5  2 -1</clus>
</clustering>
</event>
<event>
10    2  0.1898324E-006  0.9703426E+02  0.7546771E-02  0.1287503E+00
          2   -1    0    0  502    0  0.00000000000E+00  0.00000000000E+00  0.24696297692E+03  0.24696297692E+03  0.00000000000E+00 0. -1.
         -2   -1    0    0    0  501 -0.00000000000E+00 -0.00000000000E+00 -0.19894898353E+03  0.19894898353E+03  0.00000000000E+00 0.  1.
         23    2    1    2    0    0 -0.13676928269E+01  0.13895607689E+02 -0.59708252361E+02  0.11078099797E+03  0.92262644742E+02 0.  0.
         23    2    1    2    0    0 -0.56871082509E+02 -0.73063936558E+01 -0.38389596914E+02  0.11392803001E+03  0.90653910324E+02 0.  0.
        -11    1    3    3    0    0 -0.22089203022E+01 -0.26397151866E+02 -0.64946143371E+02  0.70140505376E+02  0.00000000000E+00 0.  1.
         11    1    3    3    0    0  0.84122747524E+00  0.40292759555E+02  0.52378910100E+01  0.40640492596E+02  0.00000000000E+00 0. -1.
        -13    1    4    4    0    0 -0.37249755800E+02  0.29253945691E+02  0.11796145777E+02  0.48810723216E+02  0.00000000000E+00 0.  1.
         13    1    4    4    0    0 -0.19621326709E+02 -0.36560339347E+02 -0.50185742690E+02  0.65117306796E+02  0.00000000000E+00 0. -1.
         21    1    1    2  502  503  0.25145057251E+02 -0.16344725063E+02  0.17416955166E+03  0.17673272664E+03  0.00000000000E+00 0.  1.
         21    1    1    2  503  501  0.33093718086E+02  0.97555110300E+01 -0.28057708994E+02  0.44470205826E+02  0.00000000000E+00 0. -1.
<scales pt_clust_5="13000.00000" pt_clust_6="13000.00000" pt_clust_7="13000.00000" pt_clust_8="13000.00000" pt_clust_9="29.99040" pt_clust_10="36.83200"></scales>
<clustering>
<clus scale="   29.990">  1  9  2 -1</clus>
<clus scale="   36.832">  2 10  1 -1</clus>
<clus scale="   90.654">  7  8 -1 -1</clus>
<clus scale="   92.263">  5  6 -1 -1</clus>
<clus scale="   95.506">  1  7  2 -1</clus>
<clus scale="   29.990">  1  5  2 -1</clus>
</clustering>
</event>
<event>
10    2  0.1898324E-006  0.2270264E+03  0.7546771E-02  0.1128950E+00
          3   -1    0    0  502    0  0.00000000000E+00  0.00000000000E+00  0.50285793779E+03  0.50285793779E+03  0.00000000000E+00 0. -1.
         -3   -1    0    0    0  501 -0.00000000000E+00 -0.00000000000E+00 -0.19649369393E+03  0.19649369393E+03  0.00000000000E+00 0.  1.
         23    2    1    2    0    0 -0.17489419011E+03 -0.22367764159E+03  0.18979469373E+03  0.35328729275E+03  0.90389271337E+02 0.  0.
         23    2    1    2    0    0  0.96599920552E+02  0.11966245788E+03  0.86082063502E+02  0.19933657800E+03  0.93135928607E+02 0.  0.
        -11    1    3    3    0    0 -0.60784398822E+02 -0.33032111189E+02  0.15500203075E+02  0.70895132450E+02  0.00000000000E+00 0. -1.
         11    1    3    3    0    0 -0.11410979129E+03 -0.19064553040E+03  0.17429449065E+03  0.28239216030E+03  0.00000000000E+00 0.  1.
        -13    1    4    4    0    0  0.17004823221E+02  0.80711825184E+02  0.72243523638E+02  0.10964802527E+03  0.00000000000E+00 0.  1.
         13    1    4    4    0    0  0.79595097331E+02  0.38950632692E+02  0.13838539864E+02  0.89688552736E+02  0.00000000000E+00 0. -1.
         21    1    1    2  502  503  0.52180474145E+02  0.37925369483E+02  0.38648642998E+02  0.75198757556E+02  0.00000000000E+00 0. -1.
         21    1    1    2  503  501  0.26113795414E+02  0.66089814227E+02 -0.81611563633E+01  0.71529003409E+02  0.00000000000E+00 0. -1.
<scales pt_clust_5="13000.00000" pt_clust_6="13000.00000" pt_clust_7="13000.00000" pt_clust_8="13000.00000" pt_clust_9="57.56449" pt_clust_10="143.52543"></scales>
<clustering>
<clus scale="   57.564">  9 10 -1 -1</clus>
<clus scale="   90.389">  5  6 -1 -1</clus>
<clus scale="   93.136">  7  8 -1 -1</clus>
<clus scale="  143.525">  2  9  1 -1</clus>
<clus scale="  225.914">  2  5  1 -1</clus>
<clus scale="  227.026">  1  5  2 -1</clus>
</clustering>
</event>
<event>
10    2  0.1898324E-006  0.1471892E+03  0.7546771E-02  0.1204084E+00
         -1   -1    0    0    0  501 -0.00000000000E+00  0.00000000000E+00  0.68772993151E+02  0.68772993151E+02  0.00000000000E+00 0.  1.
          1   -1    0    0  502    0  0.00000000000E+00 -0.00000000000E+00 -0.79625883247E+03  0.79625883247E+03  0.00000000000E+00 0. -1.
         23    2    1    2    0    0  0.84385638991E+02  0.32848246956E+02 -0.61566631774E+02  0.14226288634E+03  0.90820346213E+02 0.  0.
         23    2    1    2    0    0 -0.10750363827E+03 -0.13296384998E+02 -0.61776632132E+03  0.63364901516E+03  0.90233145586E+02 0.  0.
        -11    1    3    3    0    0  0.61893214585E+02  0.63273222645E+02 -0.53981060673E+02  0.10367364963E+03  0.00000000000E+00 0. -1.
         11    1    3    3    0    0  0.22492424405E+02 -0.30424975689E+02 -0.75855711011E+01  0.38589236714E+02  0.00000000000E+00 0.  1.
        -13    1    4    4    0    0 -0.98229659209E+02 -0.42842199151E+02 -0.52577245689E+03  0.53658288866E+03  0.00000000000E+00 0. -1.
         13    1    4    4    0    0 -0.92739790583E+01  0.29545814153E+02 -0.91993864437E+02  0.97066126509E+02  0.00000000000E+00 0.  1.
         21    1    1    2  502  503 -0.16747337884E+02 -0.17660694321E+02 -0.42273076644E+02  0.48778955084E+02  0.00000000000E+00 0. -1.
         21    1    1    2  503  501  0.39865337161E+02 -0.18911676374E+01 -0.58798095796E+01  0.40340969035E+02  0.00000000000E+00 0.  1.
<scales pt_clust_5="13000.00000" pt_clust_6="13000.00000" pt_clust_7="13000.00000" pt_clust_8="13000.00000" pt_clust_9="24.33872" pt_clust_10="39.42505"></scales>
<clustering>
<clus scale="   24.339">  2  9  1 -1</clus>
<clus scale="   39.425">  1 10  2 -1</clus>
<clus scale="   90.233">  7  8 -1 -1</clus>
<clus scale="   90.820">  5  6 -1 -1</clus>
<clus scale="  146.828">  2  7  1 -1</clus>
<clus scale="   24.339">  2  5  1 -1</clus>
</clustering>
</event>
<event>
10    2  0.1898324E-006  0.2668583E+03  0.7546771E-02  0.1127021E+00
          1   -1    0    0  503    0  0.00000000000E+00  0.00000000000E+00  0.16960733863E+04  0.16960733863E+04  0.00000000000E+00 0. -1.
         -1   -1    0    0    0  501 -0.00000000000E+00 -0.00000000000E+00 -0.10420572753E+03  0.10420572753E+03  0.00000000000E+00 0.  1.
         23    2    1    2    0    0  0.60652062507E+01  0.26612823908E+03  0.19686876687E+03  0.34268342852E+03  0.88394538547E+02 0.  0.
         23    2    1    2    0    0 -0.93973171843E+02 -0.35401585126E+02  0.39790903912E+03  0.42079392440E+03  0.93014483494E+02 0.  0.
        -11    1    4    4    0    0 -0.66480096330E+02 -0.18833171591E+02  0.37511212235E+03  0.38142285707E+03  0.00000000000E+00 0. -1.
         11    1    4    4    0    0 -0.27493075513E+02 -0.16568413535E+02  0.22796916767E+02  0.39371067325E+02  0.00000000000E+00 0.  1.
        -13    1    3    3    0    0 -0.72675977094E+01  0.22419546115E+03  0.12071663961E+03  0.25473305607E+03  0.00000000000E+00 0.  1.
         13    1    3    3    0    0  0.13332803960E+02  0.41932777934E+02  0.76152127261E+02  0.87950372445E+02  0.00000000000E+00 0. -1.
         21    1    1    2  502  501  0.12453243407E+03 -0.20029405603E+03  0.85572012585E+03  0.88762772028E+03  0.00000000000E+00 0. -1.
         21    1    1    2  503  502 -0.36624468480E+02 -0.30432597925E+02  0.14136972694E+03  0.14917404065E+03  0.00000000000E+00 0. -1.
<scales pt_clust_5="13000.00000" pt_clust_6="13000.00000" pt_clust_7="13000.00000" pt_clust_8="13000.00000" pt_clust_9="251.79304" pt_clust_10="47.61822"></scales>
<clustering>
<clus scale="   47.618">  1 10  2 -1</clus>
<clus scale="   88.395">  7  8 -1 -1</clus>
<clus scale="   93.014">  5  6 -1 -1</clus>
<clus scale="  145.875">  1  5  2 -1</clus>
<clus scale="  251.793">  1  9  2 -1</clus>
<clus scale="   47.618">  1  5  2 -1</clus>
</clustering>
</event>
<event>
10    2  0.1898324E-006  0.9421038E+02  0.7546771E-02  0.1293416E+00
          2   -1    0    0  502    0  0.00000000000E+00  0.00000000000E+00  0.37245399060E+03  0.37245399060E+03  0.00000000000E+00 0. -1.
         -2   -1    0    0    0  501 -0.00000000000E+00 -0.00000000000E+00 -0.85665895801E+02  0.85665895801E+02  0.00000000000E+00 0.  1.
         23    2    1    2    0    0 -0.29040609109E+02  0.30394837662E+02 -0.10544131277E+02  0.10072440666E+03  0.90923177785E+02 0.  0.
         23    2    1    2    0    0 -0.39796848697E+02 -0.20533921259E+02  0.23881373732E+03  0.25914522050E+03  0.90104456528E+02 0.  0.
        -11    1    4    4    0    0 -0.68722127100E+02 -0.11742373005E+02  0.17967836579E+03  0.19273019797E+03  0.00000000000E+00 0. -1.
         11    1    4    4    0    0  0.28925278403E+02 -0.87915482538E+01  0.59135371532E+02  0.66415022529E+02  0.00000000000E+00 0.  1.
        -11    1    3    3    0    0 -0.32720055691E+02 -0.49002461628E+01 -0.41887676255E+02  0.53377821976E+02  0.00000000000E+00 0.  1.
         11    1    3    3    0    0  0.36794465821E+01  0.35295083825E+02  0.31343544977E+02  0.47346584683E+02  0.00000000000E+00 0. -1.
         21    1    1    2  502  503  0.30364566785E+02 -0.13247691709E+01  0.49077574353E+02  0.57726685629E+02  0.00000000000E+00 0.  1.
         21    1    1    2  503  501  0.38472891021E+02 -0.85361472328E+01  0.94409143957E+01  0.40523573605E+02  0.00000000000E+00 0.  1.
<scales pt_clust_5="13000.00000" pt_clust_6="13000.00000" pt_clust_7="13000.00000" pt_clust_8="13000.00000" pt_clust_9="30.39345" pt_clust_10="41.75415"></scales>
<clustering>
<clus scale="   30.393">  1  9  2 -1</clus>
<clus scale="   41.754">  2 10  1 -1</clus>
<clus scale="   90.104">  5  6 -1 -1</clus>
<clus scale="   90.923">  7  8 -1 -1</clus>
<clus scale="   93.420">  1  5  2 -1</clus>
<clus scale="   30.393">  1  5  2 -1</clus>
</clustering>
</event>
<event>
10    2  0.1898324E-006  0.1077225E+03  0.7546771E-02  0.1266619E+00
          3   -1    0    0  502    0  0.00000000000E+00  0.00000000000E+00  0.80874165422E+02  0.80874165422E+02  0.00000000000E+00 0. -1.
         -3   -1    0    0    0  501 -0.00000000000E+00 -0.00000000000E+00 -0.36704649969E+03  0.36704649969E+03  0.00000000000E+00 0.  1.
         23    2    1    2    0    0  0.53104848939E+02  0.39364385948E+02 -0.17326436145E+03  0.20700099977E+03  0.91973882675E+02 0.  0.
         23    2    1    2    0    0 -0.12527090256E+02 -0.32472999020E+02 -0.76213677191E+02  0.12748866539E+03  0.96090642397E+02 0.  0.
        -11    1    4    4    0    0 -0.34059687426E+02 -0.58892725913E+02 -0.53198823166E+02  0.86362782837E+02  0.00000000000E+00 0. -1.
         11    1    4    4    0    0  0.21532597170E+02  0.26419726893E+02 -0.23014854025E+02  0.41125882553E+02  0.00000000000E+00 0.  1.
        -13    1    3    3    0    0 -0.34486846510E+01  0.47468890468E+02 -0.40601838573E+02  0.62559557892E+02  0.00000000000E+00 0. -1.
         13    1    3    3    0    0  0.56553533590E+02 -0.81045045208E+01 -0.13266252287E+03  0.14444144187E+03  0.00000000000E+00 0.  1.
         21    1    1    2  502  503 -0.46597836148E+02  0.22267636564E+02  0.14996656173E+02  0.53778301091E+02  0.00000000000E+00 0. -1.
         21    1    1    2  503  501  0.60200774651E+01 -0.29159023492E+02 -0.51690951807E+02  0.59652698869E+02  0.00000000000E+00 0. -1.
<scales pt_clust_5="13000.00000" pt_clust_6="13000.00000" pt_clust_7="13000.00000" pt_clust_8="13000.00000" pt_clust_9="50.54537" pt_clust_10="29.77398"></scales>
<clustering>
<clus scale="   29.774">  2 10  1 -1</clus>
<clus scale="   50.545">  1  9  2 -1</clus>
<clus scale="   91.974">  7  8 -1 -1</clus>
<clus scale="   96.091">  5  6 -1 -1</clus>
<clus scale="  104.067">  2  7  1 -1</clus>
<clus scale="   50.545">  1  5  2 -1</clus>
</clustering>
</event>
<event>
10    2  0.1898324E-006  0.1499531E+03  0.7546771E-02  0.1201787E+00
         -1   -1    0    0    0  501 -0.00000000000E+00  0.00000000000E+00  0.18814181182E+03  0.18814181182E+03  0.00000000000E+00 0.  1.
          1   -1    0    0  502    0  0.00000000000E+00 -0.00000000000E+00 -0.75400986675E+03  0.75400986675E+03  0.00000000000E+00 0. -1.
         23    2    1    2    0    0 -0.11886752162E+03 -0.13333490331E+02 -0.64252256631E+02  0.16330937060E+03  0.90743200199E+02 0.  0.
         23    2    1    2    0    0 -0.18442249741E+02  0.10684253088E+03 -0.52632541086E+03  0.54536575999E+03  0.93005005633E+02 0.  0.
        -11    1    4    4    0    0 -0.39138233451E+02  0.20096671572E+02 -0.91996245421E+02  0.10197542203E+03  0.00000000000E+00 0.  1.
         11    1    4    4    0    0  0.20695983710E+02  0.86745859306E+02 -0.43432916544E+03  0.44339033797E+03  0.00000000000E+00 0. -1.
        -13    1    3    3    0    0 -0.30462719105E+02  0.35968905361E+02 -0.89950546990E+01  0.47985939786E+02  0.00000000000E+00 0. -1.
         13    1    3    3    0    0 -0.88404802517E+02 -0.49302395692E+02 -0.55257201932E+02  0.11532343081E+03  0.00000000000E+00 0.  1.
         21    1    1    2  502  503  0.31227991377E+02  0.15276048009E+02 -0.52556452081E+02  0.63013694889E+02  0.00000000000E+00 0.  1.
         21    1    1    2  503  501  0.10608177999E+03 -0.10878508856E+03  0.77266064647E+02  0.17046285309E+03  0.00000000000E+00 0.  1.
<scales pt_clust_5="13000.00000" pt_clust_6="13000.00000" pt_clust_7="13000.00000" pt_clust_8="13000.00000" pt_clust_9="34.76414" pt_clust_10="117.62657"></scales>
<clustering>
<clus scale="   34.764">  2  9  1 -1</clus>
<clus scale="   90.743">  7  8 -1 -1</clus>
<clus scale="   93.005">  5  6 -1 -1</clus>
<clus scale="  145.925">  1  7  2 -1</clus>
<clus scale="  117.627">  1 10  2 -1</clus>
<clus scale="   34.764">  2  5  1 -1</clus>
</clustering>
</event>
<event>
10    2  0.1898324E-006  0.3642535E+03  0.7546771E-02  0.1057307E+00
         -1   -1    0    0    0  501 -0.00000000000E+00  0.00000000000E+00  0.13893014214E+03  0.13893014214E+03  0.00000000000E+00 0.  1.
          1   -1    0    0  502    0  0.00000000000E+00 -0.00000000000E+00 -0.12685121573E+04  0.12685121573E+04  0.00000000000E+00 0. -1.
         23    2    1    2    0    0  0.28822850750E+01 -0.35045905381E+03 -0.34386029696E+03  0.49964284204E+03  0.92591629217E+02 0.  0.
         23    2    1    2    0    0 -0.28996966700E+02  0.34563412788E+03 -0.59151955613E+03  0.69403968874E+03  0.10720041896E+03 0.  0.
        -11    1    4    4    0    0 -0.62823087574E+02  0.14021947684E+03 -0.22354104933E+03  0.27125420320E+03  0.00000000000E+00 0.  1.
         11    1    4    4    0    0  0.33826120875E+02  0.20541465104E+03 -0.36797850680E+03  0.42278548554E+03  0.00000000000E+00 0. -1.
        -13    1    3    3    0    0  0.11702983814E+02 -0.25620994943E+03 -0.19075407184E+03  0.31963669054E+03  0.00000000000E+00 0.  1.
         13    1    3    3    0    0 -0.88206987395E+01 -0.94249104388E+02 -0.15310622513E+03  0.18000615150E+03  0.00000000000E+00 0. -1.
         21    1    1    2  502  503  0.50038736124E+02  0.22097781361E+01 -0.17758592400E+03  0.18451427759E+03  0.00000000000E+00 0. -1.
         21    1    1    2  503  501 -0.23924054500E+02  0.26151477987E+01 -0.16616238092E+02  0.29245491107E+02  0.00000000000E+00 0. -1.
<scales pt_clust_5="13000.00000" pt_clust_6="13000.00000" pt_clust_7="13000.00000" pt_clust_8="13000.00000" pt_clust_9="49.46628" pt_clust_10="24.06656"></scales>
<clustering>
<clus scale="   24.067">  1 10  2 -1</clus>
<clus scale="   49.466">  2  9  1 -1</clus>
<clus scale="   92.592">  7  8 -1 -1</clus>
<clus scale="  107.200">  5  6 -1 -1</clus>
<clus scale="  360.225">  1  7  2 -1</clus>
<clus scale="   49.466">  2  5  1 -1</clus>
</clustering>
</event>
<event>
10    2  0.1898324E-006  0.1064292E+03  0.7546771E-02  0.1267804E+00
          2   -1    0    0  502    0  0.00000000000E+00  0.00000000000E+00  0.38307606855E+03  0.38307606855E+03  0.00000000000E+00 0. -1.
         -2   -1    0    0    0  501 -0.00000000000E+00 -0.00000000000E+00 -0.61678504956E+02  0.61678504956E+02  0.00000000000E+00 0.  1.
         23    2    1    2    0    0 -0.36624248791E+02 -0.57215850133E+01  0.60899639957E+02  0.11578830353E+03  0.91236467230E+02 0.  0.
         23    2    1    2    0    0  0.68705620855E+02 -0.29990699405E+02  0.10662132349E+03  0.15974648762E+03  0.92363029932E+02 0.  0.
        -11    1    4    4    0    0  0.21022106644E+02 -0.54975048826E+02  0.81005162986E+02  0.10013002243E+03  0.00000000000E+00 0. -1.
         11    1    4    4    0    0  0.47683514211E+02  0.24984349422E+02  0.25616160502E+02  0.59616465196E+02  0.00000000000E+00 0.  1.
        -11    1    3    3    0    0 -0.61003408848E+02  0.16812915880E+02  0.28499842439E+02  0.69399791429E+02  0.00000000000E+00 0.  1.
         11    1    3    3    0    0  0.24379160057E+02 -0.22534500893E+02  0.32399797518E+02  0.46388512099E+02  0.00000000000E+00 0. -1.
         21    1    1    2  502  503 -0.21706767347E+02  0.11254498105E+02  0.13354650561E+03  0.13576640467E+03  0.00000000000E+00 0.  1.
         21    1    1    2  503  501 -0.10374604717E+02  0.24457786313E+02  0.20330094538E+02  0.33453377681E+02  0.00000000000E+00 0.  1.
<scales pt_clust_5="13000.00000" pt_clust_6="13000.00000" pt_clust_7="13000.00000" pt_clust_8="13000.00000" pt_clust_9="24.45092" pt_clust_10="28.65610"></scales>
<clustering>
<clus scale="   24.451">  1  9  2 -1</clus>
<clus scale="   28.656">  2 10  1 -1</clus>
<clus scale="   91.236">  7  8 -1 -1</clus>
<clus scale="   92.363">  5  6 -1 -1</clus>
<clus scale="  105.453">  2  7  1 -1</clus>
<clus scale="   24.451">  1  5  2 -1</clus>
</clustering>
</event>
<event>
10    2  0.1898324E-006  0.1001728E+03  0.7546771E-02  0.1281592E+00
         -1   -1    0    0    0  501 -0.00000000000E+00  0.00000000000E+00  0.18658728566E+03  0.18658728566E+03  0.00000000000E+00 0.  1.
          1   -1    0    0  502    0  0.00000000000E+00 -0.00000000000E+00 -0.22485154192E+03  0.22485154192E+03  0.00000000000E+00 0. -1.
         23    2    1    2    0    0 -0.36759958642E+02  0.64059958392E+02  0.62180934104E+02  0.12999526415E+03  0.87047844924E+02 0.  0.
         23    2    1    2    0    0  0.86028134176E+01 -0.59063753420E+01  0.19959586508E+02  0.93263296887E+02  0.90502838543E+02 0.  0.
        -11    1    4    4    0    0 -0.24896305968E+02 -0.33845538761E+02  0.25720634479E+02  0.49263552276E+02  0.00000000000E+00 0.  1.
         11    1    4    4    0    0  0.33499119385E+02  0.27939163419E+02 -0.57610479711E+01  0.43999744611E+02  0.00000000000E+00 0. -1.
        -13    1    3    3    0    0 -0.52408241255E+02  0.21772694661E+02  0.63139143870E+02  0.84895379573E+02  0.00000000000E+00 0.  1.
         13    1    3    3    0    0  0.15648282613E+02  0.42287263732E+02 -0.95820976539E+00  0.45099884574E+02  0.00000000000E+00 0. -1.
         21    1    1    2  502  503  0.43127800957E+02  0.23405327105E+01 -0.11817589833E+03  0.12582141414E+03  0.00000000000E+00 0. -1.
         21    1    1    2  503  501 -0.14970655733E+02 -0.60494115761E+02 -0.22288785428E+01  0.62358852413E+02  0.00000000000E+00 0.  1.
<scales pt_clust_5="13000.00000" pt_clust_6="13000.00000" pt_clust_7="13000.00000" pt_clust_8="13000.00000" pt_clust_9="43.19126" pt_clust_10="59.77632"></scales>
<clustering>
<clus scale="   43.191">  2  9  1 -1</clus>
<clus scale="   59.776">  2 10  1 -1</clus>
<clus scale="   87.048">  7  8 -1 -1</clus>
<clus scale="   90.503">  5  6 -1 -1</clus>
<clus scale="   97.063">  1  7  2 -1</clus>
<clus scale="   43.191">  2  5  1 -1</clus>
</clustering>
</event>
<event>
10    2  0.1898324E-006  0.1010228E+03  0.7546771E-02  0.1279387E+00
         -2   -1    0    0    0  501 -0.00000000000E+00  0.00000000000E+00  0.24725189567E+02  0.24725189567E+02  0.00000000000E+00 0.  1.
          2   -1    0    0  502    0  0.00000000000E+00 -0.00000000000E+00 -0.87315415488E+03  0.87315415488E+03  0.00000000000E+00 0. -1.
         23    2    1    2    0    0  0.35929684260E+02  0.22083499420E+01 -0.24647192154E+03  0.26493726609E+03  0.90263657334E+02 0.  0.
         23    2    1    2    0    0 -0.15351716903E+02 -0.53972165204E+02 -0.41528192896E+03  0.42921077613E+03  0.92812391389E+02 0.  0.
        -11    1    4    4    0    0  0.22128364208E+02  0.76558638343E+01 -0.34748324634E+02  0.41901346261E+02  0.00000000000E+00 0.  1.
         11    1    4    4    0    0 -0.37480081111E+02 -0.61628029039E+02 -0.38053360433E+03  0.38730942987E+03  0.00000000000E+00 0. -1.
        -13    1    3    3    0    0  0.22597345692E+02 -0.43290387201E+02 -0.14331837451E+03  0.15140955759E+03  0.00000000000E+00 0.  1.
         13    1    3    3    0    0  0.13332338568E+02  0.45498737143E+02 -0.10315354703E+03  0.11352770850E+03  0.00000000000E+00 0. -1.
         21    1    1    2  502  503 -0.39919594396E+02  0.24150982220E+02 -0.12533056346E+03  0.13373329464E+03  0.00000000000E+00 0. -1.
         21    1    1    2  503  501  0.19341627039E+02  0.27612833042E+02 -0.61344551354E+02  0.69998007586E+02  0.00000000000E+00 0. -1.
<scales pt_clust_5="13000.00000" pt_clust_6="13000.00000" pt_clust_7="13000.00000" pt_clust_8="13000.00000" pt_clust_9="46.70878" pt_clust_10="33.71301"></scales>
<clustering>
<clus scale="   33.713">  1 10  2 -1</clus>
<clus scale="   46.709">  1  9  2 -1</clus>
<clus scale="   90.264">  7  8 -1 -1</clus>
<clus scale="   92.812">  5  6 -1 -1</clus>
<clus scale="   98.686">  1  7  2 -1</clus>
<clus scale="  101.023">  2  5  1 -1</clus>
</clustering>
</event>
<event>
10    2  0.1898324E-006  0.1187180E+03  0.7546771E-02  0.1250493E+00
         -2   -1    0    0    0  501 -0.00000000000E+00  0.00000000000E+00  0.12627644319E+03  0.12627644319E+03  0.00000000000E+00 0.  1.
          2   -1    0    0  502    0  0.00000000000E+00 -0.00000000000E+00 -0.30067490126E+03  0.30067490126E+03  0.00000000000E+00 0. -1.
         23    2    1    2    0    0  0.44060906529E+02 -0.55070842119E+02 -0.14091424183E+02  0.12565718589E+03  0.10303882275E+03 0.  0.
         23    2    1    2    0    0 -0.70310290277E+02 -0.31802502075E+02 -0.55110773503E+02  0.13010219431E+03  0.89075516009E+02 0.  0.
        -11    1    4    4    0    0 -0.34623793083E+02 -0.27362481992E+02  0.18752584276E+02  0.47949680763E+02  0.00000000000E+00 0.  1.
         11    1    4    4    0    0 -0.35686497194E+02 -0.44400200830E+01 -0.73863357780E+02  0.82152513551E+02  0.00000000000E+00 0. -1.
        -13    1    3    3    0    0  0.27697278611E+02 -0.84163157480E+02  0.19479027551E+01  0.88624887276E+02  0.00000000000E+00 0.  1.
         13    1    3    3    0    0  0.16363627919E+02  0.29092315362E+02 -0.16039326938E+02  0.37032298611E+02  0.00000000000E+00 0. -1.
         21    1    1    2  502  503  0.13879302817E+02  0.63603420488E+02 -0.12315406703E+03  0.13930166679E+03  0.00000000000E+00 0.  1.
         21    1    1    2  503  501  0.12370080931E+02  0.23269923706E+02  0.17957806655E+02  0.31890297449E+02  0.00000000000E+00 0.  1.
<scales pt_clust_5="13000.00000" pt_clust_6="13000.00000" pt_clust_7="13000.00000" pt_clust_8="13000.00000" pt_clust_9="67.12372" pt_clust_10="26.35352"></scales>
<clustering>
<clus scale="   26.354">  1 10  2 -1</clus>
<clus scale="   67.124">  2  9  1 -1</clus>
<clus scale="   89.076">  5  6 -1 -1</clus>
<clus scale="  103.039">  7  8 -1 -1</clus>
<clus scale="  106.824">  2  5  1 -1</clus>
<clus scale="   67.124">  2  5  1 -1</clus>
</clustering>
</event>
<event>
10    2  0.1898324E-006  0.3514688E+03  0.7546771E-02  0.1062062E+00
         -2   -1    0    0    0  501 -0.00000000000E+00  0.00000000000E+00  0.12529625522E+04  0.12529625522E+04  0.00000000000E+00 0.  1.
          2   -1    0    0  502    0  0.00000000000E+00 -0.00000000000E+00 -0.24611858216E+03  0.24611858216E+03  0.00000000000E+00 0. -1.
         23    2    1    2    0    0  0.12387385213E+03  0.31609761279E+03  0.58737277783E+03  0.68439961853E+03  0.90186615732E+02 0.  0.
         23    2    1    2    0    0 -0.20593616919E+03 -0.28692242453E+03  0.99467970687E+02  0.37739689063E+03  0.88319603642E+02 0.  0.
        -11    1    3    3    0    0 -0.21451146553E+01  0.54865010364E+02  0.52597124698E+02  0.76034389625E+02  0.00000000000E+00 0. -1.
         11    1    3    3    0    0  0.12601896678E+03  0.26123260242E+03  0.53477565313E+03  0.60836522891E+03  0.00000000000E+00 0.  1.
        -13    1    4    4    0    0 -0.17625352031E+02 -0.89508755201E+02  0.24539478477E+02  0.94470399046E+02  0.00000000000E+00 0.  1.
         13    1    4    4    0    0 -0.18831081716E+03 -0.19741366933E+03  0.74928492210E+02  0.28292649158E+03  0.00000000000E+00 0. -1.
         21    1    1    2  502  503 -0.68477969661E+01  0.24675407918E+02 -0.48259542531E+02  0.54632879518E+02  0.00000000000E+00 0.  1.
         21    1    1    2  503  501  0.88910114027E+02 -0.53850596177E+02  0.36826276407E+03  0.38265174570E+03  0.00000000000E+00 0. -1.
<scales pt_clust_5="13000.00000" pt_clust_6="13000.00000" pt_clust_7="13000.00000" pt_clust_8="13000.00000" pt_clust_9="25.60797" pt_clust_10="103.25974"></scales>
<clustering>
<clus scale="   25.608">  2  9  1 -1</clus>
<clus scale="   88.320">  7  8 -1 -1</clus>
<clus scale="   90.187">  5  6 -1 -1</clus>
<clus scale="  103.260">  1 10  2 -1</clus>
<clus scale="  350.994">  2  7  1 -1</clus>
<clus scale="   25.608">  2  5  1 -1</clus>
</clustering>
</event>
<event>
10    2  0.1898324E-006  0.1586002E+03  0.7546771E-02  0.1190494E+00
         -2   -1    0    0    0  501 -0.00000000000E+00  0.00000000000E+00  0.77797603688E+02  0.77797603688E+02  0.00000000000E+00 0.  1.
          2   -1    0    0  502    0  0.00000000000E+00 -0.00000000000E+00 -0.69747176132E+03  0.69747176132E+03  0.00000000000E+00 0. -1.
         23    2    1    2    0    0  0.11575773003E+03  0.25193303173E+02 -0.13932290219E+03  0.20431585517E+03  0.91101827718E+02 0.  0.
         23    2    1    2    0    0 -0.12997100771E+03 -0.26187629609E+02 -0.33005872312E+03  0.36748676002E+03  0.92355310042E+02 0.  0.
        -11    1    3    3    0    0 -0.44102407133E+01 -0.20397478666E+02 -0.21355306783E+02  0.29858943164E+02  0.00000000000E+00 0. -1.
         11    1    3    3    0    0  0.12016797074E+03  0.45590781840E+02 -0.11796759541E+03  0.17445691201E+03  0.00000000000E+00 0.  1.
        -11    1    4    4    0    0 -0.77281327508E+02 -0.33783162417E+02 -0.97524897470E+02  0.12893723772E+03  0.00000000000E+00 0.  1.
         11    1    4    4    0    0 -0.52689680205E+02  0.75955328081E+01 -0.23253382565E+03  0.23854952230E+03  0.00000000000E+00 0. -1.
         21    1    1    2  502  503 -0.11521086522E+01 -0.23302676810E+02 -0.16805979560E+03  0.16967155624E+03  0.00000000000E+00 0. -1.
         21    1    1    2  503  501  0.15365386340E+02  0.24297003246E+02  0.17767263280E+02  0.33795193572E+02  0.00000000000E+00 0.  1.
<scales pt_clust_5="13000.00000" pt_clust_6="13000.00000" pt_clust_7="13000.00000" pt_clust_8="13000.00000" pt_clust_9="23.33114" pt_clust_10="28.44047"></scales>
<clustering>
<clus scale="   23.331">  2  9  1 -1</clus>
<clus scale="   28.440">  1 10  2 -1</clus>
<clus scale="   91.102">  5  6 -1 -1</clus>
<clus scale="   92.355">  7  8 -1 -1</clus>
<clus scale="  157.874">  1  5  2 -1</clus>
<clus scale="   23.331">  2  5  1 -1</clus>
</clustering>
</event>
<event>
10    2  0.1898324E-006  0.1168783E+03  0.7546771E-02  0.1258053E+00
         -2   -1    0    0    0  501 -0.00000000000E+00  0.00000000000E+00  0.22390526872E+03  0.22390526872E+03  0.00000000000E+00 0.  1.
          2   -1    0    0  502    0  0.00000000000E+00 -0.00000000000E+00 -0.12008331107E+03  0.12008331107E+03  0.00000000000E+00 0. -1.
         23    2    1    2    0    0 -0.31863037183E+02  0.36796795896E+02  0.81628124223E+02  0.14748037680E+03  0.11277434792E+03 0.  0.
         23    2    1    2    0    0  0.10976803487E+01  0.11544189016E+01 -0.98241085155E+01  0.91874341490E+02  0.91333695485E+02 0.  0.
        -11    1    3    3    0    0 -0.40315387810E+02  0.73049162494E+02  0.68683825345E+02  0.10806932266E+03  0.00000000000E+00 0.  1.
         11    1    3    3    0    0  0.84523506266E+01 -0.36252366598E+02  0.12944298878E+02  0.39411054141E+02  0.00000000000E+00 0. -1.
        -13    1    4    4    0    0  0.40652337296E+02  0.22101555000E+02 -0.11710315673E+01  0.46286742983E+02  0.00000000000E+00 0.  1.
         13    1    4    4    0    0 -0.39554656948E+02 -0.20947136098E+02 -0.86530769482E+01  0.45587598507E+02  0.00000000000E+00 0. -1.
         21    1    1    2  502  503  0.12992974909E+02 -0.64226133688E+02  0.10649895577E+02  0.66387001147E+02  0.00000000000E+00 0. -1.
         21    1    1    2  503  501  0.17772381925E+02  0.26274918891E+02  0.21368046367E+02  0.38246860362E+02  0.00000000000E+00 0.  1.
<scales pt_clust_5="13000.00000" pt_clust_6="13000.00000" pt_clust_7="13000.00000" pt_clust_8="13000.00000" pt_clust_9="61.28060" pt_clust_10="31.72111"></scales>
<clustering>
<clus scale="   31.721">  1 10  2 -1</clus>
<clus scale="   61.281">  2  9  1 -1</clus>
<clus scale="   91.334">  7  8 -1 -1</clus>
<clus scale="   96.355">  2  7  1 -1</clus>
<clus scale="  112.774">  5  6 -1 -1</clus>
<clus scale="   61.281">  2  5  1 -1</clus>
</clustering>
</event>
<event>
10    2  0.1898324E-006  0.9653762E+02  0.7546771E-02  0.1290356E+00
          1   -1    0    0  502    0  0.00000000000E+00  0.00000000000E+00  0.41139875690E+03  0.41139875690E+03  0.00000000000E+00 0. -1.
         -1   -1    0    0    0  501 -0.00000000000E+00 -0.00000000000E+00 -0.19816812057E+03  0.19816812057E+03  0.00000000000E+00 0.  1.
         23    2    1    2    0    0 -0.73718592730E+01 -0.24798570723E+02 -0.12943346224E+03  0.16026021093E+03  0.90890046990E+02 0.  0.
         23    2    1    2    0    0  0.99516505406E+01 -0.53633248077E+02  0.28800722360E+03  0.30830628625E+03  0.95546034193E+02 0.  0.
        -11    1    4    4    0    0 -0.27612159037E+02 -0.65098552679E+02  0.18147334632E+03  0.19476351894E+03  0.00000000000E+00 0.  1.
         11    1    4    4    0    0  0.37563809578E+02  0.11465304602E+02  0.10653387728E+03  0.11354276731E+03  0.00000000000E+00 0. -1.
        -13    1    3    3    0    0 -0.28605737046E+02  0.59646842119E+01 -0.11741388451E+03  0.12099539630E+03  0.00000000000E+00 0.  1.
         13    1    3    3    0    0  0.21233877773E+02 -0.30763254935E+02 -0.12019577728E+02  0.39264814633E+02  0.00000000000E+00 0. -1.
         21    1    1    2  502  503  0.53515512858E+00  0.44304152249E+02  0.84594786305E+02  0.95495665700E+02  0.00000000000E+00 0.  1.
         21    1    1    2  503  501 -0.31149463963E+01  0.34127666551E+02 -0.29937911338E+02  0.45504714597E+02  0.00000000000E+00 0.  1.
<scales pt_clust_5="13000.00000" pt_clust_6="13000.00000" pt_clust_7="13000.00000" pt_clust_8="13000.00000" pt_clust_9="45.46551" pt_clust_10="34.26953"></scales>
<clustering>
<clus scale="   34.270">  2 10  1 -1</clus>
<clus scale="   45.466">  1  9  2 -1</clus>
<clus scale="   90.890">  7  8 -1 -1</clus>
<clus scale="   91.932">  2  7  1 -1</clus>
<clus scale="   95.546">  5  6 -1 -1</clus>
<clus scale="   45.466">  1  5  2 -1</clus>
</clustering>
</event>
<event>
10    2  0.1898324E-006  0.1078746E+03  0.7546771E-02  0.1264867E+00
          1   -1    0    0  502    0  0.00000000000E+00  0.00000000000E+00  0.17342527683E+03  0.17342527683E+03  0.00000000000E+00 0. -1.
         -1   -1    0    0    0  501 -0.00000000000E+00 -0.00000000000E+00 -0.27105764262E+03  0.27105764262E+03  0.00000000000E+00 0.  1.
         23    2    1    2    0    0  0.92831080404E+02  0.70614409591E+02 -0.12102871999E+03  0.19109520184E+03  0.90914359551E+02 0.  0.
         23    2    1    2    0    0 -0.17314125948E+02 -0.27099108200E+02  0.62333170833E+02  0.11421441488E+03  0.90140821819E+02 0.  0.
        -13    1    4    4    0    0  0.26959071876E+02 -0.39345249341E+02  0.43550608949E+02  0.64587117461E+02  0.00000000000E+00 0. -1.
         13    1    4    4    0    0 -0.44273197824E+02  0.12246141141E+02  0.18782561883E+02  0.49627297421E+02  0.00000000000E+00 0.  1.
        -13    1    3    3    0    0  0.72967617115E+02  0.64591733708E+02 -0.13469026865E+03  0.16624630426E+03  0.00000000000E+00 0.  1.
         13    1    3    3    0    0  0.19863463289E+02  0.60226758833E+01  0.13661548668E+02  0.24848897574E+02  0.00000000000E+00 0. -1.
         21    1    1    2  502  503 -0.14854230994E+02 -0.17999378023E+02  0.33805925396E+02  0.41078782596E+02  0.00000000000E+00 0.  1.
         21    1    1    2  503  501 -0.60662723463E+02 -0.25515923369E+02 -0.72742742029E+02  0.98094520138E+02  0.00000000000E+00 0.  1.
<scales pt_clust_5="13000.00000" pt_clust_6="13000.00000" pt_clust_7="13000.00000" pt_clust_8="13000.00000" pt_clust_9="23.33722" pt_clust_10="67.74496"></scales>
<clustering>
<clus scale="   23.337">  1  9  2 -1</clus>
<clus scale="   67.745">  2 10  1 -1</clus>
<clus scale="   90.141">  5  6 -1 -1</clus>
<clus scale="   90.914">  7  8 -1 -1</clus>
<clus scale="  107.224">  1  5  2 -1</clus>
<clus scale="   23.337">  1  5  2 -1</clus>
</clustering>
</event>
<event>
10    2  0.1898324E-006  0.9502114E+02  0.7546771E-02  0.1291976E+00
         -2   -1    0    0    0  501 -0.00000000000E+00  0.00000000000E+00  0.36904631508E+03  0.36904631508E+03  0.00000000000E+00 0.  1.
          2   -1    0    0  502    0  0.00000000000E+00 -0.00000000000E+00 -0.61650627359E+02  0.61650627359E+02  0.00000000000E+00 0. -1.
         23    2    1    2    0    0  0.95655181794E+00 -0.38292528917E+01  0.16414766622E+03  0.18769149726E+03  0.90928893358E+02 0.  0.
         23    2    1    2    0    0  0.48881392282E+02 -0.11054016049E+02  0.61151590145E+02  0.12165802746E+03  0.92463922080E+02 0.  0.
        -11    1    3    3    0    0  0.91359042401E+01  0.41715447394E+02  0.98655891973E+02  0.10750175961E+03  0.00000000000E+00 0.  1.
         11    1    3    3    0    0 -0.81793524222E+01 -0.45544700285E+02  0.65491774249E+02  0.80189737650E+02  0.00000000000E+00 0. -1.
        -11    1    4    4    0    0  0.22502583778E+02  0.28028491203E+02  0.65076530402E+02  0.74343240479E+02  0.00000000000E+00 0.  1.
         11    1    4    4    0    0  0.26378808504E+02 -0.39082507252E+02 -0.39249402568E+01  0.47314786983E+02  0.00000000000E+00 0. -1.
         21    1    1    2  502  503 -0.31365527258E+02 -0.30235320487E+01 -0.37458603912E+01  0.31732782990E+02  0.00000000000E+00 0.  1.
         21    1    1    2  503  501 -0.18472416842E+02  0.17906800990E+02  0.85842291747E+02  0.89614634731E+02  0.00000000000E+00 0.  1.
<scales pt_clust_5="13000.00000" pt_clust_6="13000.00000" pt_clust_7="13000.00000" pt_clust_8="13000.00000" pt_clust_9="32.35476" pt_clust_10="25.72710"></scales>
<clustering>
<clus scale="   25.727">  1 10  2 -1</clus>
<clus scale="   32.355">  2  9  1 -1</clus>
<clus scale="   90.929">  5  6 -1 -1</clus>
<clus scale="   92.464">  7  8 -1 -1</clus>
<clus scale="   93.528">  1  5  2 -1</clus>
<clus scale="   32.355">  2  5  1 -1</clus>
</clustering>
</event>
<event>
10    2  0.1898324E-006  0.2550330E+03  0.7546771E-02  0.1149970E+00
         -1   -1    0    0    0  501 -0.00000000000E+00  0.00000000000E+00  0.72881533960E+03  0.72881533960E+03  0.00000000000E+00 0.  1.
          1   -1    0    0  502    0  0.00000000000E+00 -0.00000000000E+00 -0.23455932868E+03  0.23455932868E+03  0.00000000000E+00 0. -1.
         23    2    1    2    0    0  0.15115736494E+02 -0.33313743962E+02  0.19196701766E+03  0.21553502281E+03  0.90916000578E+02 0.  0.
         23    2    1    2    0    0  0.26618451946E+03  0.67287436555E+02  0.24285833881E+02  0.29111503848E+03  0.93682262896E+02 0.  0.
        -11    1    3    3    0    0 -0.13018933230E+02 -0.53476364112E+02  0.15685298052E+03  0.16622897352E+03  0.00000000000E+00 0.  1.
         11    1    3    3    0    0  0.28134669724E+02  0.20162620150E+02  0.35114037147E+02  0.49306049290E+02  0.00000000000E+00 0. -1.
        -13    1    4    4    0    0  0.20058966541E+03  0.64611849027E+02 -0.20364298337E+02  0.21172059312E+03  0.00000000000E+00 0. -1.
         13    1    4    4    0    0  0.65594854050E+02  0.26755875281E+01  0.44650132218E+02  0.79394445357E+02  0.00000000000E+00 0.  1.
         21    1    1    2  502  503 -0.19321996500E+03 -0.71978633444E+02  0.54151114157E+02  0.21318353997E+03  0.00000000000E+00 0. -1.
         21    1    1    2  503  501 -0.88080290952E+02  0.38004940851E+02  0.22385204522E+03  0.24354106703E+03  0.00000000000E+00 0.  1.
<scales pt_clust_5="13000.00000" pt_clust_6="13000.00000" pt_clust_7="13000.00000" pt_clust_8="13000.00000" pt_clust_9="237.20345" pt_clust_10="95.92973"></scales>
<clustering>
<clus scale="   90.916">  5  6 -1 -1</clus>
<clus scale="   93.682">  7  8 -1 -1</clus>
<clus scale="   95.930">  1 10  2 -1</clus>
<clus scale="   95.930">  1  5  2 -1</clus>
<clus scale="  237.203">  2  9  1 -1</clus>
<clus scale="  237.203">  2  5  1 -1</clus>
</clustering>
</event>
<event>
10    2  0.1898324E-006  0.1471342E+03  0.7546771E-02  0.1226291E+00
         -2   -1    0    0    0  501 -0.00000000000E+00  0.00000000000E+00  0.11711478021E+03  0.11711478021E+03  0.00000000000E+00 0.  1.
          2   -1    0    0  502    0  0.00000000000E+00 -0.00000000000E+00 -0.82967977797E+03  0.82967977797E+03  0.00000000000E+00 0. -1.
         23    2    1    2    0    0  0.28401433224E+02 -0.12472416229E+03 -0.54264286171E+03  0.56531189620E+03  0.93560176094E+02 0.  0.
         23    2    1    2    0    0 -0.11370756480E+02  0.83561127848E+01 -0.18527550061E+03  0.20683415767E+03  0.90852842179E+02 0.  0.
        -11    1    3    3    0    0  0.53397961941E+02 -0.57231099489E+02 -0.19169231449E+03  0.20705720109E+03  0.00000000000E+00 0. -1.
         11    1    3    3    0    0 -0.24996528717E+02 -0.67493062799E+02 -0.35095054722E+03  0.35825469511E+03  0.00000000000E+00 0.  1.
        -13    1    4    4    0    0  0.29487520801E+02  0.14621186255E+02 -0.14652141174E+03  0.15017262424E+03  0.00000000000E+00 0. -1.
         13    1    4    4    0    0 -0.40858277281E+02 -0.62650734701E+01 -0.38754088862E+02  0.56661533438E+02  0.00000000000E+00 0.  1.
         21    1    1    2  502  503 -0.57968163816E+02  0.89904023007E+02 -0.26716925406E+02  0.11025804040E+03  0.00000000000E+00 0.  1.
         21    1    1    2  503  501  0.40937487072E+02  0.26464026496E+02  0.42070289954E+02  0.64390463914E+02  0.00000000000E+00 0.  1.
<scales pt_clust_5="13000.00000" pt_clust_6="13000.00000" pt_clust_7="13000.00000" pt_clust_8="13000.00000" pt_clust_9="113.55607" pt_clust_10="48.74651"></scales>
<clustering>
<clus scale="   48.747">  1 10  2 -1</clus>
<clus scale="   90.853">  7  8 -1 -1</clus>
<clus scale="   91.862">  2  7  1 -1</clus>
<clus scale="   93.560">  5  6 -1 -1</clus>
<clus scale="  113.556">  1  9  2 -1</clus>
<clus scale="   91.862">  2  5  1 -1</clus>
</clustering>
</event>
<event>
10    2  0.1898324E-006  0.1878407E+03  0.7546771E-02  0.1164258E+00
         -2   -1    0    0    0  501 -0.00000000000E+00  0.00000000000E+00  0.22477786971E+03  0.22477786971E+03  0.00000000000E+00 0.  1.
          2   -1    0    0  502    0  0.00000000000E+00 -0.00000000000E+00 -0.51427016239E+03  0.51427016239E+03  0.00000000000E+00 0. -1.
         23    2    1    2    0    0 -0.12223594772E+03 -0.62321693504E+02  0.12602695032E+03  0.22048119815E+03  0.11791329923E+03 0.  0.
         23    2    1    2    0    0  0.18617036060E+03  0.82744099623E+02 -0.25868500973E+03  0.34143829806E+03  0.90311615739E+02 0.  0.
        -13    1    3    3    0    0 -0.11249502573E+03 -0.93213076552E+02  0.11608205966E+03  0.18659810564E+03  0.00000000000E+00 0.  1.
         13    1    3    3    0    0 -0.97409219905E+01  0.30891383048E+02  0.99448906638E+01  0.33883092512E+02  0.00000000000E+00 0. -1.
        -13    1    4    4    0    0  0.74708518356E+02 -0.13060461644E+02 -0.90782549949E+02  0.11829374349E+03  0.00000000000E+00 0.  1.
         13    1    4    4    0    0  0.11146184224E+03  0.95804561267E+02 -0.16790245978E+03  0.22314455457E+03  0.00000000000E+00 0. -1.
         21    1    1    2  502  503 -0.33862115970E+02  0.27993145434E+01 -0.11801879492E+03  0.12281251977E+03  0.00000000000E+00 0.  1.
         21    1    1    2  503  501 -0.30072296907E+02 -0.23221720663E+02 -0.38815438358E+02  0.54316016116E+02  0.00000000000E+00 0.  1.
<scales pt_clust_5="13000.00000" pt_clust_6="13000.00000" pt_clust_7="13000.00000" pt_clust_8="13000.00000" pt_clust_9="33.97763" pt_clust_10="41.05057"></scales>
<clustering>
<clus scale="   33.978">  2  9  1 -1</clus>
<clus scale="   41.051">  2 10  1 -1</clus>
<clus scale="   90.312">  7  8 -1 -1</clus>
<clus scale="  117.913">  5  6 -1 -1</clus>
<clus scale="  171.863">  2  7  1 -1</clus>
<clus scale="   33.978">  2  5  1 -1</clus>
</clustering>
</event>
<event>
10    2  0.1898324E-006  0.1230888E+03  0.7546771E-02  0.1238334E+00
          1   -1    0    0  502    0  0.00000000000E+00  0.00000000000E+00  0.90119239546E+02  0.90119239546E+02  0.00000000000E+00 0. -1.
         -1   -1    0    0    0  501 -0.00000000000E+00 -0.00000000000E+00 -0.52140787803E+03  0.52140787803E+03  0.00000000000E+00 0.  1.
         23    2    1    2    0    0 -0.51398562120E+02 -0.95787037394E+02 -0.36104702901E+03  0.38772485205E+03  0.90325162724E+02 0.  0.
         23    2    1    2    0    0  0.14530061616E+01  0.39372393378E+02  0.93310149256E+01  0.99750313480E+02  0.91163373197E+02 0.  0.
        -11    1    3    3    0    0 -0.50335786505E+02 -0.64692598711E+01 -0.10683387025E+03  0.11827518150E+03  0.00000000000E+00 0. -1.
         11    1    3    3    0    0 -0.10627756157E+01 -0.89317777523E+02 -0.25421315876E+03  0.26944967056E+03  0.00000000000E+00 0.  1.
        -13    1    4    4    0    0 -0.21908296420E+02  0.46005297557E+02 -0.25743447012E+02  0.57089280249E+02  0.00000000000E+00 0. -1.
         13    1    4    4    0    0  0.23361302581E+02 -0.66329041792E+01  0.35074461938E+02  0.42661033231E+02  0.00000000000E+00 0.  1.
         21    1    1    2  502  503  0.26959201807E+02  0.46031600338E+02 -0.16053648410E+02  0.55708405281E+02  0.00000000000E+00 0.  1.
         21    1    1    2  503  501  0.22986354152E+02  0.10383043679E+02 -0.63518975989E+02  0.68343546761E+02  0.00000000000E+00 0.  1.
<scales pt_clust_5="13000.00000" pt_clust_6="13000.00000" pt_clust_7="13000.00000" pt_clust_8="13000.00000" pt_clust_9="54.97811" pt_clust_10="25.22261"></scales>
<clustering>
<clus scale="   25.223">  2 10  1 -1</clus>
<clus scale="   54.978">  1  9  2 -1</clus>
<clus scale="   90.325">  5  6 -1 -1</clus>
<clus scale="   91.163">  7  8 -1 -1</clus>
<clus scale="  122.469">  2  5  1 -1</clus>
<clus scale="   54.978">  1  5  2 -1</clus>
</clustering>
</event>
<event>
10    2  0.1898324E-006  0.1080588E+03  0.7546771E-02  0.1266650E+00
         -1   -1    0    0    0  501 -0.00000000000E+00  0.00000000000E+00  0.14955941493E+03  0.14955941493E+03  0.00000000000E+00 0.  1.
          1   -1    0    0  502    0  0.00000000000E+00 -0.00000000000E+00 -0.48769188132E+03  0.48769188132E+03  0.00000000000E+00 0. -1.
         23    2    1    2    0    0 -0.15550656058E+02  0.43647903743E+02 -0.12128662090E+02  0.10236421510E+03  0.90467484121E+02 0.  0.
         23    2    1    2    0    0  0.21531644509E+02  0.55566313860E+02 -0.25056948606E+03  0.27188817540E+03  0.87102730300E+02 0.  0.
        -11    1    3    3    0    0 -0.12313317611E+02 -0.23606557992E+02 -0.21709203908E+02  0.34353702932E+02  0.00000000000E+00 0. -1.
         11    1    3    3    0    0 -0.32373384469E+01  0.67254461735E+02  0.95805418181E+01  0.68010512165E+02  0.00000000000E+00 0.  1.
        -11    1    4    4    0    0 -0.46232049429E+01  0.72912929998E+02 -0.19217753787E+03  0.20559638967E+03  0.00000000000E+00 0. -1.
         11    1    4    4    0    0  0.26154849452E+02 -0.17346616138E+02 -0.58391948198E+02  0.66291785733E+02  0.00000000000E+00 0.  1.
         21    1    1    2  502  503 -0.43188243982E+02  0.11064959341E+01 -0.13415984239E+03  0.14094435804E+03  0.00000000000E+00 0. -1.
         21    1    1    2  503  501  0.37207255531E+02 -0.10032071354E+03  0.58725524154E+02  0.12205454771E+03  0.00000000000E+00 0.  1.
<scales pt_clust_5="13000.00000" pt_clust_6="13000.00000" pt_clust_7="13000.00000" pt_clust_8="13000.00000" pt_clust_9="43.20242" pt_clust_10="63.95164"></scales>
<clustering>
<clus scale="   43.202">  2  9  1 -1</clus>
<clus scale="   87.103">  7  8 -1 -1</clus>
<clus scale="   90.467">  5  6 -1 -1</clus>
<clus scale="  103.037">  1  5  2 -1</clus>
<clus scale="   63.952">  1 10  2 -1</clus>
<clus scale="   43.202">  2  5  1 -1</clus>
</clustering>
</event>
<event>
10    2  0.1898324E-006  0.1427025E+03  0.7546771E-02  0.1210036E+00
          2   -1    0    0  502    0  0.00000000000E+00  0.00000000000E+00  0.35271853439E+03  0.35271853439E+03  0.00000000000E+00 0. -1.
         -2   -1    0    0    0  501 -0.00000000000E+00 -0.00000000000E+00 -0.18714400688E+03  0.18714400688E+03  0.00000000000E+00 0.  1.
         23    2    1    2    0    0  0.30391399905E+02 -0.10496781464E+03 -0.10341672675E+02  0.14315984353E+03  0.91901639300E+02 0.  0.
         23    2    1    2    0    0 -0.95559763662E+02  0.62917714305E+02  0.18282496595E+03  0.23498707853E+03  0.93293363629E+02 0.  0.
        -11    1    4    4    0    0 -0.73934769425E+02  0.86182781057E+02  0.15851159595E+03  0.19498653269E+03  0.00000000000E+00 0.  1.
         11    1    4    4    0    0 -0.21624994237E+02 -0.23265066751E+02  0.24313370002E+02  0.40000545840E+02  0.00000000000E+00 0. -1.
        -11    1    3    3    0    0  0.31559028648E+02 -0.10394696714E+01  0.16761590660E+02  0.35749177723E+02  0.00000000000E+00 0. -1.
         11    1    3    3    0    0 -0.11676287431E+01 -0.10392834497E+03 -0.27103263335E+02  0.10741066580E+03  0.00000000000E+00 0.  1.
         21    1    1    2  502  503  0.63407447925E+02  0.88284725790E+02  0.16370284730E+02  0.10992126037E+03  0.00000000000E+00 0. -1.
         21    1    1    2  503  501  0.17609158322E+01 -0.46234625455E+02 -0.23279050502E+02  0.51794358841E+02  0.00000000000E+00 0.  1.
<scales pt_clust_5="13000.00000" pt_clust_6="13000.00000" pt_clust_7="13000.00000" pt_clust_8="13000.00000" pt_clust_9="97.68000" pt_clust_10="46.26815"></scales>
<clustering>
<clus scale="   46.268">  2 10  1 -1</clus>
<clus scale="   91.902">  7  8 -1 -1</clus>
<clus scale="   93.293">  5  6 -1 -1</clus>
<clus scale="   97.680">  2  9  1 -1</clus>
<clus scale="  141.797">  2  7  1 -1</clus>
<clus scale="  142.703">  1  5  2 -1</clus>
</clustering>
</event>
<event>
10    2  0.1898324E-006  0.9573150E+02  0.7546771E-02  0.1292366E+00
          1   -1    0    0  502    0  0.00000000000E+00  0.00000000000E+00  0.17833232363E+03  0.17833232363E+03  0.00000000000E+00 0. -1.
         -1   -1    0    0    0  501 -0.00000000000E+00 -0.00000000000E+00 -0.28665983014E+03  0.28665983014E+03  0.00000000000E+00 0.  1.
         23    2    1    2    0    0 -0.49554264857E+01  0.12511130139E+02 -0.19015302548E+03  0.21179124644E+03  0.92283662380E+02 0.  0.
         23    2    1    2    0    0  0.12300302516E+02 -0.34369186286E+02  0.13496413060E+03  0.16475385059E+03  0.87154898464E+02 0.  0.
        -11    1    3    3    0    0  0.22197196906E+02  0.38907694258E+02 -0.15022558089E+03  0.15676175993E+03  0.00000000000E+00 0.  1.
         11    1    3    3    0    0 -0.27152623392E+02 -0.26396564118E+02 -0.39927444585E+02  0.55029486508E+02  0.00000000000E+00 0. -1.
        -13    1    4    4    0    0 -0.13919865640E+02 -0.55188174502E+02  0.60258590954E+02  0.82889052643E+02  0.00000000000E+00 0. -1.
         13    1    4    4    0    0  0.26220168156E+02  0.20818988216E+02  0.74705539646E+02  0.81864797943E+02  0.00000000000E+00 0.  1.
         21    1    1    2  502  503 -0.27460889293E+02  0.10678597173E+02  0.11451946262E+01  0.29486341738E+02  0.00000000000E+00 0. -1.
         21    1    1    2  503  501  0.20116013263E+02  0.11179458974E+02 -0.54283806253E+02  0.58960715005E+02  0.00000000000E+00 0.  1.
<scales pt_clust_5="13000.00000" pt_clust_6="13000.00000" pt_clust_7="13000.00000" pt_clust_8="13000.00000" pt_clust_9="28.57960" pt_clust_10="23.01378"></scales>
<clustering>
<clus scale="   23.014">  2 10  1 -1</clus>
<clus scale="   28.580">  1  9  2 -1</clus>
<clus scale="   87.155">  7  8 -1 -1</clus>
<clus scale="   90.798">  1  7  2 -1</clus>
<clus scale="   92.284">  5  6 -1 -1</clus>
<clus scale="   28.580">  1  5  2 -1</clus>
</clustering>
</event>
<event>
10    2  0.1898324E-006  0.1497356E+03  0.7546771E-02  0.1202617E+00
         -2   -1    0    0    0  501 -0.00000000000E+00  0.00000000000E+00  0.43534295353E+03  0.43534295353E+03  0.00000000000E+00 0.  1.
          2   -1    0    0  502    0  0.00000000000E+00 -0.00000000000E+00 -0.54230557437E+03  0.54230557437E+03  0.00000000000E+00 0. -1.
         23    2    1    2    0    0  0.14885471003E+03 -0.14211456821E+03  0.17417365828E+03  0.28772580335E+03  0.10047586516E+03 0.  0.
         23    2    1    2    0    0 -0.31452907908E+02  0.59068714548E+02 -0.20362563192E+02  0.11528358430E+03  0.91636632273E+02 0.  0.
        -11    1    4    4    0    0 -0.25441567139E+02 -0.20167036606E+02  0.25995804828E+01  0.32569011693E+02  0.00000000000E+00 0. -1.
         11    1    4    4    0    0 -0.60113407689E+01  0.79235751154E+02 -0.22962143674E+02  0.82714572603E+02  0.00000000000E+00 0.  1.
        -13    1    3    3    0    0  0.14296386430E+03 -0.97166214240E+02  0.16959582727E+03  0.24216251633E+03  0.00000000000E+00 0. -1.
         13    1    3    3    0    0  0.58908457255E+01 -0.44948353966E+02  0.45778310103E+01  0.45563287024E+02  0.00000000000E+00 0.  1.
         21    1    1    2  502  503 -0.46967017633E+02  0.18954282368E+02 -0.40152068620E+03  0.40470239314E+03  0.00000000000E+00 0.  1.
         21    1    1    2  503  501 -0.70434784489E+02  0.64091571291E+02  0.14074697028E+03  0.16993674711E+03  0.00000000000E+00 0.  1.
<scales pt_clust_5="13000.00000" pt_clust_6="13000.00000" pt_clust_7="13000.00000" pt_clust_8="13000.00000" pt_clust_9="50.64746" pt_clust_10="100.22710"></scales>
<clustering>
<clus scale="   50.647">  2  9  1 -1</clus>
<clus scale="   91.637">  5  6 -1 -1</clus>
<clus scale="  100.227">  1 10  2 -1</clus>
<clus scale="  100.476">  7  8 -1 -1</clus>
<clus scale="  143.954">  2  5  1 -1</clus>
<clus scale="   50.647">  2  5  1 -1</clus>
</clustering>
</event>
<event>
10    2  0.1898324E-006  0.1272050E+03  0.7546771E-02  0.1231820E+00
         -2   -1    0    0    0  501 -0.00000000000E+00  0.00000000000E+00  0.36415768439E+03  0.36415768439E+03  0.00000000000E+00 0.  1.
          2   -1    0    0  502    0  0.00000000000E+00 -0.00000000000E+00 -0.20203557697E+03  0.20203557697E+03  0.00000000000E+00 0. -1.
         23    2    1    2    0    0  0.10811001100E+03 -0.52650360890E+02  0.10361458179E+03  0.18286934779E+03  0.90804084820E+02 0.  0.
         23    2    1    2    0    0  0.17989072329E+01  0.91838148297E+02  0.59407769208E+02  0.14180165946E+03  0.90227191207E+02 0.  0.
        -11    1    3    3    0    0  0.10481259124E+03 -0.25559038438E+02  0.11080142641E+03  0.15464766348E+03  0.00000000000E+00 0.  1.
         11    1    3    3    0    0  0.32974197592E+01 -0.27091322452E+02 -0.71868446137E+01  0.28221684300E+02  0.00000000000E+00 0. -1.
        -11    1    4    4    0    0  0.36874425815E+02  0.76177603888E+02  0.59384343592E+02  0.10338883343E+03  0.00000000000E+00 0.  1.
         11    1    4    4    0    0 -0.35075518583E+02  0.15660544409E+02  0.23425615481E-01  0.38412826032E+02  0.00000000000E+00 0. -1.
         21    1    1    2  502  503 -0.30578297766E+02  0.21418852347E+01 -0.10201437127E+03  0.10652019486E+03  0.00000000000E+00 0. -1.
         21    1    1    2  503  501 -0.79330620463E+02 -0.41329672642E+02  0.10111412770E+03  0.13500205926E+03  0.00000000000E+00 0. -1.
<scales pt_clust_5="13000.00000" pt_clust_6="13000.00000" pt_clust_7="13000.00000" pt_clust_8="13000.00000" pt_clust_9="30.65322" pt_clust_10="94.02044"></scales>
<clustering>
<clus scale="   30.653">  2  9  1 -1</clus>
<clus scale="   90.227">  7  8 -1 -1</clus>
<clus scale="   90.804">  5  6 -1 -1</clus>
<clus scale="   94.020">  1 10  2 -1</clus>
<clus scale="  126.794">  2  7  1 -1</clus>
<clus scale="   30.653">  2  5  1 -1</clus>
</clustering>
</event>
<event>
10    2  0.1898324E-006  0.1467909E+03  0.7546771E-02  0.1204848E+00
          1   -1    0    0  502    0  0.00000000000E+00  0.00000000000E+00  0.21456466877E+03  0.21456466877E+03  0.00000000000E+00 0. -1.
         -1   -1    0    0    0  501 -0.00000000000E+00 -0.00000000000E+00 -0.24365932187E+03  0.24365932187E+03  0.00000000000E+00 0.  1.
         23    2    1    2    0    0  0.13201484822E+03 -0.15005313661E+02 -0.70801133958E+02  0.17669590895E+03  0.92496292257E+02 0.  0.
         23    2    1    2    0    0 -0.96333600939E+02 -0.26653176120E+01  0.74364724779E+02  0.15174727588E+03  0.90608260428E+02 0.  0.
        -11    1    4    4    0    0 -0.37663721387E+02 -0.37235316771E+02  0.63664892866E+02  0.82814511454E+02  0.00000000000E+00 0. -1.
         11    1    4    4    0    0 -0.58669879552E+02  0.34569999159E+02  0.10699831914E+02  0.68932764427E+02  0.00000000000E+00 0.  1.
        -13    1    3    3    0    0  0.12864571653E+03 -0.41406290950E+02 -0.61746698377E+02  0.14858282563E+03  0.00000000000E+00 0.  1.
         13    1    3    3    0    0  0.33691316933E+01  0.26400977290E+02 -0.90544355812E+01  0.28113083323E+02  0.00000000000E+00 0. -1.
         21    1    1    2  502  503 -0.18787465568E+02  0.69168727213E+01  0.45175038554E+02  0.49412509540E+02  0.00000000000E+00 0. -1.
         21    1    1    2  503  501 -0.16893781714E+02  0.10753758552E+02 -0.77833282480E+02  0.80368296269E+02  0.00000000000E+00 0.  1.
<scales pt_clust_5="13000.00000" pt_clust_6="13000.00000" pt_clust_7="13000.00000" pt_clust_8="13000.00000" pt_clust_9="20.02029" pt_clust_10="20.17433"></scales>
<clustering>
<clus scale="   20.020">  1  9  2 -1</clus>
<clus scale="   20.174">  2 10  1 -1</clus>
<clus scale="   90.608">  5  6 -1 -1</clus>
<clus scale="   92.496">  7  8 -1 -1</clus>
<clus scale="  145.609">  1  5  2 -1</clus>
<clus scale="   20.020">  1  5  2 -1</clus>
</clustering>
</event>
<event>
10    2  0.1898324E-006  0.2164531E+03  0.7546771E-02  0.1136571E+00
         -1   -1    0    0    0  501 -0.00000000000E+00  0.00000000000E+00  0.68148409156E+02  0.68148409156E+02  0.00000000000E+00 0.  1.
          1   -1    0    0  503    0  0.00000000000E+00 -0.00000000000E+00 -0.14819581968E+04  0.14819581968E+04  0.00000000000E+00 0. -1.
         23    2    1    2    0    0 -0.96932222267E+02  0.10184954448E+03 -0.23116988947E+03  0.28599271353E+03  0.92645177803E+02 0.  0.
         23    2    1    2    0    0  0.18866251906E+03 -0.11962046763E+03 -0.11013776733E+04  0.11276320858E+04  0.92837164726E+02 0.  0.
        -11    1    4    4    0    0  0.13547579311E+03 -0.32982288996E+02 -0.59062917668E+03  0.60686435572E+03  0.00000000000E+00 0. -1.
         11    1    4    4    0    0  0.53186725944E+02 -0.86638178634E+02 -0.51074849667E+03  0.52076773005E+03  0.00000000000E+00 0.  1.
        -13    1    3    3    0    0  0.41461577947E+01  0.26339600407E+02 -0.10200365420E+03  0.10543107059E+03  0.00000000000E+00 0. -1.
         13    1    3    3    0    0 -0.10107838006E+03  0.75509944069E+02 -0.12916623527E+03  0.18056164294E+03  0.00000000000E+00 0.  1.
         21    1    1    2  502  501 -0.78114758198E+01  0.19402521761E+02 -0.34648256974E+02  0.40471949750E+02  0.00000000000E+00 0.  1.
         21    1    1    2  503  502 -0.83918820969E+02 -0.16315986082E+01 -0.46613967887E+02  0.96009856936E+02  0.00000000000E+00 0. -1.
<scales pt_clust_5="13000.00000" pt_clust_6="13000.00000" pt_clust_7="13000.00000" pt_clust_8="13000.00000" pt_clust_9="20.91595" pt_clust_10="87.06388"></scales>
<clustering>
<clus scale="   20.916">  1  9  2 -1</clus>
<clus scale="   87.064">  1 10  2 -1</clus>
<clus scale="   92.645">  7  8 -1 -1</clus>
<clus scale="   92.837">  5  6 -1 -1</clus>
<clus scale="  216.371">  1  7  2 -1</clus>
<clus scale="  216.453">  2  5  1 -1</clus>
</clustering>
</event>
<event>
10    2  0.1898324E-006  0.1049067E+03  0.7546771E-02  0.1272424E+00
         -1   -1    0    0    0  501 -0.00000000000E+00  0.00000000000E+00  0.26991802086E+03  0.26991802086E+03  0.00000000000E+00 0.  1.
          1   -1    0    0  502    0  0.00000000000E+00 -0.00000000000E+00 -0.13715056505E+03  0.13715056505E+03  0.00000000000E+00 0. -1.
         23    2    1    2    0    0 -0.37057065735E+02 -0.41979307609E+02  0.16619973136E+03  0.19963360202E+03  0.95371567907E+02 0.  0.
         23    2    1    2    0    0  0.24654193803E+02  0.40697647161E+02 -0.71523510501E+02  0.12494212085E+03  0.90723719345E+02 0.  0.
        -11    1    4    4    0    0  0.55521578532E+02  0.21164348162E+02 -0.21905203282E+02  0.63327823637E+02  0.00000000000E+00 0.  1.
         11    1    4    4    0    0 -0.30867384729E+02  0.19533298999E+02 -0.49618307220E+02  0.61614297214E+02  0.00000000000E+00 0. -1.
        -13    1    3    3    0    0 -0.93953224894E+00  0.24841306821E+02  0.11706011579E+02  0.27477335251E+02  0.00000000000E+00 0. -1.
         13    1    3    3    0    0 -0.36117533486E+02 -0.66820614430E+02  0.15449371978E+03  0.17215626677E+03  0.00000000000E+00 0.  1.
         21    1    1    2  502  503 -0.22742241454E+02  0.19872767362E+01 -0.82973032804E+01  0.24289999113E+02  0.00000000000E+00 0.  1.
         21    1    1    2  503  501  0.35145113386E+02 -0.70561628787E+00  0.46388538242E+02  0.58202863928E+02  0.00000000000E+00 0. -1.
<scales pt_clust_5="13000.00000" pt_clust_6="13000.00000" pt_clust_7="13000.00000" pt_clust_8="13000.00000" pt_clust_9="22.82890" pt_clust_10="34.03897"></scales>
<clustering>
<clus scale="   22.829">  2  9  1 -1</clus>
<clus scale="   34.039">  1 10  2 -1</clus>
<clus scale="   90.724">  5  6 -1 -1</clus>
<clus scale="   95.372">  7  8 -1 -1</clus>
<clus scale="  100.700">  2  5  1 -1</clus>
<clus scale="   22.829">  2  5  1 -1</clus>
</clustering>
</event>
<event>
10    2  0.1898324E-006  0.1181167E+03  0.7546771E-02  0.1248206E+00
          1   -1    0    0  502    0  0.00000000000E+00  0.00000000000E+00  0.23913340915E+03  0.23913340915E+03  0.00000000000E+00 0. -1.
         -1   -1    0    0    0  501 -0.00000000000E+00 -0.00000000000E+00 -0.18403667509E+03  0.18403667509E+03  0.00000000000E+00 0.  1.
         23    2    1    2    0    0 -0.19144055119E+02  0.80743904011E+02 -0.65202026212E+02  0.14007935798E+03  0.92113242419E+02 0.  0.
         23    2    1    2    0    0 -0.11348474967E+02 -0.41105495818E+02  0.55473725430E+02  0.12017116747E+03  0.97700182223E+02 0.  0.
        -11    1    4    4    0    0  0.45031279721E+01 -0.60102337346E+02  0.69288491165E+02  0.91833894200E+02  0.00000000000E+00 0.  1.
         11    1    4    4    0    0 -0.15851602939E+02  0.18996841528E+02 -0.13814765735E+02  0.28337273265E+02  0.00000000000E+00 0. -1.
        -13    1    3    3    0    0  0.29397379819E+02  0.48689306637E+02 -0.58389068302E+02  0.81511580884E+02  0.00000000000E+00 0.  1.
         13    1    3    3    0    0 -0.48541434938E+02  0.32054597374E+02 -0.68129579104E+01  0.58567777098E+02  0.00000000000E+00 0. -1.
         21    1    1    2  502  503  0.60113748031E+02 -0.25712837710E+02  0.97028999485E+02  0.11700187805E+03  0.00000000000E+00 0. -1.
         21    1    1    2  503  501 -0.29621217945E+02 -0.13925570483E+02 -0.32203964649E+02  0.45917680744E+02  0.00000000000E+00 0.  1.
<scales pt_clust_5="13000.00000" pt_clust_6="13000.00000" pt_clust_7="13000.00000" pt_clust_8="13000.00000" pt_clust_9="63.90549" pt_clust_10="32.73130"></scales>
<clustering>
<clus scale="   32.731">  2 10  1 -1</clus>
<clus scale="   63.905">  1  9  2 -1</clus>
<clus scale="   92.113">  7  8 -1 -1</clus>
<clus scale="   97.700">  5  6 -1 -1</clus>
<clus scale="  113.539">  2  7  1 -1</clus>
<clus scale="   63.905">  1  5  2 -1</clus>
</clustering>
</event>
<event>
10    2  0.1898324E-006  0.9571892E+02  0.7546771E-02  0.1290020E+00
          1   -1    0    0  502    0  0.00000000000E+00  0.00000000000E+00  0.32214059692E+03  0.32214059692E+03  0.00000000000E+00 0. -1.
         -1   -1    0    0    0  501 -0.00000000000E+00 -0.00000000000E+00 -0.59649482675E+02  0.59649482675E+02  0.00000000000E+00 0.  1.
         23    2    1    2    0    0  0.25483052085E+02  0.62596896098E+01  0.67662230722E+02  0.11643073729E+03  0.91045974436E+02 0.  0.
         23    2    1    2    0    0 -0.38392778722E+02  0.10320745877E+02  0.10780751574E+03  0.14607364352E+03  0.90191605086E+02 0.  0.
        -11    1    3    3    0    0  0.57981351023E+02  0.81264782019E+01  0.58147721936E+02  0.82516872703E+02  0.00000000000E+00 0.  1.
         11    1    3    3    0    0 -0.32498298938E+02 -0.18667885921E+01  0.95145087866E+01  0.33913864583E+02  0.00000000000E+00 0. -1.
        -13    1    4    4    0    0 -0.22015650688E+02  0.31356476587E+02  0.11264207195E+03  0.11897963638E+03  0.00000000000E+00 0. -1.
         13    1    4    4    0    0 -0.16377128034E+02 -0.21035730710E+02 -0.48345562143E+01  0.27094007140E+02  0.00000000000E+00 0.  1.
         21    1    1    2  502  503  0.23187411320E+02  0.14667912427E+01  0.94421607626E+02  0.97238096994E+02  0.00000000000E+00 0. -1.
         21    1    1    2  503  501 -0.10277684683E+02 -0.18047226729E+02 -0.74002398450E+01  0.22047601793E+02  0.00000000000E+00 0.  1.
<scales pt_clust_5="13000.00000" pt_clust_6="13000.00000" pt_clust_7="13000.00000" pt_clust_8="13000.00000" pt_clust_9="22.88299" pt_clust_10="20.76856"></scales>
<clustering>
<clus scale="   20.769">  2 10  1 -1</clus>
<clus scale="   22.883">  1  9  2 -1</clus>
<clus scale="   90.192">  7  8 -1 -1</clus>
<clus scale="   91.046">  5  6 -1 -1</clus>
<clus scale="   94.907">  1  7  2 -1</clus>
<clus scale="   22.883">  1  5  2 -1</clus>
</clustering>
</event>
<event>
10    2  0.1898324E-006  0.1216752E+03  0.7546771E-02  0.1240484E+00
          2   -1    0    0  502    0  0.00000000000E+00  0.00000000000E+00  0.75704600037E+03  0.75704600037E+03  0.00000000000E+00 0. -1.
         -2   -1    0    0    0  501 -0.00000000000E+00 -0.00000000000E+00 -0.51514209469E+02  0.51514209469E+02  0.00000000000E+00 0.  1.
         23    2    1    2    0    0 -0.88298175389E+02 -0.16653316678E+02  0.13001002116E+03  0.18310499343E+03  0.92471251120E+02 0.  0.
         23    2    1    2    0    0  0.58444160626E+02 -0.64884403038E+02  0.21827913884E+03  0.25277943424E+03  0.92876015504E+02 0.  0.
        -11    1    3    3    0    0  0.89748301004E+01 -0.28683775521E+02  0.21960149858E+02  0.37223040382E+02  0.00000000000E+00 0. -1.
         11    1    3    3    0    0 -0.97273005489E+02  0.12030458843E+02  0.10804987130E+03  0.14588195305E+03  0.00000000000E+00 0.  1.
        -11    1    4    4    0    0  0.52759771795E+02  0.71710152766E+01  0.71275868149E+02  0.88967782710E+02  0.00000000000E+00 0.  1.
         11    1    4    4    0    0  0.56843888303E+01 -0.72055418315E+02  0.14700327069E+03  0.16381165153E+03  0.00000000000E+00 0. -1.
         21    1    1    2  502  503  0.25905713361E+02  0.45935028418E+02  0.30377065184E+03  0.30831435539E+03  0.00000000000E+00 0.  1.
         21    1    1    2  503  501  0.39483014020E+01  0.35602691298E+02  0.53471979067E+02  0.64361426779E+02  0.00000000000E+00 0.  1.
<scales pt_clust_5="13000.00000" pt_clust_6="13000.00000" pt_clust_7="13000.00000" pt_clust_8="13000.00000" pt_clust_9="54.36577" pt_clust_10="35.82095"></scales>
<clustering>
<clus scale="   35.821">  2 10  1 -1</clus>
<clus scale="   54.366">  1  9  2 -1</clus>
<clus scale="   92.471">  5  6 -1 -1</clus>
<clus scale="   92.876">  7  8 -1 -1</clus>
<clus scale="  121.367">  2  5  1 -1</clus>
<clus scale="   54.366">  1  5  2 -1</clus>
</clustering>
</event>
<event>
10    2  0.1898324E-006  0.1002902E+03  0.7546771E-02  0.1281135E+00
         -2   -1    0    0    0  501 -0.00000000000E+00  0.00000000000E+00  0.23516516636E+03  0.23516516636E+03  0.00000000000E+00 0.  1.
          2   -1    0    0  502    0  0.00000000000E+00 -0.00000000000E+00 -0.15933753849E+03  0.15933753849E+03  0.00000000000E+00 0. -1.
         23    2    1    2    0    0  0.49778578656E+01  0.34873590498E+02  0.97542957660E+02  0.14087580817E+03  0.95343685449E+02 0.  0.
         23    2    1    2    0    0 -0.20185989451E+02 -0.71528397648E+02 -0.45157520359E+02  0.12694171597E+03  0.92472762302E+02 0.  0.
        -13    1    4    4    0    0 -0.42242839639E+01 -0.46139199542E+02 -0.72709640300E+02  0.86216947881E+02  0.00000000000E+00 0. -1.
         13    1    4    4    0    0 -0.15961705487E+02 -0.25389198106E+02  0.27552119941E+02  0.40724768087E+02  0.00000000000E+00 0.  1.
        -13    1    3    3    0    0  0.69891946146E+01 -0.28389714280E+02  0.64317961406E+01  0.29936478081E+02  0.00000000000E+00 0. -1.
         13    1    3    3    0    0 -0.20113367491E+01  0.63263304778E+02  0.91111161520E+02  0.11093933009E+03  0.00000000000E+00 0.  1.
         21    1    1    2  502  503  0.96471880373E+01  0.63778788439E+02 -0.26376897505E+02  0.69688900220E+02  0.00000000000E+00 0.  1.
         21    1    1    2  503  501  0.55609435480E+01 -0.27123981289E+02  0.49819088069E+02  0.56996280494E+02  0.00000000000E+00 0. -1.
<scales pt_clust_5="13000.00000" pt_clust_6="13000.00000" pt_clust_7="13000.00000" pt_clust_8="13000.00000" pt_clust_9="61.41851" pt_clust_10="27.68816"></scales>
<clustering>
<clus scale="   27.688">  1 10  2 -1</clus>
<clus scale="   61.419">  2  9  1 -1</clus>
<clus scale="   92.473">  5  6 -1 -1</clus>
<clus scale="   95.344">  7  8 -1 -1</clus>
<clus scale="   97.565">  2  5  1 -1</clus>
<clus scale="   61.419">  2  5  1 -1</clus>
</clustering>
</event>
<event>
10    2  0.1898324E-006  0.1070013E+03  0.7546771E-02  0.1267097E+00
          1   -1    0    0  502    0  0.00000000000E+00  0.00000000000E+00  0.72852814124E+02  0.72852814124E+02  0.00000000000E+00 0. -1.
         -1   -1    0    0    0  501 -0.00000000000E+00 -0.00000000000E+00 -0.51172393456E+03  0.51172393456E+03  0.00000000000E+00 0.  1.
         23    2    1    2    0    0  0.19511232612E+02 -0.58254288252E+02 -0.85420242456E+02  0.14026287305E+03  0.92751309627E+02 0.  0.
         23    2    1    2    0    0 -0.63141014571E+02  0.14212087657E+02 -0.67894967359E+02  0.13045984663E+03  0.90671240385E+02 0.  0.
        -13    1    3    3    0    0  0.36210825440E+02 -0.77228097078E+02 -0.72130564443E+02  0.11170595859E+03  0.00000000000E+00 0.  1.
         13    1    3    3    0    0 -0.16699592828E+02  0.18973808826E+02 -0.13289678013E+02  0.28556914463E+02  0.00000000000E+00 0. -1.
        -13    1    4    4    0    0 -0.83425487274E+02  0.13970923133E+02 -0.70359467329E+02  0.11002478477E+03  0.00000000000E+00 0. -1.
         13    1    4    4    0    0  0.20284472704E+02  0.24116452402E+00  0.24644999694E+01  0.20435061862E+02  0.00000000000E+00 0.  1.
         21    1    1    2  502  503  0.16997150244E+02 -0.12507019166E+02  0.43968815309E+00  0.21107391371E+02  0.00000000000E+00 0.  1.
         21    1    1    2  503  501  0.26632631715E+02  0.56549219761E+02 -0.28599559877E+03  0.29274663763E+03  0.00000000000E+00 0.  1.
<scales pt_clust_5="13000.00000" pt_clust_6="13000.00000" pt_clust_7="13000.00000" pt_clust_8="13000.00000" pt_clust_9="21.10281" pt_clust_10="62.29560"></scales>
<clustering>
<clus scale="   21.103">  1  9  2 -1</clus>
<clus scale="   62.296">  2 10  1 -1</clus>
<clus scale="   90.671">  7  8 -1 -1</clus>
<clus scale="   92.751">  5  6 -1 -1</clus>
<clus scale="  105.203">  1  7  2 -1</clus>
<clus scale="   21.103">  1  5  2 -1</clus>
</clustering>
</event>
<event>
10    2  0.1898324E-006  0.3680817E+03  0.7546771E-02  0.1055727E+00
          1   -1    0    0  502    0  0.00000000000E+00  0.00000000000E+00  0.60857174442E+03  0.60857174442E+03  0.00000000000E+00 0. -1.
         -1   -1    0    0    0  501 -0.00000000000E+00 -0.00000000000E+00 -0.51589878688E+03  0.51589878688E+03  0.00000000000E+00 0.  1.
         23    2    1    2    0    0 -0.20148706643E+03  0.29122487185E+03 -0.14853254106E+03  0.39328539699E+03  0.84867684116E+02 0.  0.
         23    2    1    2    0    0  0.22994654133E+03 -0.17861782242E+03  0.27571104411E+03  0.41262388538E+03  0.97273596564E+02 0.  0.
        -11    1    4    4    0    0  0.21726499647E+02 -0.42549632366E+02  0.10296532832E+02  0.48872595488E+02  0.00000000000E+00 0.  1.
         11    1    4    4    0    0  0.20822004168E+03 -0.13606819005E+03  0.26541451128E+03  0.36375128989E+03  0.00000000000E+00 0. -1.
        -13    1    3    3    0    0 -0.13892635175E+03  0.25511378956E+03 -0.10463890738E+03  0.30876022699E+03  0.00000000000E+00 0.  1.
         13    1    3    3    0    0 -0.62560714683E+02  0.36111082294E+02 -0.43893633677E+02  0.84525170000E+02  0.00000000000E+00 0. -1.
         21    1    1    2  502  503  0.49864231255E+02 -0.12046182824E+03  0.98914609876E+02  0.16365082850E+03  0.00000000000E+00 0. -1.
         21    1    1    2  503  501 -0.78323706146E+02  0.78547788101E+01 -0.13342015539E+03  0.15491042043E+03  0.00000000000E+00 0.  1.
<scales pt_clust_5="13000.00000" pt_clust_6="13000.00000" pt_clust_7="13000.00000" pt_clust_8="13000.00000" pt_clust_9="127.27747" pt_clust_10="78.71658"></scales>
<clustering>
<clus scale="   78.717">  2 10  1 -1</clus>
<clus scale="   84.868">  7  8 -1 -1</clus>
<clus scale="   97.274">  5  6 -1 -1</clus>
<clus scale="  127.277">  1  9  2 -1</clus>
<clus scale="  364.999">  2  7  1 -1</clus>
<clus scale="  127.277">  1  5  2 -1</clus>
</clustering>
</event>
<event>
10    2  0.1898324E-006  0.1349108E+03  0.7546771E-02  0.1221398E+00
          2   -1    0    0  502    0  0.00000000000E+00  0.00000000000E+00  0.14608442679E+03  0.14608442679E+03  0.00000000000E+00 0. -1.
         -2   -1    0    0    0  501 -0.00000000000E+00 -0.00000000000E+00 -0.27525325039E+03  0.27525325039E+03  0.00000000000E+00 0.  1.
         23    2    1    2    0    0 -0.82733875025E+02 -0.46581021605E+01 -0.10291917982E+03  0.16066386065E+03  0.91399817026E+02 0.  0.
         23    2    1    2    0    0  0.90975259724E+02 -0.11781077669E+02  0.22897999057E+02  0.12848413826E+03  0.86997492784E+02 0.  0.
        -11    1    3    3    0    0 -0.35419832015E+02 -0.45476015275E+02 -0.31212402835E+02  0.65550336048E+02  0.00000000000E+00 0. -1.
         11    1    3    3    0    0 -0.47314043010E+02  0.40817913115E+02 -0.71706776982E+02  0.95113524601E+02  0.00000000000E+00 0.  1.
        -11    1    4    4    0    0  0.17567625276E+02 -0.12419411264E+02  0.46612839240E+02  0.51338289959E+02  0.00000000000E+00 0. -1.
         11    1    4    4    0    0  0.73407634449E+02  0.63833359580E+00 -0.23714840182E+02  0.77145848300E+02  0.00000000000E+00 0.  1.
         21    1    1    2  502  503  0.34402870294E+02 -0.83951206242E+01  0.24839179653E+02  0.43255293093E+02  0.00000000000E+00 0. -1.
         21    1    1    2  503  501 -0.42644254993E+02  0.24834300453E+02 -0.73986822497E+02  0.88934385174E+02  0.00000000000E+00 0. -1.
<scales pt_clust_5="13000.00000" pt_clust_6="13000.00000" pt_clust_7="13000.00000" pt_clust_8="13000.00000" pt_clust_9="35.41236" pt_clust_10="47.08829"></scales>
<clustering>
<clus scale="   35.412">  1  9  2 -1</clus>
<clus scale="   47.088">  2 10  1 -1</clus>
<clus scale="   86.997">  7  8 -1 -1</clus>
<clus scale="   91.400">  5  6 -1 -1</clus>
<clus scale="  131.968">  1  7  2 -1</clus>
<clus scale="   35.412">  1  5  2 -1</clus>
</clustering>
</event>
<event>
10    2  0.1898324E-006  0.1626206E+03  0.7546771E-02  0.1208897E+00
         -2   -1    0    0    0  501 -0.00000000000E+00  0.00000000000E+00  0.35393698617E+03  0.35393698617E+03  0.00000000000E+00 0.  1.
          2   -1    0    0  502    0  0.00000000000E+00 -0.00000000000E+00 -0.43200702904E+03  0.43200702904E+03  0.00000000000E+00 0. -1.
         23    2    1    2    0    0 -0.25442811949E+02  0.13086882392E+03 -0.24854358497E+03  0.29682648803E+03  0.92509808184E+02 0.  0.
         23    2    1    2    0    0  0.17463299126E+02  0.33751260263E+02 -0.91432341723E+02  0.13495692317E+03  0.91702691416E+02 0.  0.
        -11    1    4    4    0    0  0.49214961796E+02  0.27441635621E+02 -0.84953592244E+02  0.10194247724E+03  0.00000000000E+00 0. -1.
         11    1    4    4    0    0 -0.31751662670E+02  0.63096246425E+01 -0.64787494796E+01  0.33014445933E+02  0.00000000000E+00 0.  1.
        -13    1    3    3    0    0  0.25381610804E+02  0.72632029118E+02 -0.17013910861E+03  0.18672695065E+03  0.00000000000E+00 0.  1.
         13    1    3    3    0    0 -0.50824422753E+02  0.58236794805E+02 -0.78404476360E+02  0.11009953738E+03  0.00000000000E+00 0. -1.
         21    1    1    2  502  503  0.25892017233E+02 -0.31680819062E+02 -0.17285048204E+02  0.44416705689E+02  0.00000000000E+00 0. -1.
         21    1    1    2  503  501 -0.17912504410E+02 -0.13293926512E+03  0.27919093202E+03  0.30974389833E+03  0.00000000000E+00 0.  1.
<scales pt_clust_5="13000.00000" pt_clust_6="13000.00000" pt_clust_7="13000.00000" pt_clust_8="13000.00000" pt_clust_9="40.91541" pt_clust_10="133.74381"></scales>
<clustering>
<clus scale="   40.915">  2  9  1 -1</clus>
<clus scale="   91.703">  5  6 -1 -1</clus>
<clus scale="   92.510">  7  8 -1 -1</clus>
<clus scale="   98.176">  2  5  1 -1</clus>
<clus scale="  133.744">  1 10  2 -1</clus>
<clus scale="   40.915">  2  5  1 -1</clus>
</clustering>
</event>
<event>
10    2  0.1898324E-006  0.1187481E+03  0.7546771E-02  0.1247850E+00
         -2   -1    0    0    0  501 -0.00000000000E+00  0.00000000000E+00  0.12214624784E+03  0.12214624784E+03  0.00000000000E+00 0.  1.
          2   -1    0    0  502    0  0.00000000000E+00 -0.00000000000E+00 -0.59173358391E+03  0.59173358391E+03  0.00000000000E+00 0. -1.
         23    2    1    2    0    0 -0.54455226479E+02 -0.22636474446E+02  0.42869005585E+02  0.12310113180E+03  0.99188483928E+02 0.  0.
         23    2    1    2    0    0  0.11470311906E+03 -0.16533230058E+02 -0.21955588126E+03  0.26464455185E+03  0.91661336509E+02 0.  0.
        -11    1    4    4    0    0  0.73772740833E+02 -0.41087339694E+02 -0.19147018209E+03  0.20926398974E+03  0.00000000000E+00 0. -1.
         11    1    4    4    0    0  0.40930378228E+02  0.24554109636E+02 -0.28085699174E+02  0.55380562113E+02  0.00000000000E+00 0.  1.
        -13    1    3    3    0    0 -0.19915875213E+02 -0.60586546508E+02  0.19296007205E+02  0.66631130842E+02  0.00000000000E+00 0. -1.
         13    1    3    3    0    0 -0.34539351266E+02  0.37950072062E+02  0.23572998380E+02  0.56470000956E+02  0.00000000000E+00 0.  1.
         21    1    1    2  502  503 -0.11375688657E+02 -0.26971601536E+02 -0.19971739592E+03  0.20185121208E+03  0.00000000000E+00 0. -1.
         21    1    1    2  503  501 -0.48872203925E+02  0.66141306040E+02 -0.93183064472E+02  0.12428293602E+03  0.00000000000E+00 0. -1.
<scales pt_clust_5="13000.00000" pt_clust_6="13000.00000" pt_clust_7="13000.00000" pt_clust_8="13000.00000" pt_clust_9="29.27240" pt_clust_10="78.39886"></scales>
<clustering>
<clus scale="   29.272">  2  9  1 -1</clus>
<clus scale="   78.399">  2 10  1 -1</clus>
<clus scale="   91.661">  5  6 -1 -1</clus>
<clus scale="   99.188">  7  8 -1 -1</clus>
<clus scale="  112.537">  2  5  1 -1</clus>
<clus scale="   29.272">  2  5  1 -1</clus>
</clustering>
</event>
<event>
10    2  0.1898324E-006  0.9212663E+02  0.7546771E-02  0.1298280E+00
         -1   -1    0    0    0  501 -0.00000000000E+00  0.00000000000E+00  0.11241580679E+03  0.11241580679E+03  0.00000000000E+00 0.  1.
          1   -1    0    0  502    0  0.00000000000E+00 -0.00000000000E+00 -0.33271969189E+03  0.33271969189E+03  0.00000000000E+00 0. -1.
         23    2    1    2    0    0 -0.28025462122E+02  0.14991209170E+02 -0.27273537946E+02  0.10033364745E+03  0.91174733661E+02 0.  0.
         23    2    1    2    0    0 -0.11860241330E+02  0.46977206117E+01 -0.24429450503E+03  0.26136251893E+03  0.92020797702E+02 0.  0.
        -11    1    4    4    0    0 -0.38077203828E+02 -0.29935608098E+02 -0.14800420852E+03  0.15572816002E+03  0.00000000000E+00 0. -1.
         11    1    4    4    0    0  0.26216962498E+02  0.34633328710E+02 -0.96290296511E+02  0.10563435891E+03  0.00000000000E+00 0.  1.
        -11    1    3    3    0    0  0.43974261443E+01 -0.30729917692E+02 -0.31370461553E+02  0.44133559295E+02  0.00000000000E+00 0.  1.
         11    1    3    3    0    0 -0.32422888267E+02  0.45721126862E+02  0.40969236067E+01  0.56200088150E+02  0.00000000000E+00 0. -1.
         21    1    1    2  502  503  0.18085804320E+02 -0.18159184631E+02 -0.21583358609E+01  0.25719850662E+02  0.00000000000E+00 0.  1.
         21    1    1    2  503  501  0.21799899132E+02 -0.15297451505E+01  0.53422493744E+02  0.57719481635E+02  0.00000000000E+00 0.  1.
<scales pt_clust_5="13000.00000" pt_clust_6="13000.00000" pt_clust_7="13000.00000" pt_clust_8="13000.00000" pt_clust_9="29.19414" pt_clust_10="21.85351"></scales>
<clustering>
<clus scale="   21.854">  1 10  2 -1</clus>
<clus scale="   29.194">  1  9  2 -1</clus>
<clus scale="   91.175">  7  8 -1 -1</clus>
<clus scale="   91.282">  1  7  2 -1</clus>
<clus scale="   92.021">  5  6 -1 -1</clus>
<clus scale="   92.127">  2  5  1 -1</clus>
</clustering>
</event>
<event>
10    2  0.3284423E-006  0.1152082E+03  0.7546771E-02  0.1251378E+00
         -2   -1    0    0    0  501 -0.00000000000E+00  0.00000000000E+00  0.11674398949E+03  0.11674398949E+03  0.00000000000E+00 0.  1.
          2   -1    0    0  502    0  0.00000000000E+00 -0.00000000000E+00 -0.65876563086E+03  0.65876563086E+03  0.00000000000E+00 0. -1.
         23    2    1    2    0    0 -0.71616385410E+02  0.19686927160E+02  0.60453769427E+02  0.13136909957E+03  0.89926082556E+02 0.  0.
         23    2    1    2    0    0  0.92721406950E+02  0.11632712623E+02 -0.49681946864E+03  0.51354964020E+03  0.90393966716E+02 0.  0.
        -11    1    4    4    0    0 -0.84234975527E+01  0.18614572724E+02 -0.33274491043E+02  0.39046758930E+02  0.00000000000E+00 0.  1.
         11    1    4    4    0    0  0.10114490450E+03 -0.69818601012E+01 -0.46354497759E+03  0.47450288127E+03  0.00000000000E+00 0. -1.
        -13    1    3    3    0    0 -0.50575294311E+02 -0.79799328841E+01 -0.10583943419E+02  0.52283454188E+02  0.00000000000E+00 0. -1.
         13    1    3    3    0    0 -0.21041091099E+02  0.27666860044E+02  0.71037712845E+02  0.79085645383E+02  0.00000000000E+00 0.  1.
         21    1    1    2  502  503 -0.23592399168E+02 -0.71909289701E+01 -0.10331891278E+03  0.10622197746E+03  0.00000000000E+00 0.  1.
         21    1    1    2  503  501  0.24873776285E+01 -0.24128710813E+02 -0.23370293825E+01  0.24368903121E+02  0.00000000000E+00 0. -1.
<scales pt_clust_5="13000.00000" pt_clust_6="13000.00000" pt_clust_7="13000.00000" pt_clust_8="13000.00000" pt_clust_9="24.73003" pt_clust_10="24.25658"></scales>
<clustering>
<clus scale="   24.257">  1 10  2 -1</clus>
<clus scale="   24.730">  2  9  1 -1</clus>
<clus scale="   89.926">  7  8 -1 -1</clus>
<clus scale="   90.394">  5  6 -1 -1</clus>
<clus scale="  114.842">  1  7  2 -1</clus>
<clus scale="   24.730">  2  5  1 -1</clus>
</clustering>
</event>
<event>
10    2  0.1898324E-006  0.1237095E+03  0.7546771E-02  0.1241565E+00
         -1   -1    0    0    0  501 -0.00000000000E+00  0.00000000000E+00  0.16652079085E+03  0.16652079085E+03  0.00000000000E+00 0.  1.
          1   -1    0    0  503    0  0.00000000000E+00 -0.00000000000E+00 -0.59540133158E+03  0.59540133158E+03  0.00000000000E+00 0. -1.
         23    2    1    2    0    0 -0.20625487347E+02 -0.59085351411E+02  0.12127565837E+03  0.17327251514E+03  0.10676651961E+03 0.  0.
         23    2    1    2    0    0  0.10357673444E+02  0.60857715240E+02 -0.43595626626E+03  0.45025229341E+03  0.94118641737E+02 0.  0.
        -11    1    3    3    0    0 -0.27001286414E+02 -0.31267628412E+02 -0.69641283441E+01  0.41895502600E+02  0.00000000000E+00 0.  1.
         11    1    3    3    0    0  0.63757990664E+01 -0.27817722998E+02  0.12823978672E+03  0.13137701254E+03  0.00000000000E+00 0. -1.
        -11    1    4    4    0    0 -0.26379317008E+02  0.67625825810E+02 -0.33043689701E+03  0.33831592275E+03  0.00000000000E+00 0. -1.
         11    1    4    4    0    0  0.36736990452E+02 -0.67681105701E+01 -0.10551936925E+03  0.11193637066E+03  0.00000000000E+00 0.  1.
         21    1    1    2  502  501  0.22047878568E+02  0.30664063288E+02 -0.85656431074E+02  0.93613128945E+02  0.00000000000E+00 0. -1.
         21    1    1    2  503  502 -0.11780064664E+02 -0.32436427118E+02 -0.28543501767E+02  0.44784184940E+02  0.00000000000E+00 0.  1.
<scales pt_clust_5="13000.00000" pt_clust_6="13000.00000" pt_clust_7="13000.00000" pt_clust_8="13000.00000" pt_clust_9="32.47437" pt_clust_10="34.50930"></scales>
<clustering>
<clus scale="   34.509">  2 10  1 -1</clus>
<clus scale="   32.474">  2  9  1 -1</clus>
<clus scale="   94.119">  7  8 -1 -1</clus>
<clus scale="  106.767">  5  6 -1 -1</clus>
<clus scale="  112.975">  2  7  1 -1</clus>
<clus scale="   34.509">  2  5  1 -1</clus>
</clustering>
</event>
<event>
10    2  0.1898324E-006  0.1247918E+03  0.7546771E-02  0.1236753E+00
          1   -1    0    0  502    0  0.00000000000E+00  0.00000000000E+00  0.70134938385E+03  0.70134938385E+03  0.00000000000E+00 0. -1.
         -1   -1    0    0    0  501 -0.00000000000E+00 -0.00000000000E+00 -0.62593788092E+02  0.62593788092E+02  0.00000000000E+00 0.  1.
         23    2    1    2    0    0  0.60203054709E+02  0.13824356979E+02  0.19838119574E+03  0.22831169700E+03  0.94634092796E+02 0.  0.
         23    2    1    2    0    0 -0.78891891009E+02 -0.74403322649E+02  0.34908318204E+03  0.37647496784E+03  0.90080788953E+02 0.  0.
        -13    1    4    4    0    0 -0.10003437086E+02  0.19017684188E+02  0.90806698367E+02  0.93314508699E+02  0.00000000000E+00 0. -1.
         13    1    4    4    0    0 -0.68888453922E+02 -0.93421006837E+02  0.25827648368E+03  0.28316045914E+03  0.00000000000E+00 0.  1.
        -13    1    3    3    0    0  0.52023096404E+02 -0.28851099699E+02  0.65383375057E+02  0.88395555585E+02  0.00000000000E+00 0.  1.
         13    1    3    3    0    0  0.81799583048E+01  0.42675456679E+02  0.13299782068E+03  0.13991614141E+03  0.00000000000E+00 0. -1.
         21    1    1    2  502  503  0.25788877183E+02  0.34917073389E+01  0.97854785098E+02  0.10125619573E+03  0.00000000000E+00 0. -1.
         21    1    1    2  503  501 -0.71000408828E+01  0.57087258331E+02 -0.65635671222E+01  0.57900311378E+02  0.00000000000E+00 0.  1.
<scales pt_clust_5="13000.00000" pt_clust_6="13000.00000" pt_clust_7="13000.00000" pt_clust_8="13000.00000" pt_clust_9="26.02419" pt_clust_10="57.54982"></scales>
<clustering>
<clus scale="   26.024">  1  9  2 -1</clus>
<clus scale="   57.550">  2 10  1 -1</clus>
<clus scale="   90.081">  5  6 -1 -1</clus>
<clus scale="   94.634">  7  8 -1 -1</clus>
<clus scale="  121.375">  1  5  2 -1</clus>
<clus scale="   26.024">  1  5  2 -1</clus>
</clustering>
</event>
<event>
10    2  0.1898324E-006  0.9238680E+02  0.7546771E-02  0.1299294E+00
          2   -1    0    0  502    0  0.00000000000E+00  0.00000000000E+00  0.28550017187E+03  0.28550017187E+03  0.00000000000E+00 0.  1.
         -2   -1    0    0    0  501 -0.00000000000E+00 -0.00000000000E+00 -0.10031945616E+03  0.10031945616E+03  0.00000000000E+00 0. -1.
         23    2    1    2    0    0  0.37497144467E+00  0.13484616604E+02  0.51735544314E+02  0.10607432981E+03  0.91614526196E+02 0.  0.
         23    2    1    2    0    0 -0.16775219932E+02  0.30034394032E+02  0.56518664323E+02  0.11012337199E+03  0.88030249420E+02 0.  0.
        -13    1    3    3    0    0  0.36609334680E+02 -0.19067906505E+02  0.36326469741E+02  0.54985824064E+02  0.00000000000E+00 0. -1.
         13    1    3    3    0    0 -0.36234363235E+02  0.32552523109E+02  0.15409074573E+02  0.51088505743E+02  0.00000000000E+00 0.  1.
        -13    1    4    4    0    0 -0.47861209779E+02  0.11909832683E+02  0.55328186883E+02  0.74119820425E+02  0.00000000000E+00 0.  1.
         13    1    4    4    0    0  0.31085989846E+02  0.18124561348E+02  0.11904774403E+01  0.36003551565E+02  0.00000000000E+00 0. -1.
         21    1    1    2  502  503  0.15299441173E+02 -0.20873501095E+02  0.11902521969E+03  0.12180631703E+03  0.00000000000E+00 0. -1.
         21    1    1    2  503  501  0.11008073148E+01 -0.22645509541E+02 -0.42098712614E+02  0.47815609197E+02  0.00000000000E+00 0.  1.
<scales pt_clust_5="13000.00000" pt_clust_6="13000.00000" pt_clust_7="13000.00000" pt_clust_8="13000.00000" pt_clust_9="26.35700" pt_clust_10="22.67225"></scales>
<clustering>
<clus scale="   22.672">  2 10  1 -1</clus>
<clus scale="   26.357">  1  9  2 -1</clus>
<clus scale="   88.030">  7  8 -1 -1</clus>
<clus scale="   88.834">  1  7  2 -1</clus>
<clus scale="   91.615">  5  6 -1 -1</clus>
<clus scale="   26.357">  1  5  2 -1</clus>
</clustering>
</event>
<event>
10    2  0.1898324E-006  0.1102451E+03  0.7546771E-02  0.1260357E+00
          2   -1    0    0  502    0  0.00000000000E+00  0.00000000000E+00  0.27943655914E+03  0.27943655914E+03  0.00000000000E+00 0. -1.
         -2   -1    0    0    0  501 -0.00000000000E+00 -0.00000000000E+00 -0.78533386481E+02  0.78533386481E+02  0.00000000000E+00 0.  1.
         23    2    1    2    0    0  0.45790935837E+02  0.19452926649E+02  0.43692891349E+02  0.11302242116E+03  0.91595702794E+02 0.  0.
         23    2    1    2    0    0 -0.74402713930E+02  0.78185658079E+01  0.12732049904E+03  0.17344429468E+03  0.90969885521E+02 0.  0.
        -11    1    3    3    0    0  0.17530868044E+01 -0.30004106397E+02  0.35156668916E+02  0.46252687309E+02  0.00000000000E+00 0. -1.
         11    1    3    3    0    0  0.44037849033E+02  0.49457033046E+02  0.85362224330E+01  0.66769733851E+02  0.00000000000E+00 0.  1.
        -13    1    4    4    0    0 -0.32721804363E+02  0.17995521019E+02 -0.17947967797E+01  0.37386850001E+02  0.00000000000E+00 0.  1.
         13    1    4    4    0    0 -0.41680909567E+02 -0.10176955211E+02  0.12911529582E+03  0.13605744468E+03  0.00000000000E+00 0. -1.
         21    1    1    2  502  503  0.89703979187E+01 -0.21227352167E+02  0.41814057593E+02  0.47743941304E+02  0.00000000000E+00 0. -1.
         21    1    1    2  503  501  0.19641380174E+02 -0.60441402902E+01 -0.11924275319E+02  0.23759288476E+02  0.00000000000E+00 0. -1.
<scales pt_clust_5="13000.00000" pt_clust_6="13000.00000" pt_clust_7="13000.00000" pt_clust_8="13000.00000" pt_clust_9="23.70289" pt_clust_10="20.55032"></scales>
<clustering>
<clus scale="   20.550">  2 10  1 -1</clus>
<clus scale="   23.703">  1  9  2 -1</clus>
<clus scale="   90.970">  7  8 -1 -1</clus>
<clus scale="   91.596">  5  6 -1 -1</clus>
<clus scale="  109.726">  1  7  2 -1</clus>
<clus scale="   23.703">  1  5  2 -1</clus>
</clustering>
</event>
<event>
10    2  0.1898324E-006  0.1403722E+03  0.7546771E-02  0.1231263E+00
         -2   -1    0    0    0  501 -0.00000000000E+00  0.00000000000E+00  0.25420289037E+03  0.25420289037E+03  0.00000000000E+00 0.  1.
          2   -1    0    0  502    0  0.00000000000E+00 -0.00000000000E+00 -0.20562239675E+03  0.20562239675E+03  0.00000000000E+00 0. -1.
         23    2    1    2    0    0 -0.83485020146E+02  0.60434334180E+02 -0.61198211527E+02  0.15132023313E+03  0.92360892832E+02 0.  0.
         23    2    1    2    0    0  0.11371068227E+02  0.27602003581E+02 -0.47284279796E+02  0.10750323085E+03  0.91814866619E+02 0.  0.
        -11    1    4    4    0    0 -0.25167697812E+02  0.42949518057E+02 -0.46110602491E+02  0.67854710791E+02  0.00000000000E+00 0.  1.
         11    1    4    4    0    0  0.36538766039E+02 -0.15347514476E+02 -0.11736773057E+01  0.39648520056E+02  0.00000000000E+00 0. -1.
        -13    1    3    3    0    0 -0.69006136430E+02  0.23901766447E+02  0.62119199278E+01  0.73292081792E+02  0.00000000000E+00 0.  1.
         13    1    3    3    0    0 -0.14478883716E+02  0.36532567733E+02 -0.67410131455E+02  0.78028151341E+02  0.00000000000E+00 0. -1.
         21    1    1    2  502  503  0.76156750765E+02 -0.61406823393E+02  0.11414547997E+03  0.15033242912E+03  0.00000000000E+00 0.  1.
         21    1    1    2  503  501 -0.40427988456E+01 -0.26629514367E+02  0.42917504968E+02  0.50669394023E+02  0.00000000000E+00 0.  1.
<scales pt_clust_5="13000.00000" pt_clust_6="13000.00000" pt_clust_7="13000.00000" pt_clust_8="13000.00000" pt_clust_9="105.70632" pt_clust_10="26.93465"></scales>
<clustering>
<clus scale="   26.935">  1 10  2 -1</clus>
<clus scale="   91.815">  5  6 -1 -1</clus>
<clus scale="   92.361">  7  8 -1 -1</clus>
<clus scale="   95.445">  2  5  1 -1</clus>
<clus scale="  105.706">  1  9  2 -1</clus>
<clus scale="   95.445">  2  5  1 -1</clus>
</clustering>
</event>
<event>
10    2  0.1898324E-006  0.1365584E+03  0.7546771E-02  0.1237818E+00
          2   -1    0    0  502    0  0.00000000000E+00  0.00000000000E+00  0.24335290923E+03  0.24335290923E+03  0.00000000000E+00 0. -1.
         -2   -1    0    0    0  501 -0.00000000000E+00 -0.00000000000E+00 -0.25715533518E+03  0.25715533518E+03  0.00000000000E+00 0.  1.
         23    2    1    2    0    0  0.10411797583E+03 -0.33073871102E+02 -0.51823413091E+01  0.14121746831E+03  0.89336906449E+02 0.  0.
         23    2    1    2    0    0 -0.36998832595E+01 -0.29328784609E+02  0.46030622232E+02  0.10538748441E+03  0.90076839106E+02 0.  0.
        -13    1    3    3    0    0  0.86573729977E+02 -0.66889414958E+01  0.31841871949E+02  0.92485985261E+02  0.00000000000E+00 0. -1.
         13    1    3    3    0    0  0.17544245856E+02 -0.26384929606E+02 -0.37024213258E+02  0.48731483051E+02  0.00000000000E+00 0.  1.
        -13    1    4    4    0    0  0.34228427087E+02 -0.30406550616E+02  0.49328095628E+02  0.67300851105E+02  0.00000000000E+00 0.  1.
         13    1    4    4    0    0 -0.37928310347E+02  0.10777660064E+01 -0.32974733967E+01  0.38086633300E+02  0.00000000000E+00 0. -1.
         21    1    1    2  502  503 -0.44149700977E+00  0.42735350539E+02  0.76617014545E+02  0.87730678916E+02  0.00000000000E+00 0. -1.
         21    1    1    2  503  501 -0.99976595564E+02  0.19667305172E+02 -0.13126772142E+03  0.16617261278E+03  0.00000000000E+00 0.  1.
<scales pt_clust_5="13000.00000" pt_clust_6="13000.00000" pt_clust_7="13000.00000" pt_clust_8="13000.00000" pt_clust_9="42.73763" pt_clust_10="103.28166"></scales>
<clustering>
<clus scale="   42.738">  1  9  2 -1</clus>
<clus scale="   89.337">  5  6 -1 -1</clus>
<clus scale="   90.077">  7  8 -1 -1</clus>
<clus scale="   90.635">  1  7  2 -1</clus>
<clus scale="  103.282">  2 10  1 -1</clus>
<clus scale="   42.738">  1  5  2 -1</clus>
</clustering>
</event>
<event>
10    2  0.1898324E-006  0.1262590E+03  0.7546771E-02  0.1235318E+00
          2   -1    0    0  502    0  0.00000000000E+00  0.00000000000E+00  0.29523746107E+03  0.29523746107E+03  0.00000000000E+00 0. -1.
         -2   -1    0    0    0  501 -0.00000000000E+00 -0.00000000000E+00 -0.18493050228E+03  0.18493050228E+03  0.00000000000E+00 0.  1.
         23    2    1    2    0    0  0.21155149016E+02  0.81512766111E+01 -0.55544990864E+02  0.11369815017E+03  0.96581777271E+02 0.  0.
         23    2    1    2    0    0 -0.10948755086E+03 -0.86670330335E+02  0.12908539823E+03  0.21003187605E+03  0.89168822834E+02 0.  0.
        -13    1    4    4    0    0 -0.10520396373E+03 -0.45744376729E+02  0.12340691804E+03  0.16849240163E+03  0.00000000000E+00 0. -1.
         13    1    4    4    0    0 -0.42835871210E+01 -0.40925953607E+02  0.56784801926E+01  0.41539474413E+02  0.00000000000E+00 0.  1.
        -13    1    3    3    0    0 -0.57533182430E+01  0.45362850569E+02 -0.49487910342E+02  0.67379092845E+02  0.00000000000E+00 0.  1.
         13    1    3    3    0    0  0.26908467259E+02 -0.37211573958E+02 -0.60570805222E+01  0.46319057322E+02  0.00000000000E+00 0. -1.
         21    1    1    2  502  503  0.30722119016E+02  0.41993096684E+02  0.64440769553E+02  0.82824401879E+02  0.00000000000E+00 0.  1.
         21    1    1    2  503  501  0.57610282823E+02  0.36525957040E+02 -0.27674218131E+02  0.73613535262E+02  0.00000000000E+00 0.  1.
<scales pt_clust_5="13000.00000" pt_clust_6="13000.00000" pt_clust_7="13000.00000" pt_clust_8="13000.00000" pt_clust_9="52.03142" pt_clust_10="73.26017"></scales>
<clustering>
<clus scale="   52.031">  1  9  2 -1</clus>
<clus scale="   73.260">  2 10  1 -1</clus>
<clus scale="   89.169">  5  6 -1 -1</clus>
<clus scale="   96.582">  7  8 -1 -1</clus>
<clus scale="  120.683">  1  5  2 -1</clus>
<clus scale="   52.031">  1  5  2 -1</clus>
</clustering>
</event>
<event>
10    2  0.1898324E-006  0.1016360E+03  0.7546771E-02  0.1277121E+00
          3   -1    0    0  503    0  0.00000000000E+00  0.00000000000E+00  0.60559748037E+02  0.60559748037E+02  0.00000000000E+00 0. -1.
         -3   -1    0    0    0  501 -0.00000000000E+00 -0.00000000000E+00 -0.36222289663E+03  0.36222289663E+03  0.00000000000E+00 0.  1.
         23    2    1    2    0    0  0.14446508274E+02  0.17882906778E+02 -0.14642333310E+03  0.17371448143E+03  0.90600378738E+02 0.  0.
         23    2    1    2    0    0  0.11214976292E+02 -0.57021148732E+02 -0.30477476743E+02  0.11226937819E+03  0.91095277570E+02 0.  0.
        -13    1    3    3    0    0 -0.31646045448E+02 -0.16551076404E+02 -0.62005870897E+02  0.71555142011E+02  0.00000000000E+00 0.  1.
         13    1    3    3    0    0  0.46092553722E+02  0.34433983182E+02 -0.84417462202E+02  0.10215933942E+03  0.00000000000E+00 0. -1.
        -13    1    4    4    0    0  0.42659027581E+02 -0.12945080379E+01 -0.21067713071E+02  0.47595345563E+02  0.00000000000E+00 0. -1.
         13    1    4    4    0    0 -0.31444051288E+02 -0.55726640694E+02 -0.94097636723E+01  0.64674032632E+02  0.00000000000E+00 0.  1.
         21    1    1    2  502  501  0.11533510925E+01  0.25013440010E+02 -0.45420529962E+02  0.51865469649E+02  0.00000000000E+00 0. -1.
         21    1    1    2  503  502 -0.26814835659E+02  0.14124801944E+02 -0.79341808785E+02  0.84933315387E+02  0.00000000000E+00 0. -1.
<scales pt_clust_5="13000.00000" pt_clust_6="13000.00000" pt_clust_7="13000.00000" pt_clust_8="13000.00000" pt_clust_9="25.04002" pt_clust_10="33.62218"></scales>
<clustering>
<clus scale="   25.040">  2  9  1 -1</clus>
<clus scale="   33.622">  2 10  1 -1</clus>
<clus scale="   90.600">  5  6 -1 -1</clus>
<clus scale="   91.095">  7  8 -1 -1</clus>
<clus scale="  101.193">  2  5  1 -1</clus>
<clus scale="  101.636">  1  5  2 -1</clus>
</clustering>
</event>
<event>
10    2  0.1898324E-006  0.1011483E+03  0.7546771E-02  0.1279437E+00
         -3   -1    0    0    0  501 -0.00000000000E+00  0.00000000000E+00  0.27234512368E+03  0.27234512368E+03  0.00000000000E+00 0.  1.
          3   -1    0    0  502    0  0.00000000000E+00 -0.00000000000E+00 -0.20773336241E+03  0.20773336241E+03  0.00000000000E+00 0. -1.
         23    2    1    2    0    0  0.23644285868E+02 -0.40519310942E+01  0.13417691646E+03  0.16692378527E+03  0.96356809706E+02 0.  0.
         23    2    1    2    0    0 -0.37566873029E+02  0.19029985815E+02  0.78189018616E+02  0.12879705620E+03  0.93283164318E+02 0.  0.
        -11    1    4    4    0    0 -0.68425092616E+02  0.15067269928E+02  0.62790456932E+02  0.94083247203E+02  0.00000000000E+00 0.  1.
         11    1    4    4    0    0  0.30858219588E+02  0.39627158876E+01  0.15398561684E+02  0.34713808999E+02  0.00000000000E+00 0. -1.
        -13    1    3    3    0    0 -0.31271600704E+02  0.18208835556E+02  0.74507351694E+02  0.82830067967E+02  0.00000000000E+00 0.  1.
         13    1    3    3    0    0  0.54915886572E+02 -0.22260766650E+02  0.59669564770E+02  0.84093717302E+02  0.00000000000E+00 0. -1.
         21    1    1    2  502  503 -0.87043227367E+01 -0.18056852387E+02 -0.15804458139E+03  0.15931071797E+03  0.00000000000E+00 0.  1.
         21    1    1    2  503  501  0.22626909897E+02  0.30787976660E+01  0.10290407581E+02  0.25046926653E+02  0.00000000000E+00 0. -1.
<scales pt_clust_5="13000.00000" pt_clust_6="13000.00000" pt_clust_7="13000.00000" pt_clust_8="13000.00000" pt_clust_9="20.04533" pt_clust_10="21.32082"></scales>
<clustering>
<clus scale="   20.045">  2  9  1 -1</clus>
<clus scale="   21.321">  2 10  1 -1</clus>
<clus scale="   93.283">  5  6 -1 -1</clus>
<clus scale="   96.357">  7  8 -1 -1</clus>
<clus scale="   98.225">  2  5  1 -1</clus>
<clus scale="   20.045">  2  5  1 -1</clus>
</clustering>
</event>
<event>
10    2  0.1898324E-006  0.1749904E+03  0.7546771E-02  0.1189914E+00
         -1   -1    0    0    0  501 -0.00000000000E+00  0.00000000000E+00  0.22249484515E+03  0.22249484515E+03  0.00000000000E+00 0.  1.
          1   -1    0    0  502    0  0.00000000000E+00 -0.00000000000E+00 -0.10040991664E+04  0.10040991664E+04  0.00000000000E+00 0. -1.
         23    2    1    2    0    0 -0.37655242221E+02 -0.89295491644E+02 -0.24242803919E+03  0.27651115415E+03  0.91079427372E+02 0.  0.
         23    2    1    2    0    0  0.26108446300E+02 -0.71254043142E+02 -0.62053886706E+03  0.63176959541E+03  0.91134771229E+02 0.  0.
        -11    1    3    3    0    0  0.14012198095E+02 -0.78740730569E+02 -0.13720848034E+03  0.15881628198E+03  0.00000000000E+00 0. -1.
         11    1    3    3    0    0 -0.51667440316E+02 -0.10554761075E+02 -0.10521955885E+03  0.11769487217E+03  0.00000000000E+00 0.  1.
        -11    1    4    4    0    0  0.32241178982E+01  0.21947201506E+02 -0.96640102213E+02  0.99153335526E+02  0.00000000000E+00 0.  1.
         11    1    4    4    0    0  0.22884328402E+02 -0.93201244649E+02 -0.52389876484E+03  0.53261625989E+03  0.00000000000E+00 0. -1.
         21    1    1    2  502  503  0.39875045704E+02  0.18400623562E+03 -0.39157552888E+02  0.19230607886E+03  0.00000000000E+00 0.  1.
         21    1    1    2  503  501 -0.28328249784E+02 -0.23456700836E+02  0.12052013791E+03  0.12600718310E+03  0.00000000000E+00 0.  1.
<scales pt_clust_5="13000.00000" pt_clust_6="13000.00000" pt_clust_7="13000.00000" pt_clust_8="13000.00000" pt_clust_9="149.41941" pt_clust_10="36.77916"></scales>
<clustering>
<clus scale="   36.779">  1 10  2 -1</clus>
<clus scale="   91.079">  5  6 -1 -1</clus>
<clus scale="   91.135">  7  8 -1 -1</clus>
<clus scale="  119.055">  2  7  1 -1</clus>
<clus scale="  149.419">  1  9  2 -1</clus>
<clus scale="  119.055">  2  5  1 -1</clus>
</clustering>
</event>
<event>
10    2  0.1898324E-006  0.9381647E+02  0.7546771E-02  0.1295343E+00
         -3   -1    0    0    0  501 -0.00000000000E+00  0.00000000000E+00  0.26978062287E+03  0.26978062287E+03  0.00000000000E+00 0.  1.
          3   -1    0    0  502    0  0.00000000000E+00 -0.00000000000E+00 -0.10769783589E+03  0.10769783589E+03  0.00000000000E+00 0. -1.
         23    2    1    2    0    0 -0.13487765332E+02  0.16210819758E+02  0.13579469216E+03  0.16441731526E+03  0.90267073995E+02 0.  0.
         23    2    1    2    0    0 -0.34842019799E+02  0.24114342259E+02  0.29084708196E+02  0.10611584129E+03  0.92839558788E+02 0.  0.
        -13    1    3    3    0    0 -0.20967775724E+01 -0.29965446980E+02  0.12994877248E+02  0.32729059314E+02  0.00000000000E+00 0.  1.
         13    1    3    3    0    0 -0.11390987759E+02  0.46176266737E+02  0.12279981491E+03  0.13168825594E+03  0.00000000000E+00 0. -1.
        -13    1    4    4    0    0  0.26395970619E+02 -0.10859188966E+02 -0.28823956404E+01  0.28687583630E+02  0.00000000000E+00 0. -1.
         13    1    4    4    0    0 -0.61237990418E+02  0.34973531225E+02  0.31967103837E+02  0.77428257661E+02  0.00000000000E+00 0.  1.
         21    1    1    2  502  503  0.18921257381E+02 -0.21261989342E+02 -0.44280566035E+02  0.52638908613E+02  0.00000000000E+00 0. -1.
         21    1    1    2  503  501  0.29408527749E+02 -0.19063172674E+02  0.41483952657E+02  0.54306393591E+02  0.00000000000E+00 0.  1.
<scales pt_clust_5="13000.00000" pt_clust_6="13000.00000" pt_clust_7="13000.00000" pt_clust_8="13000.00000" pt_clust_9="28.46201" pt_clust_10="38.02545"></scales>
<clustering>
<clus scale="   28.462">  2  9  1 -1</clus>
<clus scale="   38.025">  1 10  2 -1</clus>
<clus scale="   90.267">  5  6 -1 -1</clus>
<clus scale="   91.272">  1  5  2 -1</clus>
<clus scale="   92.840">  7  8 -1 -1</clus>
<clus scale="   28.462">  2  5  1 -1</clus>
</clustering>
</event>
<event>
10    2  0.1898324E-006  0.1921255E+03  0.7546771E-02  0.1156930E+00
         -2   -1    0    0    0  501 -0.00000000000E+00  0.00000000000E+00  0.16982065016E+03  0.16982065016E+03  0.00000000000E+00 0.  1.
          2   -1    0    0  502    0  0.00000000000E+00 -0.00000000000E+00 -0.68179077690E+03  0.68179077690E+03  0.00000000000E+00 0. -1.
         23    2    1    2    0    0  0.19855607414E+02 -0.15615577260E+03  0.60300353808E+02  0.19190558902E+03  0.91721055197E+02 0.  0.
         23    2    1    2    0    0  0.10955925201E+02  0.19536829589E+03 -0.48911428749E+03  0.53413225926E+03  0.88179820971E+02 0.  0.
        -11    1    4    4    0    0  0.20998112567E+02  0.17663105448E+03 -0.47825222241E+03  0.51025938343E+03  0.00000000000E+00 0. -1.
         11    1    4    4    0    0 -0.10042187366E+02  0.18737241411E+02 -0.10862065073E+02  0.23872875831E+02  0.00000000000E+00 0.  1.
        -13    1    3    3    0    0  0.20349107014E+02 -0.58860494317E+00  0.25256295943E+02  0.32439375715E+02  0.00000000000E+00 0. -1.
         13    1    3    3    0    0 -0.49349960020E+00 -0.15556716766E+03  0.35044057865E+02  0.15946621331E+03  0.00000000000E+00 0.  1.
         21    1    1    2  502  503  0.67987588029E+01 -0.29829997455E+02 -0.81187191070E+02  0.86760658499E+02  0.00000000000E+00 0.  1.
         21    1    1    2  503  501 -0.37610291418E+02 -0.93825258282E+01 -0.19690019964E+01  0.38812920275E+02  0.00000000000E+00 0. -1.
<scales pt_clust_5="13000.00000" pt_clust_6="13000.00000" pt_clust_7="13000.00000" pt_clust_8="13000.00000" pt_clust_9="30.59496" pt_clust_10="38.79825"></scales>
<clustering>
<clus scale="   30.595">  2  9  1 -1</clus>
<clus scale="   38.798">  1 10  2 -1</clus>
<clus scale="   88.180">  5  6 -1 -1</clus>
<clus scale="   91.721">  7  8 -1 -1</clus>
<clus scale="  190.460">  2  5  1 -1</clus>
<clus scale="   30.595">  2  5  1 -1</clus>
</clustering>
</event>
<event>
10    2  0.1898324E-006  0.1353656E+03  0.7546771E-02  0.1219812E+00
         -3   -1    0    0    0  501 -0.00000000000E+00  0.00000000000E+00  0.13278092076E+03  0.13278092076E+03  0.00000000000E+00 0.  1.
          3   -1    0    0  502    0  0.00000000000E+00 -0.00000000000E+00 -0.33742326615E+03  0.33742326615E+03  0.00000000000E+00 0. -1.
         23    2    1    2    0    0  0.88543747688E+02 -0.12903572263E+02  0.11960906064E+02  0.12814740267E+03  0.90951614089E+02 0.  0.
         23    2    1    2    0    0 -0.86866108529E+02  0.19075243867E+02 -0.18930052510E+03  0.22825163782E+03  0.91403148878E+02 0.  0.
        -11    1    3    3    0    0  0.73227456923E+02 -0.37616826429E+02 -0.20226603743E+02  0.84772646396E+02  0.00000000000E+00 0.  1.
         11    1    3    3    0    0  0.15316290765E+02  0.24713254166E+02  0.32187509806E+02  0.43374756274E+02  0.00000000000E+00 0. -1.
        -13    1    4    4    0    0 -0.52458505178E+02  0.53557354070E+02 -0.86314880808E+02  0.11432647808E+03  0.00000000000E+00 0.  1.
         13    1    4    4    0    0 -0.34407603351E+02 -0.34482110203E+02 -0.10298564429E+03  0.11392515974E+03  0.00000000000E+00 0. -1.
         21    1    1    2  502  503 -0.18818999971E+02  0.14516121816E+02 -0.64030833245E+02  0.68299488714E+02  0.00000000000E+00 0. -1.
         21    1    1    2  503  501  0.17141360812E+02 -0.20687793421E+02  0.36728106889E+02  0.45505657700E+02  0.00000000000E+00 0. -1.
<scales pt_clust_5="13000.00000" pt_clust_6="13000.00000" pt_clust_7="13000.00000" pt_clust_8="13000.00000" pt_clust_9="23.76705" pt_clust_10="26.49157"></scales>
<clustering>
<clus scale="   23.767">  2  9  1 -1</clus>
<clus scale="   26.492">  1 10  2 -1</clus>
<clus scale="   90.952">  5  6 -1 -1</clus>
<clus scale="   91.403">  7  8 -1 -1</clus>
<clus scale="  135.061">  1  5  2 -1</clus>
<clus scale="   23.767">  2  5  1 -1</clus>
</clustering>
</event>
<event>
10    2  0.1898324E-006  0.1152316E+03  0.7546771E-02  0.1252426E+00
          1   -1    0    0  502    0  0.00000000000E+00  0.00000000000E+00  0.40758446707E+03  0.40758446707E+03  0.00000000000E+00 0. -1.
         -1   -1    0    0    0  501 -0.00000000000E+00 -0.00000000000E+00 -0.82861458633E+02  0.82861458633E+02  0.00000000000E+00 0.  1.
         23    2    1    2    0    0 -0.35204708781E+02 -0.19676215166E+02  0.18414206777E+02  0.10409345793E+03  0.94179828035E+02 0.  0.
         23    2    1    2    0    0  0.90870584655E+02 -0.29310005264E+01  0.26184254316E+03  0.29163883784E+03  0.90695316335E+02 0.  0.
        -11    1    3    3    0    0 -0.28743744607E+02  0.25827502452E+02 -0.20614730846E+02  0.43797601130E+02  0.00000000000E+00 0.  1.
         11    1    3    3    0    0 -0.64609641749E+01 -0.45503717618E+02  0.39028937623E+02  0.60295856799E+02  0.00000000000E+00 0. -1.
        -13    1    4    4    0    0  0.17642183533E+02  0.23293327165E+02  0.15028604481E+02  0.32858555703E+02  0.00000000000E+00 0.  1.
         13    1    4    4    0    0  0.73228401122E+02 -0.26224327691E+02  0.24681393868E+03  0.25878028213E+03  0.00000000000E+00 0. -1.
         21    1    1    2  502  503 -0.20675778127E+02  0.13040951177E+02  0.52185560117E+02  0.57627136780E+02  0.00000000000E+00 0.  1.
         21    1    1    2  503  501 -0.34990097747E+02  0.95662645149E+01 -0.77193016216E+01  0.37086493157E+02  0.00000000000E+00 0.  1.
<scales pt_clust_5="13000.00000" pt_clust_6="13000.00000" pt_clust_7="13000.00000" pt_clust_8="13000.00000" pt_clust_9="24.44492" pt_clust_10="37.24896"></scales>
<clustering>
<clus scale="   24.445">  1  9  2 -1</clus>
<clus scale="   37.249">  2 10  1 -1</clus>
<clus scale="   90.695">  7  8 -1 -1</clus>
<clus scale="   94.180">  5  6 -1 -1</clus>
<clus scale="  112.402">  1  7  2 -1</clus>
<clus scale="   24.445">  1  5  2 -1</clus>
</clustering>
</event>
<event>
10    2  0.1898324E-006  0.2884065E+03  0.7546771E-02  0.1091580E+00
         -1   -1    0    0    0  501 -0.00000000000E+00  0.00000000000E+00  0.20019358222E+03  0.20019358222E+03  0.00000000000E+00 0.  1.
          1   -1    0    0  502    0  0.00000000000E+00 -0.00000000000E+00 -0.64968555741E+03  0.64968555741E+03  0.00000000000E+00 0. -1.
         23    2    1    2    0    0 -0.18698460375E+03 -0.13486246729E+03 -0.90796064342E+02  0.26581567984E+03  0.96244081515E+02 0.  0.
         23    2    1    2    0    0  0.25028412027E+03  0.17592317116E+03 -0.28302233027E+03  0.42571772611E+03  0.86849524363E+02 0.  0.
        -13    1    4    4    0    0  0.19332071967E+03  0.14748815443E+03 -0.26477602844E+03  0.35948852775E+03  0.00000000000E+00 0. -1.
         13    1    4    4    0    0  0.56963400596E+02  0.28435016729E+02 -0.18246301829E+02  0.66229198352E+02  0.00000000000E+00 0.  1.
        -13    1    3    3    0    0 -0.46467696431E+02 -0.85650685878E+02 -0.14489704349E+02  0.98515168046E+02  0.00000000000E+00 0.  1.
         13    1    3    3    0    0 -0.14051690731E+03 -0.49211781415E+02 -0.76306359994E+02  0.16730051179E+03  0.00000000000E+00 0. -1.
         21    1    1    2  502  503 -0.23138552724E+02  0.33428505910E+02 -0.59695358249E+02  0.72224604021E+02  0.00000000000E+00 0.  1.
         21    1    1    2  503  501 -0.40160963796E+02 -0.74489209777E+02 -0.15978222327E+02  0.86121129666E+02  0.00000000000E+00 0. -1.
<scales pt_clust_5="13000.00000" pt_clust_6="13000.00000" pt_clust_7="13000.00000" pt_clust_8="13000.00000" pt_clust_9="40.65535" pt_clust_10="83.07339"></scales>
<clustering>
<clus scale="   40.655">  2  9  1 -1</clus>
<clus scale="   83.073">  1 10  2 -1</clus>
<clus scale="   86.850">  5  6 -1 -1</clus>
<clus scale="   96.244">  7  8 -1 -1</clus>
<clus scale="  285.409">  2  5  1 -1</clus>
<clus scale="   40.655">  2  5  1 -1</clus>
</clustering>
</event>
<event>
10    2  0.1898324E-006  0.1683857E+03  0.7546771E-02  0.1179773E+00
         -1   -1    0    0    0  501 -0.00000000000E+00  0.00000000000E+00  0.10766029182E+03  0.10766029182E+03  0.00000000000E+00 0.  1.
          1   -1    0    0  502    0  0.00000000000E+00 -0.00000000000E+00 -0.96928536368E+03  0.96928536368E+03  0.00000000000E+00 0. -1.
         23    2    1    2    0    0  0.12068061031E+03  0.56583534945E+02 -0.12407525480E+03  0.20387238111E+03  0.91672093862E+02 0.  0.
         23    2    1    2    0    0 -0.10799814082E+03 -0.61490982716E+02 -0.51740429473E+03  0.53968692989E+03  0.90055753348E+02 0.  0.
        -11    1    4    4    0    0 -0.77582044059E+02 -0.76008218700E+02 -0.46396172574E+03  0.47650467555E+03  0.00000000000E+00 0. -1.
         11    1    4    4    0    0 -0.30416096763E+02  0.14517235984E+02 -0.53442568991E+02  0.63182254339E+02  0.00000000000E+00 0.  1.
        -13    1    3    3    0    0  0.53107816336E+02  0.10666025807E+02  0.13510946217E+01  0.54185142974E+02  0.00000000000E+00 0.  1.
         13    1    3    3    0    0  0.67572793976E+02  0.45917509137E+02 -0.12542634942E+03  0.14968723813E+03  0.00000000000E+00 0. -1.
         21    1    1    2  502  503 -0.37742127841E+02  0.73845905214E+01 -0.27254770461E+03  0.27524761884E+03  0.00000000000E+00 0. -1.
         21    1    1    2  503  501  0.25059658352E+02 -0.24771427503E+01  0.52402182281E+02  0.58138725654E+02  0.00000000000E+00 0.  1.
<scales pt_clust_5="13000.00000" pt_clust_6="13000.00000" pt_clust_7="13000.00000" pt_clust_8="13000.00000" pt_clust_9="37.81186" pt_clust_10="25.18179"></scales>
<clustering>
<clus scale="   25.182">  1 10  2 -1</clus>
<clus scale="   37.812">  2  9  1 -1</clus>
<clus scale="   90.056">  5  6 -1 -1</clus>
<clus scale="   91.672">  7  8 -1 -1</clus>
<clus scale="  167.511">  2  5  1 -1</clus>
<clus scale="   37.812">  2  5  1 -1</clus>
</clustering>
</event>
<event>
10    2  0.1898324E-006  0.1156507E+03  0.7546771E-02  0.1252461E+00
         -1   -1    0    0    0  501 -0.00000000000E+00  0.00000000000E+00  0.93365475314E+02  0.93365475314E+02  0.00000000000E+00 0.  1.
          1   -1    0    0  502    0  0.00000000000E+00 -0.00000000000E+00 -0.72219480252E+03  0.72219480252E+03  0.00000000000E+00 0. -1.
         23    2    1    2    0    0 -0.99512600206E+02 -0.37940159468E+02 -0.51971616924E+02  0.15329557821E+03  0.97243364978E+02 0.  0.
         23    2    1    2    0    0 -0.15589905161E+02  0.58028215492E+02 -0.16475548277E+03  0.19794014259E+03  0.91791132516E+02 0.  0.
        -11    1    4    4    0    0 -0.14273108029E+02  0.80299972559E+02 -0.15131055774E+03  0.17189151255E+03  0.00000000000E+00 0.  1.
         11    1    4    4    0    0 -0.13167971330E+01 -0.22271757067E+02 -0.13444925039E+02  0.26048630038E+02  0.00000000000E+00 0. -1.
        -13    1    3    3    0    0 -0.43481973173E+02 -0.32984158798E+02  0.23288320471E+02  0.59337868120E+02  0.00000000000E+00 0.  1.
         13    1    3    3    0    0 -0.56030627033E+02 -0.49560006702E+01 -0.75259937395E+02  0.93957710088E+02  0.00000000000E+00 0. -1.
         21    1    1    2  502  503  0.63757255720E+02 -0.97093377008E+01 -0.40656575507E+03  0.41164908853E+03  0.00000000000E+00 0. -1.
         21    1    1    2  503  501  0.51345249647E+02 -0.10378718323E+02 -0.55364724431E+01  0.52675468507E+02  0.00000000000E+00 0.  1.
<scales pt_clust_5="13000.00000" pt_clust_6="13000.00000" pt_clust_7="13000.00000" pt_clust_8="13000.00000" pt_clust_9="66.39774" pt_clust_10="52.38370"></scales>
<clustering>
<clus scale="   52.384">  1 10  2 -1</clus>
<clus scale="   66.398">  2  9  1 -1</clus>
<clus scale="   91.791">  5  6 -1 -1</clus>
<clus scale="   97.243">  7  8 -1 -1</clus>
<clus scale="  111.105">  2  5  1 -1</clus>
<clus scale="   66.398">  2  5  1 -1</clus>
</clustering>
</event>
<event>
10    2  0.1898324E-006  0.1282174E+03  0.7546771E-02  0.1243860E+00
         -1   -1    0    0    0  501 -0.00000000000E+00  0.00000000000E+00  0.87905164795E+03  0.87905164795E+03  0.00000000000E+00 0.  1.
          1   -1    0    0  503    0  0.00000000000E+00 -0.00000000000E+00 -0.50111298854E+02  0.50111298854E+02  0.00000000000E+00 0. -1.
         23    2    1    2    0    0 -0.53099156967E+02  0.65574145587E+01  0.63074273914E+03  0.64502542836E+03  0.12393094893E+03 0.  0.
         23    2    1    2    0    0 -0.18122297260E+02  0.11713006739E+02  0.10399460231E+03  0.13994140714E+03  0.91121391228E+02 0.  0.
        -11    1    3    3    0    0 -0.89421436865E+02  0.10721508447E+02  0.53523375130E+03  0.54275806087E+03  0.00000000000E+00 0.  1.
         11    1    3    3    0    0  0.36322279898E+02 -0.41640938884E+01  0.95508987841E+02  0.10226736749E+03  0.00000000000E+00 0. -1.
        -13    1    4    4    0    0  0.15739853408E+02 -0.30931805327E+02  0.20650841496E+02  0.40385354036E+02  0.00000000000E+00 0. -1.
         13    1    4    4    0    0 -0.33862150668E+02  0.42644812067E+02  0.83343760813E+02  0.99556053108E+02  0.00000000000E+00 0.  1.
         21    1    1    2  502  501  0.34020217473E+02 -0.49421761993E+02  0.59838980754E+02  0.84738358333E+02  0.00000000000E+00 0. -1.
         21    1    1    2  503  502  0.37201236755E+02  0.31151340695E+02  0.34364026898E+02  0.59457752966E+02  0.00000000000E+00 0. -1.
<scales pt_clust_5="13000.00000" pt_clust_6="13000.00000" pt_clust_7="13000.00000" pt_clust_8="13000.00000" pt_clust_9="60.63741" pt_clust_10="48.52152"></scales>
<clustering>
<clus scale="   48.522">  2 10  1 -1</clus>
<clus scale="   60.637">  2  9  1 -1</clus>
<clus scale="   91.121">  7  8 -1 -1</clus>
<clus scale="   96.871">  2  7  1 -1</clus>
<clus scale="  123.931">  5  6 -1 -1</clus>
<clus scale="   48.522">  2  5  1 -1</clus>
</clustering>
</event>
<event>
10    2  0.1898324E-006  0.3177513E+03  0.7546771E-02  0.1076728E+00
          2   -1    0    0  502    0  0.00000000000E+00  0.00000000000E+00  0.16690984015E+04  0.16690984015E+04  0.00000000000E+00 0. -1.
         -2   -1    0    0    0  501 -0.00000000000E+00 -0.00000000000E+00 -0.15243919331E+03  0.15243919331E+03  0.00000000000E+00 0.  1.
         23    2    1    2    0    0 -0.29996895560E+03  0.10792130623E+03  0.31053725307E+03  0.45441078721E+03  0.91800845985E+02 0.  0.
         23    2    1    2    0    0  0.18459341464E+03 -0.17627502711E+03  0.97508816571E+03  0.10122187425E+04  0.92963637366E+02 0.  0.
        -11    1    4    4    0    0  0.34287698521E+02 -0.31503855393E+02  0.75192092643E+02  0.88442014736E+02  0.00000000000E+00 0.  1.
         11    1    4    4    0    0  0.15030571612E+03 -0.14477117172E+03  0.89989607306E+03  0.92377672777E+03  0.00000000000E+00 0. -1.
        -13    1    3    3    0    0 -0.10432897250E+03  0.23999432377E+02  0.16445322590E+03  0.19622785421E+03  0.00000000000E+00 0. -1.
         13    1    3    3    0    0 -0.19563998310E+03  0.83921873853E+02  0.14608402716E+03  0.25818293299E+03  0.00000000000E+00 0.  1.
         21    1    1    2  502  503  0.13370981287E+03  0.55369363998E+02  0.27204648214E+03  0.30814504535E+03  0.00000000000E+00 0. -1.
         21    1    1    2  503  501 -0.18334271901E+02  0.12984356886E+02 -0.41012692732E+02  0.46763019738E+02  0.00000000000E+00 0.  1.
<scales pt_clust_5="13000.00000" pt_clust_6="13000.00000" pt_clust_7="13000.00000" pt_clust_8="13000.00000" pt_clust_9="142.76513" pt_clust_10="22.46640"></scales>
<clustering>
<clus scale="   22.466">  2 10  1 -1</clus>
<clus scale="   91.801">  7  8 -1 -1</clus>
<clus scale="   92.964">  5  6 -1 -1</clus>
<clus scale="  142.765">  1  9  2 -1</clus>
<clus scale="  317.413">  2  7  1 -1</clus>
<clus scale="  142.765">  1  5  2 -1</clus>
</clustering>
</event>
<event>
10    2  0.1898324E-006  0.1723943E+03  0.7546771E-02  0.1182049E+00
         -1   -1    0    0    0  501 -0.00000000000E+00  0.00000000000E+00  0.17843681028E+03  0.17843681028E+03  0.00000000000E+00 0.  1.
          1   -1    0    0  502    0  0.00000000000E+00 -0.00000000000E+00 -0.78775853345E+03  0.78775853345E+03  0.00000000000E+00 0. -1.
         23    2    1    2    0    0 -0.10803070446E+03  0.40552300782E+02  0.91253507360E+02  0.17414663740E+03  0.93191880055E+02 0.  0.
         23    2    1    2    0    0 -0.63221506373E+02 -0.12713560337E+03 -0.38768994510E+03  0.42079401981E+03  0.81263110135E+02 0.  0.
        -11    1    3    3    0    0 -0.10876343824E+03  0.86978787360E+01  0.45102918963E+02  0.11806528656E+03  0.00000000000E+00 0. -1.
         11    1    3    3    0    0  0.73273377885E+00  0.31854422046E+02  0.46150588397E+02  0.56081350840E+02  0.00000000000E+00 0.  1.
        -11    1    4    4    0    0 -0.63379335844E+02 -0.58570096390E+02 -0.28115898201E+03  0.29410503153E+03  0.00000000000E+00 0. -1.
         11    1    4    4    0    0  0.15782947087E+00 -0.68565506975E+02 -0.10653096309E+03  0.12668898829E+03  0.00000000000E+00 0.  1.
         21    1    1    2  502  503  0.22781226293E+02  0.24732622386E+02 -0.92482390417E+02  0.98405687939E+02  0.00000000000E+00 0.  1.
         21    1    1    2  503  501  0.14847098454E+03  0.61850680197E+02 -0.22040289501E+03  0.27284899857E+03  0.00000000000E+00 0.  1.
<scales pt_clust_5="13000.00000" pt_clust_6="13000.00000" pt_clust_7="13000.00000" pt_clust_8="13000.00000" pt_clust_9="25.49413" pt_clust_10="161.94120"></scales>
<clustering>
<clus scale="   25.494">  9 10 -1 -1</clus>
<clus scale="   81.263">  7  8 -1 -1</clus>
<clus scale="   93.192">  5  6 -1 -1</clus>
<clus scale="  148.323">  1  5  2 -1</clus>
<clus scale="  161.941">  1  9  2 -1</clus>
<clus scale="  172.394">  2  5  1 -1</clus>
</clustering>
</event>
<event>
10    2  0.1898324E-006  0.1023177E+03  0.7546771E-02  0.1276758E+00
         -1   -1    0    0    0  501 -0.00000000000E+00  0.00000000000E+00  0.92487556608E+02  0.92487556608E+02  0.00000000000E+00 0.  1.
          1   -1    0    0  502    0  0.00000000000E+00 -0.00000000000E+00 -0.42217149427E+03  0.42217149427E+03  0.00000000000E+00 0. -1.
         23    2    1    2    0    0 -0.38077092040E+02  0.26251837476E+02  0.27522044261E+02  0.10656886568E+03  0.91980630046E+02 0.  0.
         23    2    1    2    0    0  0.48516099997E+02  0.13275544395E+02 -0.27770265000E+03  0.29599872214E+03  0.89254857880E+02 0.  0.
        -11    1    3    3    0    0 -0.57907535053E+02 -0.25364326290E+01  0.38900218495E+02  0.69806468936E+02  0.00000000000E+00 0.  1.
         11    1    3    3    0    0  0.19830443013E+02  0.28788270105E+02 -0.11378174234E+02  0.36762396747E+02  0.00000000000E+00 0. -1.
        -13    1    4    4    0    0  0.12246238877E+02 -0.28146891207E+02 -0.32553958291E+02  0.44743469374E+02  0.00000000000E+00 0.  1.
         13    1    4    4    0    0  0.36269861120E+02  0.41422435602E+02 -0.24514869171E+03  0.25125525277E+03  0.00000000000E+00 0. -1.
         21    1    1    2  502  503 -0.30015683401E+02  0.31099504272E+01 -0.43548446409E+02  0.52981885832E+02  0.00000000000E+00 0.  1.
         21    1    1    2  503  501  0.19576675444E+02 -0.42637332298E+02 -0.35954885516E+02  0.59109577222E+02  0.00000000000E+00 0. -1.
<scales pt_clust_5="13000.00000" pt_clust_6="13000.00000" pt_clust_7="13000.00000" pt_clust_8="13000.00000" pt_clust_9="30.17637" pt_clust_10="45.08651"></scales>
<clustering>
<clus scale="   30.176">  2  9  1 -1</clus>
<clus scale="   45.087">  2 10  1 -1</clus>
<clus scale="   89.255">  7  8 -1 -1</clus>
<clus scale="   91.981">  5  6 -1 -1</clus>
<clus scale="   99.874">  2  7  1 -1</clus>
<clus scale="   30.176">  2  5  1 -1</clus>
</clustering>
</event>
<event>
10    2  0.1898324E-006  0.3355228E+03  0.7546771E-02  0.1068755E+00
         -1   -1    0    0    0  501 -0.00000000000E+00  0.00000000000E+00  0.26521928060E+03  0.26521928060E+03  0.00000000000E+00 0.  1.
          1   -1    0    0  502    0  0.00000000000E+00 -0.00000000000E+00 -0.64822876950E+03  0.64822876950E+03  0.00000000000E+00 0. -1.
         23    2    1    2    0    0  0.24192328802E+03 -0.25052900964E+03 -0.38384092856E+02  0.36225082809E+03  0.91981856409E+02 0.  0.
         23    2    1    2    0    0 -0.16400287040E+03  0.22153628040E+03 -0.28200700714E+03  0.40519754664E+03  0.93176363394E+02 0.  0.
        -11    1    4    4    0    0 -0.68597494675E+02  0.44864100521E+02 -0.12865783756E+03  0.15254914932E+03  0.00000000000E+00 0.  1.
         11    1    4    4    0    0 -0.95405375723E+02  0.17667217988E+03 -0.15334916958E+03  0.25264839732E+03  0.00000000000E+00 0. -1.
        -13    1    3    3    0    0  0.14817499461E+03 -0.19157635622E+03 -0.59775022711E+02  0.24946018245E+03  0.00000000000E+00 0.  1.
         13    1    3    3    0    0  0.93748293410E+02 -0.58952653425E+02  0.21390929855E+02  0.11279064564E+03  0.00000000000E+00 0. -1.
         21    1    1    2  502  503 -0.67986602023E+02  0.46414180208E+02 -0.83355164913E+02  0.11715177206E+03  0.00000000000E+00 0. -1.
         21    1    1    2  503  501 -0.99338155967E+01 -0.17421450964E+02  0.20736776008E+02  0.28847903308E+02  0.00000000000E+00 0.  1.
<scales pt_clust_5="13000.00000" pt_clust_6="13000.00000" pt_clust_7="13000.00000" pt_clust_8="13000.00000" pt_clust_9="82.21747" pt_clust_10="20.05462"></scales>
<clustering>
<clus scale="   20.055">  1 10  2 -1</clus>
<clus scale="   82.217">  2  9  1 -1</clus>
<clus scale="   91.982">  7  8 -1 -1</clus>
<clus scale="   93.176">  5  6 -1 -1</clus>
<clus scale="  335.193">  1  7  2 -1</clus>
<clus scale="   82.217">  2  5  1 -1</clus>
</clustering>
</event>
<event>
10    2  0.1898324E-006  0.1226856E+03  0.7546771E-02  0.1238799E+00
         -1   -1    0    0    0  501 -0.00000000000E+00  0.00000000000E+00  0.23809598291E+03  0.23809598291E+03  0.00000000000E+00 0.  1.
          1   -1    0    0  502    0  0.00000000000E+00 -0.00000000000E+00 -0.18157963407E+03  0.18157963407E+03  0.00000000000E+00 0. -1.
         23    2    1    2    0    0  0.66331409635E+02 -0.69021690663E+01  0.62678011880E+02  0.12879753166E+03  0.90624362881E+02 0.  0.
         23    2    1    2    0    0 -0.82749319441E+02  0.35821008842E+02 -0.68095056281E+02  0.14498804741E+03  0.90851541874E+02 0.  0.
        -11    1    3    3    0    0  0.79240068967E+01 -0.28421795723E+02  0.59567032752E+02  0.66474203631E+02  0.00000000000E+00 0.  1.
         11    1    3    3    0    0  0.58407402738E+02  0.21519626657E+02  0.31109791280E+01  0.62323328034E+02  0.00000000000E+00 0. -1.
        -11    1    4    4    0    0 -0.37637359465E+02  0.51596361993E+02 -0.72944637856E+02  0.96951924119E+02  0.00000000000E+00 0. -1.
         11    1    4    4    0    0 -0.45111959975E+02 -0.15775353150E+02  0.48495815756E+01  0.48036123296E+02  0.00000000000E+00 0.  1.
         21    1    1    2  502  503 -0.10209389724E+02 -0.37805192188E+02 -0.30278574057E+02  0.49500063049E+02  0.00000000000E+00 0. -1.
         21    1    1    2  503  501  0.26627299530E+02  0.88863524123E+01  0.92211967293E+02  0.96389974849E+02  0.00000000000E+00 0.  1.
<scales pt_clust_5="13000.00000" pt_clust_6="13000.00000" pt_clust_7="13000.00000" pt_clust_8="13000.00000" pt_clust_9="38.15413" pt_clust_10="28.07099"></scales>
<clustering>
<clus scale="   28.071">  1 10  2 -1</clus>
<clus scale="   38.154">  2  9  1 -1</clus>
<clus scale="   90.624">  5  6 -1 -1</clus>
<clus scale="   90.852">  7  8 -1 -1</clus>
<clus scale="  122.517">  1  5  2 -1</clus>
<clus scale="   38.154">  2  5  1 -1</clus>
</clustering>
</event>
<event>
10    2  0.1898324E-006  0.1713503E+03  0.7546771E-02  0.1177301E+00
         -1   -1    0    0    0  501 -0.00000000000E+00  0.00000000000E+00  0.16765141379E+03  0.16765141379E+03  0.00000000000E+00 0.  1.
          1   -1    0    0  502    0  0.00000000000E+00 -0.00000000000E+00 -0.29837582351E+03  0.29837582351E+03  0.00000000000E+00 0. -1.
         23    2    1    2    0    0 -0.92566258911E+01  0.15478271460E+03 -0.27904517602E+02  0.18004271211E+03  0.87139785508E+02 0.  0.
         23    2    1    2    0    0 -0.27753896157E+02 -0.13399007311E+03 -0.33179536437E+02  0.16890701029E+03  0.93301007734E+02 0.  0.
        -11    1    4    4    0    0  0.31115671645E+02 -0.22462772908E+02 -0.16209452132E+02  0.41659423028E+02  0.00000000000E+00 0. -1.
         11    1    4    4    0    0 -0.58869567802E+02 -0.11152730020E+03 -0.16970084305E+02  0.12724758726E+03  0.00000000000E+00 0.  1.
        -13    1    3    3    0    0  0.30752384327E+02  0.18756528140E+02 -0.75073336355E+01  0.36795061462E+02  0.00000000000E+00 0.  1.
         13    1    3    3    0    0 -0.40009010218E+02  0.13602618646E+03 -0.20397183967E+02  0.14324765065E+03  0.00000000000E+00 0. -1.
         21    1    1    2  502  503  0.48688184274E+02  0.42026746608E+01 -0.74466441624E+02  0.89069931461E+02  0.00000000000E+00 0.  1.
         21    1    1    2  503  501 -0.11677662226E+02 -0.24995316156E+02  0.48260859398E+01  0.28007583443E+02  0.00000000000E+00 0.  1.
<scales pt_clust_5="13000.00000" pt_clust_6="13000.00000" pt_clust_7="13000.00000" pt_clust_8="13000.00000" pt_clust_9="48.21754" pt_clust_10="27.58865"></scales>
<clustering>
<clus scale="   27.589">  1 10  2 -1</clus>
<clus scale="   48.218">  2  9  1 -1</clus>
<clus scale="   87.140">  7  8 -1 -1</clus>
<clus scale="   93.301">  5  6 -1 -1</clus>
<clus scale="  168.075">  1  7  2 -1</clus>
<clus scale="   48.218">  2  5  1 -1</clus>
</clustering>
</event>
<event>
10    2  0.1898324E-006  0.9572607E+02  0.7546771E-02  0.1292714E+00
          2   -1    0    0  502    0  0.00000000000E+00  0.00000000000E+00  0.85618770163E+03  0.85618770163E+03  0.00000000000E+00 0.  1.
         -2   -1    0    0    0  501 -0.00000000000E+00 -0.00000000000E+00 -0.18679031590E+02  0.18679031590E+02  0.00000000000E+00 0. -1.
         23    2    1    2    0    0  0.20318467431E+02 -0.24890693751E+01  0.26066201675E+03  0.27505311094E+03  0.85384373739E+02 0.  0.
         23    2    1    2    0    0 -0.12719803350E+02  0.46961683425E+02  0.39932250091E+03  0.41247903649E+03  0.91177314632E+02 0.  0.
        -13    1    4    4    0    0 -0.81040191962E+01 -0.24164284288E+02  0.51897403129E+02  0.57818061311E+02  0.00000000000E+00 0.  1.
         13    1    4    4    0    0 -0.46157841537E+01  0.71125967713E+02  0.34742509778E+03  0.35466097518E+03  0.00000000000E+00 0. -1.
        -13    1    3    3    0    0  0.53973969907E+02 -0.33666881970E+01  0.15574408781E+03  0.16486583911E+03  0.00000000000E+00 0.  1.
         13    1    3    3    0    0 -0.33655502476E+02  0.87761882191E+00  0.10491792894E+03  0.11018727183E+03  0.00000000000E+00 0. -1.
         21    1    1    2  502  503 -0.19699166670E+02 -0.28345891096E+02  0.14513026525E+03  0.14917888792E+03  0.00000000000E+00 0.  1.
         21    1    1    2  503  501  0.12100502590E+02 -0.16126722954E+02  0.32393887121E+02  0.38155697857E+02  0.00000000000E+00 0.  1.
<scales pt_clust_5="13000.00000" pt_clust_6="13000.00000" pt_clust_7="13000.00000" pt_clust_8="13000.00000" pt_clust_9="35.41585" pt_clust_10="20.16168"></scales>
<clustering>
<clus scale="   20.162">  2 10  1 -1</clus>
<clus scale="   35.416">  1  9  2 -1</clus>
<clus scale="   85.384">  7  8 -1 -1</clus>
<clus scale="   90.226">  2  7  1 -1</clus>
<clus scale="   91.177">  5  6 -1 -1</clus>
<clus scale="   35.416">  1  5  2 -1</clus>
</clustering>
</event>
<event>
10    2  0.1898324E-006  0.1092245E+03  0.7546771E-02  0.1262983E+00
          1   -1    0    0  502    0  0.00000000000E+00  0.00000000000E+00  0.68343790529E+03  0.68343790529E+03  0.00000000000E+00 0. -1.
         -1   -1    0    0    0  501 -0.00000000000E+00 -0.00000000000E+00 -0.38916645007E+03  0.38916645007E+03  0.00000000000E+00 0.  1.
         23    2    1    2    0    0 -0.42697477468E+02 -0.29784302798E+02 -0.24207686201E+03  0.26466818929E+03  0.93476542669E+02 0.  0.
         23    2    1    2    0    0  0.86365011414E+02 -0.28069256657E+02  0.20340684593E+03  0.24065357182E+03  0.91065900824E+02 0.  0.
        -11    1    4    4    0    0  0.32160683039E+02 -0.74269732689E+01  0.43187218054E+01  0.33288448800E+02  0.00000000000E+00 0.  1.
         11    1    4    4    0    0  0.54204328375E+02 -0.20642283388E+02  0.19908812412E+03  0.20736512302E+03  0.00000000000E+00 0. -1.
        -13    1    3    3    0    0 -0.46897247222E+02  0.24180559655E+02 -0.11368148666E+03  0.12532969190E+03  0.00000000000E+00 0.  1.
         13    1    3    3    0    0  0.41997697539E+01 -0.53964862453E+02 -0.12839537535E+03  0.13933849740E+03  0.00000000000E+00 0. -1.
         21    1    1    2  502  503 -0.59090382292E+02  0.81422189975E+02  0.44268984632E+03  0.45397747338E+03  0.00000000000E+00 0.  1.
         21    1    1    2  503  501  0.15422848346E+02 -0.23568630520E+02 -0.10974837502E+03  0.11330512087E+03  0.00000000000E+00 0. -1.
<scales pt_clust_5="13000.00000" pt_clust_6="13000.00000" pt_clust_7="13000.00000" pt_clust_8="13000.00000" pt_clust_9="100.03252" pt_clust_10="28.16637"></scales>
<clustering>
<clus scale="   28.166">  2 10  1 -1</clus>
<clus scale="   91.066">  5  6 -1 -1</clus>
<clus scale="   93.477">  7  8 -1 -1</clus>
<clus scale="  100.033">  1  9  2 -1</clus>
<clus scale="  107.169">  1  5  2 -1</clus>
<clus scale="  100.033">  1  5  2 -1</clus>
</clustering>
</event>
<event>
10    2  0.2041711E-006  0.1763523E+03  0.7546771E-02  0.1171531E+00
          3   -1    0    0  502    0  0.00000000000E+00  0.00000000000E+00  0.35983428639E+03  0.35983428639E+03  0.00000000000E+00 0. -1.
         -3   -1    0    0    0  501 -0.00000000000E+00 -0.00000000000E+00 -0.17270375454E+03  0.17270375454E+03  0.00000000000E+00 0.  1.
         23    2    1    2    0    0 -0.97443331742E+02 -0.83157682396E+02 -0.65705147518E+02  0.17049628065E+03  0.91331332319E+02 0.  0.
         23    2    1    2    0    0  0.10135958586E+03  0.10260684791E+03  0.24833669933E+03  0.30100229602E+03  0.90162825430E+02 0.  0.
        -11    1    4    4    0    0  0.33258075785E+02  0.81770756606E+01  0.13216897011E+03  0.13653424783E+03  0.00000000000E+00 0.  1.
         11    1    4    4    0    0  0.68101510073E+02  0.94429772248E+02  0.11616772922E+03  0.16446804818E+03  0.00000000000E+00 0. -1.
        -13    1    3    3    0    0 -0.19157309047E+02  0.20040274824E+02 -0.96469965920E+01  0.29354380392E+02  0.00000000000E+00 0. -1.
         13    1    3    3    0    0 -0.78286022695E+02 -0.10319795722E+03 -0.56058150926E+02  0.14114190026E+03  0.00000000000E+00 0.  1.
         21    1    1    2  502  503  0.23855917770E+02  0.12713164794E+01  0.10104552276E+02  0.25938832567E+02  0.00000000000E+00 0. -1.
         21    1    1    2  503  501 -0.27772171886E+02 -0.20720481992E+02 -0.56055722379E+01  0.35100631694E+02  0.00000000000E+00 0. -1.
<scales pt_clust_5="13000.00000" pt_clust_6="13000.00000" pt_clust_7="13000.00000" pt_clust_8="13000.00000" pt_clust_9="23.88977" pt_clust_10="33.79721"></scales>
<clustering>
<clus scale="   23.890">  1  9  2 -1</clus>
<clus scale="   33.797">  2 10  1 -1</clus>
<clus scale="   90.163">  5  6 -1 -1</clus>
<clus scale="   91.331">  7  8 -1 -1</clus>
<clus scale="  175.750">  1  5  2 -1</clus>
<clus scale="   23.890">  1  5  2 -1</clus>
</clustering>
</event>
<event>
10    2  0.1898324E-006  0.1435135E+03  0.7546771E-02  0.1226137E+00
         -2   -1    0    0    0  501 -0.00000000000E+00  0.00000000000E+00  0.43492333118E+02  0.43492333118E+02  0.00000000000E+00 0.  1.
          2   -1    0    0  502    0  0.00000000000E+00 -0.00000000000E+00 -0.12655326640E+04  0.12655326640E+04  0.00000000000E+00 0. -1.
         23    2    1    2    0    0 -0.23032208205E+02 -0.39227860536E+00 -0.11113204049E+03  0.14654958632E+03  0.92713614583E+02 0.  0.
         23    2    1    2    0    0  0.15207746778E+03 -0.20293820863E+02 -0.42449641232E+03  0.46031857944E+03  0.90313870095E+02 0.  0.
        -11    1    4    4    0    0  0.14135684386E+03 -0.40666815196E+02 -0.30488756855E+03  0.33851436693E+03  0.00000000000E+00 0.  1.
         11    1    4    4    0    0  0.10720623915E+02  0.20372994333E+02 -0.11960884378E+03  0.12180421251E+03  0.00000000000E+00 0. -1.
        -11    1    3    3    0    0 -0.55352503070E+01  0.42514964605E+02 -0.79878361875E+02  0.90657122760E+02  0.00000000000E+00 0.  1.
         11    1    3    3    0    0 -0.17496957898E+02 -0.42907243210E+02 -0.31253678620E+02  0.55892463561E+02  0.00000000000E+00 0. -1.
         21    1    1    2  502  503 -0.10123633089E+03  0.12557833030E+02 -0.63501287717E+03  0.64315460663E+03  0.00000000000E+00 0. -1.
         21    1    1    2  503  501 -0.27808928683E+02  0.81282664381E+01 -0.51399000907E+02  0.59002224738E+02  0.00000000000E+00 0.  1.
<scales pt_clust_5="13000.00000" pt_clust_6="13000.00000" pt_clust_7="13000.00000" pt_clust_8="13000.00000" pt_clust_9="111.53262" pt_clust_10="28.97249"></scales>
<clustering>
<clus scale="   28.972">  1 10  2 -1</clus>
<clus scale="   90.314">  5  6 -1 -1</clus>
<clus scale="   92.714">  7  8 -1 -1</clus>
<clus scale="   99.309">  1  7  2 -1</clus>
<clus scale="  111.533">  2  9  1 -1</clus>
<clus scale="  111.533">  2  5  1 -1</clus>
</clustering>
</event>
<event>
10    2  0.1898324E-006  0.2247768E+03  0.7546771E-02  0.1130688E+00
          2   -1    0    0  502    0  0.00000000000E+00  0.00000000000E+00  0.37860189945E+03  0.37860189945E+03  0.00000000000E+00 0. -1.
         -2   -1    0    0    0  501 -0.00000000000E+00 -0.00000000000E+00 -0.21854511403E+03  0.21854511403E+03  0.00000000000E+00 0.  1.
         23    2    1    2    0    0  0.61727193842E+02  0.20094427703E+03 -0.50690306075E+02  0.23852014252E+03  0.10066529852E+03 0.  0.
         23    2    1    2    0    0 -0.17486331955E+02 -0.17853446447E+03  0.19469695397E+03  0.28185356380E+03  0.96717117071E+02 0.  0.
        -11    1    3    3    0    0 -0.56685939786E+01  0.14512929549E+03 -0.25520172739E+02  0.14746499443E+03  0.00000000000E+00 0.  1.
         11    1    3    3    0    0  0.67395787821E+02  0.55814981546E+02 -0.25170133336E+02  0.91055148087E+02  0.00000000000E+00 0. -1.
        -13    1    4    4    0    0 -0.75001403183E+00 -0.99150562102E+02  0.39501772288E+02  0.10673231235E+03  0.00000000000E+00 0.  1.
         13    1    4    4    0    0 -0.16736317923E+02 -0.79383902369E+02  0.15519518168E+03  0.17512125145E+03  0.00000000000E+00 0. -1.
         21    1    1    2  502  503 -0.16816879290E+02 -0.29955730907E+02  0.29526884845E+02  0.45298898131E+02  0.00000000000E+00 0. -1.
         21    1    1    2  503  501 -0.27423982598E+02  0.75459183457E+01 -0.13476747325E+02  0.31474409028E+02  0.00000000000E+00 0.  1.
<scales pt_clust_5="13000.00000" pt_clust_6="13000.00000" pt_clust_7="13000.00000" pt_clust_8="13000.00000" pt_clust_9="34.64646" pt_clust_10="28.44320"></scales>
<clustering>
<clus scale="   28.443">  2 10  1 -1</clus>
<clus scale="   34.646">  1  9  2 -1</clus>
<clus scale="   96.717">  7  8 -1 -1</clus>
<clus scale="  100.665">  5  6 -1 -1</clus>
<clus scale="  223.037">  1  7  2 -1</clus>
<clus scale="   34.646">  1  5  2 -1</clus>
</clustering>
</event>
<event>
10    2  0.1898324E-006  0.3396597E+03  0.7546771E-02  0.1066949E+00
         -1   -1    0    0    0  501 -0.00000000000E+00  0.00000000000E+00  0.14349524513E+03  0.14349524513E+03  0.00000000000E+00 0.  1.
          1   -1    0    0  502    0  0.00000000000E+00 -0.00000000000E+00 -0.17178402762E+04  0.17178402762E+04  0.00000000000E+00 0. -1.
         23    2    1    2    0    0  0.15164247296E+03 -0.25365598556E+03 -0.35701487074E+03  0.47248525179E+03  0.91901559361E+02 0.  0.
         23    2    1    2    0    0 -0.28795315196E+03  0.26552849363E+03 -0.74680278379E+03  0.84825118804E+03  0.91614854056E+02 0.  0.
        -13    1    4    4    0    0 -0.26613851320E+03  0.22535183333E+03 -0.70392944710E+03  0.78557610929E+03  0.00000000000E+00 0. -1.
         13    1    4    4    0    0 -0.21814638761E+02  0.40176660308E+02 -0.42873336688E+02  0.62675078752E+02  0.00000000000E+00 0.  1.
        -13    1    3    3    0    0  0.12601541687E+03 -0.12355740858E+03 -0.19181138251E+03  0.26064904559E+03  0.00000000000E+00 0.  1.
         13    1    3    3    0    0  0.25627056091E+02 -0.13009857698E+03 -0.16520348822E+03  0.21183620620E+03  0.00000000000E+00 0. -1.
         21    1    1    2  502  503  0.15535189711E+03  0.10239237082E+02 -0.48402518318E+03  0.50844806211E+03  0.00000000000E+00 0. -1.
         21    1    1    2  503  501 -0.19041218104E+02 -0.22111745156E+02  0.13497806675E+02  0.32151019358E+02  0.00000000000E+00 0. -1.
<scales pt_clust_5="13000.00000" pt_clust_6="13000.00000" pt_clust_7="13000.00000" pt_clust_8="13000.00000" pt_clust_9="153.63351" pt_clust_10="29.18043"></scales>
<clustering>
<clus scale="   29.180">  1 10  2 -1</clus>
<clus scale="   91.615">  5  6 -1 -1</clus>
<clus scale="   91.902">  7  8 -1 -1</clus>
<clus scale="  153.634">  2  9  1 -1</clus>
<clus scale="  339.582">  2  5  1 -1</clus>
<clus scale="  153.634">  2  5  1 -1</clus>
</clustering>
</event>
<event>
10    2  0.1898324E-006  0.1330905E+03  0.7546771E-02  0.1224029E+00
          1   -1    0    0  502    0  0.00000000000E+00  0.00000000000E+00  0.87030595643E+03  0.87030595643E+03  0.00000000000E+00 0. -1.
         -1   -1    0    0    0  501 -0.00000000000E+00 -0.00000000000E+00 -0.67133819122E+02  0.67133819122E+02  0.00000000000E+00 0.  1.
         23    2    1    2    0    0 -0.62252398132E+02 -0.17106764604E+02  0.57385058728E+02  0.13024714281E+03  0.97484720738E+02 0.  0.
         23    2    1    2    0    0  0.10219254616E+03 -0.17445139777E+02  0.58685920118E+03  0.60321455848E+03  0.93361834589E+02 0.  0.
        -13    1    4    4    0    0  0.10145083005E+02  0.18139109324E+02  0.23907374767E+02  0.31678266437E+02  0.00000000000E+00 0.  1.
         13    1    4    4    0    0  0.92047463155E+02 -0.35584249101E+02  0.56295182642E+03  0.57153629204E+03  0.00000000000E+00 0. -1.
        -13    1    3    3    0    0 -0.19913912839E+02  0.18951833853E+02 -0.20678690810E+02  0.34399770124E+02  0.00000000000E+00 0.  1.
         13    1    3    3    0    0 -0.42338485293E+02 -0.36058598457E+02  0.78063749538E+02  0.95847372690E+02  0.00000000000E+00 0. -1.
         21    1    1    2  502  503 -0.88291065791E+01  0.63502397428E+02  0.14616112804E+03  0.15960445780E+03  0.00000000000E+00 0. -1.
         21    1    1    2  503  501 -0.31111041449E+02 -0.28950493047E+02  0.12766749358E+02  0.44373616450E+02  0.00000000000E+00 0.  1.
<scales pt_clust_5="13000.00000" pt_clust_6="13000.00000" pt_clust_7="13000.00000" pt_clust_8="13000.00000" pt_clust_9="61.08957" pt_clust_10="42.49739"></scales>
<clustering>
<clus scale="   42.497">  2 10  1 -1</clus>
<clus scale="   61.090">  1  9  2 -1</clus>
<clus scale="   93.362">  5  6 -1 -1</clus>
<clus scale="   97.485">  7  8 -1 -1</clus>
<clus scale="  130.101">  1  5  2 -1</clus>
<clus scale="   61.090">  1  5  2 -1</clus>
</clustering>
</event>
<event>
10    2  0.1898324E-006  0.1299877E+03  0.7546771E-02  0.1238275E+00
         -1   -1    0    0    0  501 -0.00000000000E+00  0.00000000000E+00  0.82467160142E+02  0.82467160142E+02  0.00000000000E+00 0.  1.
          1   -1    0    0  502    0  0.00000000000E+00 -0.00000000000E+00 -0.39316248149E+03  0.39316248149E+03  0.00000000000E+00 0. -1.
         23    2    1    2    0    0  0.29389130348E+01  0.44659432036E+02 -0.92470483496E+02  0.15792325328E+03  0.11994107523E+03 0.  0.
         23    2    1    2    0    0  0.27874252581E+02 -0.47910884235E+02 -0.10866885772E+03  0.15234790560E+03  0.91260818077E+02 0.  0.
        -11    1    4    4    0    0  0.25739084608E+02 -0.18474907336E+02  0.74415206320E+01  0.32545336176E+02  0.00000000000E+00 0.  1.
         11    1    4    4    0    0  0.21351679726E+01 -0.29435976899E+02 -0.11611037835E+03  0.11980256942E+03  0.00000000000E+00 0. -1.
        -13    1    3    3    0    0 -0.58035394397E+02  0.21765433086E+02 -0.54481801769E+02  0.82523377320E+02  0.00000000000E+00 0.  1.
         13    1    3    3    0    0  0.60974307432E+02  0.22893998949E+02 -0.37988681727E+02  0.75399875955E+02  0.00000000000E+00 0. -1.
         21    1    1    2  502  503 -0.20504208516E+02 -0.25866003303E+02 -0.12607923705E+03  0.13032822683E+03  0.00000000000E+00 0. -1.
         21    1    1    2  503  501 -0.10308957099E+02  0.29117455502E+02  0.16523256919E+02  0.35030255931E+02  0.00000000000E+00 0.  1.
<scales pt_clust_5="13000.00000" pt_clust_6="13000.00000" pt_clust_7="13000.00000" pt_clust_8="13000.00000" pt_clust_9="32.40688" pt_clust_10="30.88852"></scales>
<clustering>
<clus scale="   30.889">  1 10  2 -1</clus>
<clus scale="   32.407">  2  9  1 -1</clus>
<clus scale="   91.261">  5  6 -1 -1</clus>
<clus scale="  104.113">  2  5  1 -1</clus>
<clus scale="  119.941">  7  8 -1 -1</clus>
<clus scale="   32.407">  2  5  1 -1</clus>
</clustering>
</event>
<event>
10    2  0.1898324E-006  0.9306334E+02  0.7546771E-02  0.1296447E+00
         -2   -1    0    0    0  501 -0.00000000000E+00  0.00000000000E+00  0.11055593162E+03  0.11055593162E+03  0.00000000000E+00 0.  1.
          2   -1    0    0  502    0  0.00000000000E+00 -0.00000000000E+00 -0.19585828524E+03  0.19585828524E+03  0.00000000000E+00 0. -1.
         23    2    1    2    0    0  0.37040568971E+01  0.38455588017E+01 -0.33739268846E+02  0.96538396739E+02  0.90292942264E+02 0.  0.
         23    2    1    2    0    0  0.27113170856E+02 -0.16667391780E+02 -0.71242797878E+02  0.12045614255E+03  0.91767205728E+02 0.  0.
        -13    1    4    4    0    0  0.54971588704E+02  0.11798560137E+02 -0.32753784206E+02  0.65068363786E+02  0.00000000000E+00 0.  1.
         13    1    4    4    0    0 -0.27858417848E+02 -0.28465951917E+02 -0.38489013672E+02  0.55387778769E+02  0.00000000000E+00 0. -1.
        -13    1    3    3    0    0  0.30577189978E+02 -0.29813567043E+01  0.19586793118E+02  0.36434811642E+02  0.00000000000E+00 0.  1.
         13    1    3    3    0    0 -0.26873133080E+02  0.68269155060E+01 -0.53326061965E+02  0.60103585097E+02  0.00000000000E+00 0. -1.
         21    1    1    2  502  503 -0.23272322354E+01  0.20218430940E+02 -0.27257167033E+02  0.34016968034E+02  0.00000000000E+00 0.  1.
         21    1    1    2  503  501 -0.28489995518E+02 -0.73965979617E+01  0.46936880137E+02  0.55402709528E+02  0.00000000000E+00 0.  1.
<scales pt_clust_5="13000.00000" pt_clust_6="13000.00000" pt_clust_7="13000.00000" pt_clust_8="13000.00000" pt_clust_9="20.35193" pt_clust_10="29.36658"></scales>
<clustering>
<clus scale="   20.352">  2  9  1 -1</clus>
<clus scale="   29.367">  1 10  2 -1</clus>
<clus scale="   90.293">  7  8 -1 -1</clus>
<clus scale="   91.610">  1  7  2 -1</clus>
<clus scale="   91.767">  5  6 -1 -1</clus>
<clus scale="   20.352">  2  5  1 -1</clus>
</clustering>
</event>
<event>
10    2  0.1898324E-006  0.1045641E+03  0.7546771E-02  0.1272764E+00
          2   -1    0    0  502    0  0.00000000000E+00  0.00000000000E+00  0.38990611034E+02  0.38990611034E+02  0.00000000000E+00 0.  1.
         -2   -1    0    0    0  501 -0.00000000000E+00 -0.00000000000E+00 -0.80336039646E+03  0.80336039646E+03  0.00000000000E+00 0. -1.
         23    2    1    2    0    0 -0.62720388891E+02 -0.83120003618E+01 -0.53176472513E+03  0.54327173931E+03  0.91474167437E+02 0.  0.
         23    2    1    2    0    0  0.32991206840E+02  0.22497388619E+01 -0.65769870882E+02  0.11428157689E+03  0.87413510668E+02 0.  0.
        -11    1    4    4    0    0  0.50250384941E+02 -0.26956293451E+02 -0.28047448314E+02  0.63548424845E+02  0.00000000000E+00 0. -1.
         11    1    4    4    0    0 -0.17259178101E+02  0.29206032313E+02 -0.37722422568E+02  0.50733152047E+02  0.00000000000E+00 0.  1.
        -13    1    3    3    0    0  0.23131356356E+02 -0.62008908834E+01 -0.84049694385E+02  0.87394861524E+02  0.00000000000E+00 0.  1.
         13    1    3    3    0    0 -0.85851745247E+02 -0.21111094784E+01 -0.44771503074E+03  0.45587687778E+03  0.00000000000E+00 0. -1.
         21    1    1    2  502  503  0.17700024854E+02 -0.31413892173E+02 -0.51006029781E+02  0.62463898176E+02  0.00000000000E+00 0. -1.
         21    1    1    2  503  501  0.12029157198E+02  0.37476153673E+02 -0.11582915964E+03  0.12233379312E+03  0.00000000000E+00 0.  1.
<scales pt_clust_5="13000.00000" pt_clust_6="13000.00000" pt_clust_7="13000.00000" pt_clust_8="13000.00000" pt_clust_9="36.05723" pt_clust_10="37.05407"></scales>
<clustering>
<clus scale="   36.057">  1  9  2 -1</clus>
<clus scale="   37.054">  2 10  1 -1</clus>
<clus scale="   87.414">  5  6 -1 -1</clus>
<clus scale="   91.474">  7  8 -1 -1</clus>
<clus scale="  101.031">  1  5  2 -1</clus>
<clus scale="   36.057">  1  5  2 -1</clus>
</clustering>
</event>
<event>
10    2  0.1898324E-006  0.1169995E+03  0.7546771E-02  0.1248358E+00
          1   -1    0    0  502    0  0.00000000000E+00  0.00000000000E+00  0.62402018145E+03  0.62402018145E+03  0.00000000000E+00 0. -1.
         -1   -1    0    0    0  501 -0.00000000000E+00 -0.00000000000E+00 -0.51643397733E+02  0.51643397733E+02  0.00000000000E+00 0.  1.
         23    2    1    2    0    0 -0.32426065680E+02 -0.65224615698E+02  0.11789951407E+03  0.16461302102E+03  0.88833839513E+02 0.  0.
         23    2    1    2    0    0  0.50928617287E+02  0.78841342096E+02  0.35169701971E+03  0.37485494930E+03  0.89530765995E+02 0.  0.
        -11    1    3    3    0    0 -0.31713019248E+02 -0.15350569484E+02  0.10821006170E+03  0.11380146320E+03  0.00000000000E+00 0. -1.
         11    1    3    3    0    0 -0.71304643239E+00 -0.49874046214E+02  0.96894523738E+01  0.50811557822E+02  0.00000000000E+00 0.  1.
        -13    1    4    4    0    0 -0.11240150003E+02  0.65054799348E+02  0.18188341381E+03  0.19349429994E+03  0.00000000000E+00 0. -1.
         13    1    4    4    0    0  0.62168767290E+02  0.13786542748E+02  0.16981360591E+03  0.18136064937E+03  0.00000000000E+00 0.  1.
         21    1    1    2  502  503 -0.36228447753E+01 -0.32945104513E+02  0.10648464460E+03  0.11152347041E+03  0.00000000000E+00 0. -1.
         21    1    1    2  503  501 -0.14879706831E+02  0.19328378115E+02 -0.37043946700E+01  0.24672138453E+02  0.00000000000E+00 0.  1.
<scales pt_clust_5="13000.00000" pt_clust_6="13000.00000" pt_clust_7="13000.00000" pt_clust_8="13000.00000" pt_clust_9="31.98099" pt_clust_10="24.39246"></scales>
<clustering>
<clus scale="   24.392">  2 10  1 -1</clus>
<clus scale="   31.981">  1  9  2 -1</clus>
<clus scale="   88.834">  5  6 -1 -1</clus>
<clus scale="   89.531">  7  8 -1 -1</clus>
<clus scale="  116.467">  2  5  1 -1</clus>
<clus scale="   31.981">  1  5  2 -1</clus>
</clustering>
</event>
<event>
10    2  0.1898324E-006  0.3280959E+03  0.7546771E-02  0.1086763E+00
         -2   -1    0    0    0  501 -0.00000000000E+00  0.00000000000E+00  0.18722871538E+03  0.18722871538E+03  0.00000000000E+00 0.  1.
          2   -1    0    0  502    0  0.00000000000E+00 -0.00000000000E+00 -0.24150583645E+04  0.24150583645E+04  0.00000000000E+00 0. -1.
         23    2    1    2    0    0 -0.19224189736E+02 -0.19424697795E+03 -0.14686095158E+03  0.26130929521E+03  0.92805984447E+02 0.  0.
         23    2    1    2    0    0  0.26335704391E+03  0.17482925874E+03 -0.97622440048E+03  0.10300448971E+04  0.89756379444E+02 0.  0.
        -11    1    3    3    0    0 -0.53652949294E+02 -0.14631487669E+03 -0.93448890694E+02  0.18171234763E+03  0.00000000000E+00 0.  1.
         11    1    3    3    0    0  0.34428759558E+02 -0.47932101263E+02 -0.53412060884E+02  0.79596947580E+02  0.00000000000E+00 0. -1.
        -11    1    4    4    0    0  0.23609089838E+03  0.18220082691E+03 -0.85313035059E+03  0.90375187342E+03  0.00000000000E+00 0. -1.
         11    1    4    4    0    0  0.27266145532E+02 -0.73715681649E+01 -0.12309404989E+03  0.12629302367E+03  0.00000000000E+00 0.  1.
         21    1    1    2  502  503 -0.34892525453E+03  0.23936409704E+02 -0.11460304571E+04  0.11982101625E+04  0.00000000000E+00 0.  1.
         21    1    1    2  503  501  0.10479240035E+03 -0.45186904937E+01  0.41286160031E+02  0.11272272506E+03  0.00000000000E+00 0.  1.
<scales pt_clust_5="13000.00000" pt_clust_6="13000.00000" pt_clust_7="13000.00000" pt_clust_8="13000.00000" pt_clust_9="315.58000" pt_clust_10="104.88978"></scales>
<clustering>
<clus scale="   89.756">  7  8 -1 -1</clus>
<clus scale="   92.806">  5  6 -1 -1</clus>
<clus scale="  104.890">  1 10  2 -1</clus>
<clus scale="  220.226">  1  5  2 -1</clus>
<clus scale="  315.580">  1  9  2 -1</clus>
<clus scale="  328.096">  2  5  1 -1</clus>
</clustering>
</event>
<event>
10    2  0.7076613E-006  0.4018546E+03  0.7546771E-02  0.1055479E+00
          1   -1    0    0  502    0  0.00000000000E+00  0.00000000000E+00  0.25801158343E+04  0.25801158343E+04  0.00000000000E+00 0. -1.
         -1   -1    0    0    0  501 -0.00000000000E+00 -0.00000000000E+00 -0.16838693450E+03  0.16838693450E+03  0.00000000000E+00 0.  1.
         23    2    1    2    0    0 -0.23387547245E+03 -0.12372318294E+03  0.18295834383E+03  0.33653882718E+03  0.98891172582E+02 0.  0.
         23    2    1    2    0    0  0.44204864306E+03 -0.80216823800E+02  0.19339824220E+04  0.19875787803E+04  0.91321726155E+02 0.  0.
        -13    1    4    4    0    0  0.32618501783E+03 -0.93648184388E+02  0.15240029637E+04  0.15613301002E+04  0.00000000000E+00 0. -1.
         13    1    4    4    0    0  0.11586362524E+03  0.13431360588E+02  0.40997945824E+03  0.42624868009E+03  0.00000000000E+00 0.  1.
        -13    1    3    3    0    0 -0.10966996659E+03 -0.10900883363E+03  0.12428490598E+03  0.19838640386E+03  0.00000000000E+00 0. -1.
         13    1    3    3    0    0 -0.12420550586E+03 -0.14714349304E+02  0.58673437854E+02  0.13815242332E+03  0.00000000000E+00 0.  1.
         21    1    1    2  502  503 -0.16935995001E+03  0.19671918167E+03  0.28105043071E+03  0.38258407404E+03  0.00000000000E+00 0.  1.
         21    1    1    2  503  501 -0.38813220599E+02  0.72208250703E+01  0.13737703289E+02  0.41801087302E+02  0.00000000000E+00 0. -1.
<scales pt_clust_5="13000.00000" pt_clust_6="13000.00000" pt_clust_7="13000.00000" pt_clust_8="13000.00000" pt_clust_9="401.77426" pt_clust_10="35.47617"></scales>
<clustering>
<clus scale="   35.476">  9 10 -1 -1</clus>
<clus scale="   91.322">  5  6 -1 -1</clus>
<clus scale="   98.891">  7  8 -1 -1</clus>
<clus scale="  282.462">  2  7  1 -1</clus>
<clus scale="  401.774">  2  9  1 -1</clus>
<clus scale="  401.855">  1  5  2 -1</clus>
</clustering>
</event>
<event>
10    2  0.1898324E-006  0.1015054E+03  0.7546771E-02  0.1278646E+00
          1   -1    0    0  502    0  0.00000000000E+00  0.00000000000E+00  0.22709695626E+03  0.22709695626E+03  0.00000000000E+00 0. -1.
         -1   -1    0    0    0  501 -0.00000000000E+00 -0.00000000000E+00 -0.33871701971E+03  0.33871701971E+03  0.00000000000E+00 0.  1.
         23    2    1    2    0    0  0.61927404258E+02 -0.12977094029E+02 -0.25623049832E+03  0.27845891848E+03  0.88780023902E+02 0.  0.
         23    2    1    2    0    0 -0.30004078675E+02  0.18543617904E+02  0.40053291692E+02  0.10629171771E+03  0.91921447860E+02 0.  0.
        -11    1    3    3    0    0  0.43729256676E+02 -0.39234137563E+02 -0.22920349994E+03  0.23661320720E+03  0.00000000000E+00 0.  1.
         11    1    3    3    0    0  0.18198147582E+02  0.26257043535E+02 -0.27026998382E+02  0.41845711275E+02  0.00000000000E+00 0. -1.
        -13    1    4    4    0    0 -0.24289950597E+02 -0.77869336100E+01  0.64842704006E+02  0.69679367807E+02  0.00000000000E+00 0. -1.
         13    1    4    4    0    0 -0.57141280774E+01  0.26330551514E+02 -0.24789412314E+02  0.36612349905E+02  0.00000000000E+00 0.  1.
         21    1    1    2  502  503 -0.12377192060E+02 -0.17604529342E+02  0.13845860299E+03  0.14012101584E+03  0.00000000000E+00 0.  1.
         21    1    1    2  503  501 -0.19546133524E+02  0.12038005467E+02 -0.33901459819E+02  0.40942323935E+02  0.00000000000E+00 0.  1.
<scales pt_clust_5="13000.00000" pt_clust_6="13000.00000" pt_clust_7="13000.00000" pt_clust_8="13000.00000" pt_clust_9="21.52009" pt_clust_10="23.02423"></scales>
<clustering>
<clus scale="   21.520">  1  9  2 -1</clus>
<clus scale="   23.024">  2 10  1 -1</clus>
<clus scale="   88.780">  5  6 -1 -1</clus>
<clus scale="   91.921">  7  8 -1 -1</clus>
<clus scale="   98.670">  2  5  1 -1</clus>
<clus scale="   21.520">  1  5  2 -1</clus>
</clustering>
</event>
<event>
10    2  0.1898324E-006  0.9485676E+02  0.7546771E-02  0.1293622E+00
         -1   -1    0    0    0  501 -0.00000000000E+00  0.00000000000E+00  0.33412075760E+02  0.33412075760E+02  0.00000000000E+00 0.  1.
          1   -1    0    0  503    0  0.00000000000E+00 -0.00000000000E+00 -0.54098804967E+03  0.54098804967E+03  0.00000000000E+00 0. -1.
         23    2    1    2    0    0 -0.12066709093E+01  0.13005803022E+01 -0.12653272501E+03  0.15720030788E+03  0.93264455898E+02 0.  0.
         23    2    1    2    0    0 -0.13683999337E+02 -0.20960176646E+02 -0.30027077045E+03  0.31432819912E+03  0.89515922247E+02 0.  0.
        -11    1    3    3    0    0  0.54133791369E+01 -0.29147033519E+02 -0.29981200006E+01  0.29796693779E+02  0.00000000000E+00 0.  1.
         11    1    3    3    0    0 -0.66200500462E+01  0.30447613821E+02 -0.12353460501E+03  0.12740361410E+03  0.00000000000E+00 0. -1.
        -13    1    4    4    0    0 -0.42231247573E+02  0.15969435699E+02 -0.12334358620E+03  0.13134740730E+03  0.00000000000E+00 0. -1.
         13    1    4    4    0    0  0.28547248237E+02 -0.36929612345E+02 -0.17692718425E+03  0.18298079182E+03  0.00000000000E+00 0.  1.
         21    1    1    2  502  501  0.24594748328E+02 -0.13328678125E+02 -0.46868313562E+02  0.54581994485E+02  0.00000000000E+00 0. -1.
         21    1    1    2  503  502 -0.97040780817E+01  0.32988274468E+02 -0.33904164883E+02  0.48289623940E+02  0.00000000000E+00 0. -1.
<scales pt_clust_5="13000.00000" pt_clust_6="13000.00000" pt_clust_7="13000.00000" pt_clust_8="13000.00000" pt_clust_9="27.97419" pt_clust_10="29.97607"></scales>
<clustering>
<clus scale="   27.974">  1  9  2 -1</clus>
<clus scale="   29.976">  1 10  2 -1</clus>
<clus scale="   89.516">  7  8 -1 -1</clus>
<clus scale="   91.174">  2  7  1 -1</clus>
<clus scale="   93.264">  5  6 -1 -1</clus>
<clus scale="   91.174">  2  5  1 -1</clus>
</clustering>
</event>
<event>
10    2  0.1898324E-006  0.2199662E+03  0.7546771E-02  0.1134072E+00
          1   -1    0    0  502    0  0.00000000000E+00  0.00000000000E+00  0.55410941010E+03  0.55410941010E+03  0.00000000000E+00 0. -1.
         -1   -1    0    0    0  501 -0.00000000000E+00 -0.00000000000E+00 -0.26709681370E+03  0.26709681370E+03  0.00000000000E+00 0.  1.
         23    2    1    2    0    0 -0.37315223494E+02 -0.19695863541E+03 -0.37772926918E+02  0.22273914487E+03  0.89447206112E+02 0.  0.
         23    2    1    2    0    0 -0.16099601320E+03  0.20863474617E+03  0.22888258509E+03  0.36086186030E+03  0.91574400816E+02 0.  0.
        -11    1    4    4    0    0 -0.82386623614E+02  0.37213133672E+02  0.74098225172E+02  0.11688849405E+03  0.00000000000E+00 0. -1.
         11    1    4    4    0    0 -0.78609389590E+02  0.17142161250E+03  0.15478435992E+03  0.24397336624E+03  0.00000000000E+00 0.  1.
        -13    1    3    3    0    0 -0.26424824245E+02 -0.15735862275E+02  0.14230911995E+02  0.33888162449E+02  0.00000000000E+00 0.  1.
         13    1    3    3    0    0 -0.10890399249E+02 -0.18122277314E+03 -0.52003838913E+02  0.18885098242E+03  0.00000000000E+00 0. -1.
         21    1    1    2  502  503  0.13584296962E+03  0.84635001693E+01  0.10424753275E+03  0.17144238483E+03  0.00000000000E+00 0.  1.
         21    1    1    2  503  501  0.62468267077E+02 -0.20139610922E+02 -0.83445945225E+01  0.66162833808E+02  0.00000000000E+00 0.  1.
<scales pt_clust_5="13000.00000" pt_clust_6="13000.00000" pt_clust_7="13000.00000" pt_clust_8="13000.00000" pt_clust_9="217.39104" pt_clust_10="61.31125"></scales>
<clustering>
<clus scale="   61.311">  9 10 -1 -1</clus>
<clus scale="   89.447">  7  8 -1 -1</clus>
<clus scale="   91.574">  5  6 -1 -1</clus>
<clus scale="  217.391">  1  9  2 -1</clus>
<clus scale="  219.089">  2  7  1 -1</clus>
<clus scale="  217.391">  1  5  2 -1</clus>
</clustering>
</event>
<event>
10    2  0.1898324E-006  0.3577941E+03  0.7546771E-02  0.1059494E+00
         -1   -1    0    0    0  501 -0.00000000000E+00  0.00000000000E+00  0.47158326799E+03  0.47158326799E+03  0.00000000000E+00 0.  1.
          1   -1    0    0  502    0  0.00000000000E+00 -0.00000000000E+00 -0.37075279210E+03  0.37075279210E+03  0.00000000000E+00 0. -1.
         23    2    1    2    0    0  0.32368638675E+02  0.34302331713E+03  0.10742576187E+03  0.37194012394E+03  0.89924616309E+02 0.  0.
         23    2    1    2    0    0 -0.53384340405E+02 -0.35066420555E+03 -0.52362712691E+01  0.36629044085E+03  0.91246894014E+02 0.  0.
        -11    1    4    4    0    0 -0.55546398365E+02 -0.21318546290E+03  0.34913804265E+02  0.22305249985E+03  0.00000000000E+00 0. -1.
         11    1    4    4    0    0  0.21620579604E+01 -0.13747874265E+03 -0.40150075534E+02  0.14323794100E+03  0.00000000000E+00 0.  1.
        -11    1    3    3    0    0 -0.23859977609E+02  0.14423064062E+03  0.69602551387E+02  0.16191445700E+03  0.00000000000E+00 0.  1.
         11    1    3    3    0    0  0.56228616284E+02  0.19879267651E+03  0.37823210479E+02  0.21002566694E+03  0.00000000000E+00 0. -1.
         21    1    1    2  502  503 -0.24760461286E+02  0.29694307805E+02 -0.27032611180E+02  0.47176206146E+02  0.00000000000E+00 0.  1.
         21    1    1    2  503  501  0.45776163016E+02 -0.22053419392E+02  0.25673596471E+02  0.56929289149E+02  0.00000000000E+00 0.  1.
<scales pt_clust_5="13000.00000" pt_clust_6="13000.00000" pt_clust_7="13000.00000" pt_clust_8="13000.00000" pt_clust_9="38.66306" pt_clust_10="49.16874"></scales>
<clustering>
<clus scale="   38.663">  2  9  1 -1</clus>
<clus scale="   49.169">  1 10  2 -1</clus>
<clus scale="   89.925">  7  8 -1 -1</clus>
<clus scale="   91.247">  5  6 -1 -1</clus>
<clus scale="  357.459">  1  7  2 -1</clus>
<clus scale="   38.663">  2  5  1 -1</clus>
</clustering>
</event>
<event>
10    2  0.1898324E-006  0.1987720E+03  0.7546771E-02  0.1151383E+00
         -1   -1    0    0    0  501 -0.00000000000E+00  0.00000000000E+00  0.35516054842E+03  0.35516054842E+03  0.00000000000E+00 0.  1.
          1   -1    0    0  502    0  0.00000000000E+00 -0.00000000000E+00 -0.28412668647E+03  0.28412668647E+03  0.00000000000E+00 0. -1.
         23    2    1    2    0    0 -0.13484211942E+03  0.82030437341E+02  0.17528884804E+03  0.25346431845E+03  0.92771712586E+02 0.  0.
         23    2    1    2    0    0  0.13013382982E+03 -0.15249523387E+03 -0.12051992125E+03  0.24941704993E+03  0.86569066977E+02 0.  0.
        -11    1    4    4    0    0  0.25905545564E+02  0.67485173641E+01 -0.64737327485E+01  0.27541768158E+02  0.00000000000E+00 0.  1.
         11    1    4    4    0    0  0.10422828426E+03 -0.15924375124E+03 -0.11404618850E+03  0.22187528177E+03  0.00000000000E+00 0. -1.
        -13    1    3    3    0    0 -0.90510076635E+02  0.93719066105E+01  0.55733653760E+02  0.10670588909E+03  0.00000000000E+00 0.  1.
         13    1    3    3    0    0 -0.44332042789E+02  0.72658530731E+02  0.11955519428E+03  0.14675842935E+03  0.00000000000E+00 0. -1.
         21    1    1    2  502  503  0.17347150251E+02  0.53847589892E+02 -0.44613179139E+02  0.72047361588E+02  0.00000000000E+00 0.  1.
         21    1    1    2  503  501 -0.12638860648E+02  0.16617206641E+02  0.60878114302E+02  0.64358504924E+02  0.00000000000E+00 0.  1.
<scales pt_clust_5="13000.00000" pt_clust_6="13000.00000" pt_clust_7="13000.00000" pt_clust_8="13000.00000" pt_clust_9="57.13840" pt_clust_10="20.87756"></scales>
<clustering>
<clus scale="   20.878">  1 10  2 -1</clus>
<clus scale="   57.138">  2  9  1 -1</clus>
<clus scale="   86.569">  5  6 -1 -1</clus>
<clus scale="   92.772">  7  8 -1 -1</clus>
<clus scale="  195.954">  2  5  1 -1</clus>
<clus scale="   57.138">  2  5  1 -1</clus>
</clustering>
</event>
<event>
10    2  0.1898324E-006  0.9573793E+02  0.7546771E-02  0.1291646E+00
         -2   -1    0    0    0  501 -0.00000000000E+00  0.00000000000E+00  0.30955139605E+03  0.30955139605E+03  0.00000000000E+00 0.  1.
          2   -1    0    0  502    0  0.00000000000E+00 -0.00000000000E+00 -0.84111612355E+02  0.84111612355E+02  0.00000000000E+00 0. -1.
         23    2    1    2    0    0 -0.54007196157E+02  0.43591927639E+01  0.98571840537E+02  0.14196027289E+03  0.86605609132E+02 0.  0.
         23    2    1    2    0    0  0.89005107679E+01  0.35370503571E+02  0.38939736385E+02  0.10510600215E+03  0.90557589433E+02 0.  0.
        -13    1    3    3    0    0 -0.26939552633E+02  0.34998777066E+02  0.11302885938E+02  0.45589572522E+02  0.00000000000E+00 0.  1.
         13    1    3    3    0    0 -0.27067643523E+02 -0.30639584302E+02  0.87268954600E+02  0.96370700366E+02  0.00000000000E+00 0. -1.
        -13    1    4    4    0    0 -0.36067844069E+02  0.32177584780E+02  0.35348593968E+02  0.59881628514E+02  0.00000000000E+00 0.  1.
         13    1    4    4    0    0  0.44968354836E+02  0.31929187918E+01  0.35911424163E+01  0.45224373638E+02  0.00000000000E+00 0. -1.
         21    1    1    2  502  503  0.11805596019E+02 -0.43535718642E+02 -0.72520406634E+01  0.45687230041E+02  0.00000000000E+00 0. -1.
         21    1    1    2  503  501  0.33301089369E+02  0.38060223066E+01  0.95180247434E+02  0.10090950332E+03  0.00000000000E+00 0.  1.
<scales pt_clust_5="13000.00000" pt_clust_6="13000.00000" pt_clust_7="13000.00000" pt_clust_8="13000.00000" pt_clust_9="45.66549" pt_clust_10="33.51788"></scales>
<clustering>
<clus scale="   33.518">  1 10  2 -1</clus>
<clus scale="   45.665">  2  9  1 -1</clus>
<clus scale="   86.606">  5  6 -1 -1</clus>
<clus scale="   90.558">  7  8 -1 -1</clus>
<clus scale="   92.009">  1  5  2 -1</clus>
<clus scale="   45.665">  2  5  1 -1</clus>
</clustering>
</event>
<event>
10    2  0.1898324E-006  0.1311251E+03  0.7546771E-02  0.1233109E+00
         -2   -1    0    0    0  501 -0.00000000000E+00  0.00000000000E+00  0.36521245298E+03  0.36521245298E+03  0.00000000000E+00 0.  1.
          2   -1    0    0  502    0  0.00000000000E+00 -0.00000000000E+00 -0.10783605956E+03  0.10783605956E+03  0.00000000000E+00 0. -1.
         23    2    1    2    0    0 -0.21528933150E+02 -0.44967513429E+02  0.18223873246E+03  0.20984855552E+03  0.91322989538E+02 0.  0.
         23    2    1    2    0    0  0.87629720748E+02  0.41872627035E+02  0.51369274747E+01  0.14927787087E+03  0.11324844305E+03 0.  0.
        -11    1    4    4    0    0 -0.26749893161E+01  0.31551222293E+02  0.40794325311E+02  0.51641186796E+02  0.00000000000E+00 0.  1.
         11    1    4    4    0    0  0.90304710064E+02  0.10321404742E+02 -0.35657397837E+02  0.97636684070E+02  0.00000000000E+00 0. -1.
        -13    1    3    3    0    0 -0.51593901427E+02 -0.22137160961E+01  0.95966520128E+02  0.10897891626E+03  0.00000000000E+00 0.  1.
         13    1    3    3    0    0  0.30064968277E+02 -0.42753797333E+02  0.86272212330E+02  0.10086963926E+03  0.00000000000E+00 0. -1.
         21    1    1    2  502  503 -0.46670322903E+02  0.14148028192E+02  0.98509059309E+01  0.49752649067E+02  0.00000000000E+00 0. -1.
         21    1    1    2  503  501 -0.19430464696E+02 -0.11053141799E+02  0.60149827551E+02  0.64169437089E+02  0.00000000000E+00 0.  1.
<scales pt_clust_5="13000.00000" pt_clust_6="13000.00000" pt_clust_7="13000.00000" pt_clust_8="13000.00000" pt_clust_9="50.30620" pt_clust_10="22.35430"></scales>
<clustering>
<clus scale="   22.354">  1 10  2 -1</clus>
<clus scale="   50.306">  2  9  1 -1</clus>
<clus scale="   91.323">  7  8 -1 -1</clus>
<clus scale="  112.732">  1  7  2 -1</clus>
<clus scale="  113.248">  5  6 -1 -1</clus>
<clus scale="   50.306">  2  5  1 -1</clus>
</clustering>
</event>
<event>
10    2  0.1898324E-006  0.2566480E+03  0.7546771E-02  0.1109245E+00
          1   -1    0    0  502    0  0.00000000000E+00  0.00000000000E+00  0.89419961273E+03  0.89419961273E+03  0.00000000000E+00 0. -1.
         -1   -1    0    0    0  501 -0.00000000000E+00 -0.00000000000E+00 -0.15570280601E+03  0.15570280601E+03  0.00000000000E+00 0.  1.
         23    2    1    2    0    0  0.35243059765E+02  0.20527006122E+03  0.16330010915E+03  0.27983602785E+03  0.90903275736E+02 0.  0.
         23    2    1    2    0    0 -0.14092191645E+03 -0.25001457114E+03  0.25437217102E+03  0.39382227986E+03  0.89579653981E+02 0.  0.
        -11    1    4    4    0    0 -0.75919393652E+02 -0.16995148567E+03  0.10938482148E+03  0.21589882118E+03  0.00000000000E+00 0.  1.
         11    1    4    4    0    0 -0.65002522800E+02 -0.80063085466E+02  0.14498734953E+03  0.17792345868E+03  0.00000000000E+00 0. -1.
        -11    1    3    3    0    0  0.26610747723E+02  0.77014043428E+01  0.32647339595E+02  0.42816962828E+02  0.00000000000E+00 0.  1.
         11    1    3    3    0    0  0.86323120417E+01  0.19756865687E+03  0.13065276955E+03  0.23701906502E+03  0.00000000000E+00 0. -1.
         21    1    1    2  502  503  0.62403528059E+02  0.37944192827E+02  0.32418416547E+03  0.33230909591E+03  0.00000000000E+00 0. -1.
         21    1    1    2  503  501  0.43275328629E+02  0.68003170944E+01 -0.33596389164E+01  0.43935015126E+02  0.00000000000E+00 0. -1.
<scales pt_clust_5="13000.00000" pt_clust_6="13000.00000" pt_clust_7="13000.00000" pt_clust_8="13000.00000" pt_clust_9="74.28195" pt_clust_10="43.80637"></scales>
<clustering>
<clus scale="   43.806">  2 10  1 -1</clus>
<clus scale="   74.282">  1  9  2 -1</clus>
<clus scale="   89.580">  5  6 -1 -1</clus>
<clus scale="   90.903">  7  8 -1 -1</clus>
<clus scale="  256.182">  1  5  2 -1</clus>
<clus scale="   74.282">  1  5  2 -1</clus>
</clustering>
</event>
<event>
10    2  0.1898324E-006  0.1134340E+03  0.7546771E-02  0.1254610E+00
         -1   -1    0    0    0  501 -0.00000000000E+00  0.00000000000E+00  0.96794636873E+02  0.96794636873E+02  0.00000000000E+00 0.  1.
          1   -1    0    0  502    0  0.00000000000E+00 -0.00000000000E+00 -0.33576138387E+03  0.33576138387E+03  0.00000000000E+00 0. -1.
         23    2    1    2    0    0 -0.55988321313E+02  0.43443416139E+02 -0.32033857834E+02  0.11842184844E+03  0.89305899084E+02 0.  0.
         23    2    1    2    0    0  0.72422755616E+02 -0.26147778037E+02 -0.11308744569E+03  0.16379981642E+03  0.90071347609E+02 0.  0.
        -11    1    3    3    0    0 -0.76581904948E+02  0.38361436133E+02 -0.41520360948E+02  0.95185756923E+02  0.00000000000E+00 0.  1.
         11    1    3    3    0    0  0.20593583635E+02  0.50819800060E+01  0.94865031140E+01  0.23236091519E+02  0.00000000000E+00 0. -1.
        -13    1    4    4    0    0  0.66844411051E+02  0.21580081660E+02 -0.62406348019E+02  0.93959712038E+02  0.00000000000E+00 0. -1.
         13    1    4    4    0    0  0.55783445655E+01 -0.47727859698E+02 -0.50681097666E+02  0.69840104382E+02  0.00000000000E+00 0.  1.
         21    1    1    2  502  503 -0.44416373348E+02 -0.35823720837E+02 -0.10101404014E+03  0.11601719486E+03  0.00000000000E+00 0.  1.
         21    1    1    2  503  501  0.27981939045E+02  0.18528082735E+02  0.71685966682E+01  0.34317161024E+02  0.00000000000E+00 0. -1.
<scales pt_clust_5="13000.00000" pt_clust_6="13000.00000" pt_clust_7="13000.00000" pt_clust_8="13000.00000" pt_clust_9="53.76788" pt_clust_10="33.56008"></scales>
<clustering>
<clus scale="   33.560">  1 10  2 -1</clus>
<clus scale="   53.768">  2  9  1 -1</clus>
<clus scale="   89.306">  5  6 -1 -1</clus>
<clus scale="   90.071">  7  8 -1 -1</clus>
<clus scale="  112.827">  1  5  2 -1</clus>
<clus scale="   53.768">  2  5  1 -1</clus>
</clustering>
</event>
<event>
10    2  0.1898324E-006  0.1342207E+03  0.7546771E-02  0.1223370E+00
          1   -1    0    0  502    0  0.00000000000E+00  0.00000000000E+00  0.70308468636E+03  0.70308468636E+03  0.00000000000E+00 0. -1.
         -1   -1    0    0    0  501 -0.00000000000E+00 -0.00000000000E+00 -0.79439451688E+02  0.79439451688E+02  0.00000000000E+00 0.  1.
         23    2    1    2    0    0 -0.13620133971E+02  0.84358730524E+02  0.11350142072E+03  0.17166487902E+03  0.96355356459E+02 0.  0.
         23    2    1    2    0    0  0.32728735306E+02 -0.76497625276E+02  0.31508110385E+03  0.34199525423E+03  0.10373810835E+03 0.  0.
        -13    1    3    3    0    0 -0.49744976467E+02  0.66255218929E+02  0.51160725206E+02  0.97374208713E+02  0.00000000000E+00 0.  1.
         13    1    3    3    0    0  0.36124842495E+02  0.18103511595E+02  0.62340695514E+02  0.74290670306E+02  0.00000000000E+00 0. -1.
        -13    1    4    4    0    0  0.22392957526E+02  0.58310263185E+01  0.89363223594E+01  0.24805307335E+02  0.00000000000E+00 0.  1.
         13    1    4    4    0    0  0.10335777781E+02 -0.82328651595E+02  0.30614478149E+03  0.31718994689E+03  0.00000000000E+00 0. -1.
         21    1    1    2  502  503  0.27128497570E+02  0.52926646407E+01  0.21503814266E+03  0.21680721962E+03  0.00000000000E+00 0. -1.
         21    1    1    2  503  501 -0.46237098904E+02 -0.13153769888E+02 -0.19975432561E+02  0.52056785181E+02  0.00000000000E+00 0.  1.
<scales pt_clust_5="13000.00000" pt_clust_6="13000.00000" pt_clust_7="13000.00000" pt_clust_8="13000.00000" pt_clust_9="27.63997" pt_clust_10="47.16494"></scales>
<clustering>
<clus scale="   27.640">  1  9  2 -1</clus>
<clus scale="   47.165">  2 10  1 -1</clus>
<clus scale="   96.355">  5  6 -1 -1</clus>
<clus scale="  103.738">  7  8 -1 -1</clus>
<clus scale="  128.600">  2  5  1 -1</clus>
<clus scale="   27.640">  1  5  2 -1</clus>
</clustering>
</event>
<event>
10    2  0.1898324E-006  0.1670379E+03  0.7546771E-02  0.1181255E+00
          1   -1    0    0  502    0  0.00000000000E+00  0.00000000000E+00  0.16726657865E+03  0.16726657865E+03  0.00000000000E+00 0. -1.
         -1   -1    0    0    0  501 -0.00000000000E+00 -0.00000000000E+00 -0.66698007586E+03  0.66698007586E+03  0.00000000000E+00 0.  1.
         23    2    1    2    0    0  0.48335377054E+02  0.12710837549E+03 -0.44761377157E+03  0.47631961427E+03  0.89607135021E+02 0.  0.
         23    2    1    2    0    0 -0.11107808106E+03 -0.11217323201E+03  0.79467967159E+02  0.19903974013E+03  0.91544995908E+02 0.  0.
        -11    1    4    4    0    0 -0.93127110981E+02 -0.34237329586E+02  0.25142293051E+02  0.10235716114E+03  0.00000000000E+00 0. -1.
         11    1    4    4    0    0 -0.17950970084E+02 -0.77935902425E+02  0.54325674108E+02  0.96682578995E+02  0.00000000000E+00 0.  1.
        -13    1    3    3    0    0 -0.23535420881E+01  0.67139061992E+02 -0.10372589219E+03  0.12358095936E+03  0.00000000000E+00 0. -1.
         13    1    3    3    0    0  0.50688919142E+02  0.59969313494E+02 -0.34388787938E+03  0.35273865491E+03  0.00000000000E+00 0.  1.
         21    1    1    2  502  503  0.42781342925E+02 -0.90791683798E+01 -0.25138678111E+02  0.50444303327E+02  0.00000000000E+00 0.  1.
         21    1    1    2  503  501  0.19961361085E+02 -0.58559750950E+01 -0.10642901470E+03  0.10844299678E+03  0.00000000000E+00 0. -1.
<scales pt_clust_5="13000.00000" pt_clust_6="13000.00000" pt_clust_7="13000.00000" pt_clust_8="13000.00000" pt_clust_9="45.13518" pt_clust_10="20.80261"></scales>
<clustering>
<clus scale="   20.803">  2 10  1 -1</clus>
<clus scale="   45.135">  1  9  2 -1</clus>
<clus scale="   89.607">  7  8 -1 -1</clus>
<clus scale="   91.545">  5  6 -1 -1</clus>
<clus scale="  165.984">  2  7  1 -1</clus>
<clus scale="   45.135">  1  5  2 -1</clus>
</clustering>
</event>
<event>
10    2  0.1898324E-006  0.1578746E+03  0.7546771E-02  0.1191239E+00
         -1   -1    0    0    0  501 -0.00000000000E+00  0.00000000000E+00  0.21611338735E+03  0.21611338735E+03  0.00000000000E+00 0.  1.
          1   -1    0    0  502    0  0.00000000000E+00 -0.00000000000E+00 -0.32718996876E+03  0.32718996876E+03  0.00000000000E+00 0. -1.
         23    2    1    2    0    0 -0.16412175235E+02 -0.15614146346E+03  0.11998644149E+01  0.18104810002E+03  0.90152419488E+02 0.  0.
         23    2    1    2    0    0  0.29400311560E+02  0.10172276189E+03 -0.12873014768E+02  0.14013617672E+03  0.90887484893E+02 0.  0.
        -11    1    4    4    0    0 -0.24940781352E+02  0.76255067238E+01 -0.17448058495E+02  0.31378745554E+02  0.00000000000E+00 0.  1.
         11    1    4    4    0    0  0.54341092912E+02  0.94097255170E+02  0.45750437274E+01  0.10875743117E+03  0.00000000000E+00 0. -1.
        -13    1    3    3    0    0  0.32856407364E+02 -0.94891817735E+02 -0.12711765358E+02  0.10122049968E+03  0.00000000000E+00 0.  1.
         13    1    3    3    0    0 -0.49268582598E+02 -0.61249645727E+02  0.13911629773E+02  0.79827600339E+02  0.00000000000E+00 0. -1.
         21    1    1    2  502  503 -0.28966663195E+02  0.27464490616E+02 -0.15404385617E+03  0.15913162930E+03  0.00000000000E+00 0.  1.
         21    1    1    2  503  501  0.15978526870E+02  0.26954210952E+02  0.54640425106E+02  0.62987450057E+02  0.00000000000E+00 0.  1.
<scales pt_clust_5="13000.00000" pt_clust_6="13000.00000" pt_clust_7="13000.00000" pt_clust_8="13000.00000" pt_clust_9="40.03244" pt_clust_10="31.33437"></scales>
<clustering>
<clus scale="   31.334">  1 10  2 -1</clus>
<clus scale="   40.032">  2  9  1 -1</clus>
<clus scale="   90.152">  7  8 -1 -1</clus>
<clus scale="   90.887">  5  6 -1 -1</clus>
<clus scale="  157.453">  1  7  2 -1</clus>
<clus scale="   40.032">  2  5  1 -1</clus>
</clustering>
</event>
<event>
10    2  0.1898324E-006  0.2310837E+03  0.7546771E-02  0.1125925E+00
          1   -1    0    0  502    0  0.00000000000E+00  0.00000000000E+00  0.47504653591E+03  0.47504653591E+03  0.00000000000E+00 0. -1.
         -1   -1    0    0    0  501 -0.00000000000E+00 -0.00000000000E+00 -0.27830201770E+03  0.27830201770E+03  0.00000000000E+00 0.  1.
         23    2    1    2    0    0 -0.37988501603E+02  0.21061013302E+03 -0.19614452737E+02  0.23386393352E+03  0.92238052143E+02 0.  0.
         23    2    1    2    0    0  0.13790260023E+03 -0.19503058660E+03  0.15674479137E+03  0.30001828734E+03  0.91585950102E+02 0.  0.
        -11    1    4    4    0    0  0.28166283804E+02 -0.13402941861E+02 -0.70173619729E+01  0.31972202973E+02  0.00000000000E+00 0.  1.
         11    1    4    4    0    0  0.10973631643E+03 -0.18162764474E+03  0.16376215334E+03  0.26804608437E+03  0.00000000000E+00 0. -1.
        -13    1    3    3    0    0 -0.26316300288E+02  0.10847157862E+03 -0.55914311976E+02  0.12484006293E+03  0.00000000000E+00 0.  1.
         13    1    3    3    0    0 -0.11672201315E+02  0.10213855440E+03  0.36299859239E+02  0.10902387059E+03  0.00000000000E+00 0. -1.
         21    1    1    2  502  503 -0.11633823969E+02  0.44197083298E+02  0.96399211715E+02  0.10668428212E+03  0.00000000000E+00 0.  1.
         21    1    1    2  503  501 -0.88280274659E+02 -0.59776629711E+02 -0.36785032142E+02  0.11278205063E+03  0.00000000000E+00 0.  1.
<scales pt_clust_5="13000.00000" pt_clust_6="13000.00000" pt_clust_7="13000.00000" pt_clust_8="13000.00000" pt_clust_9="45.70260" pt_clust_10="105.16503"></scales>
<clustering>
<clus scale="   45.703">  1  9  2 -1</clus>
<clus scale="   91.586">  5  6 -1 -1</clus>
<clus scale="   92.238">  7  8 -1 -1</clus>
<clus scale="  105.165">  2 10  1 -1</clus>
<clus scale="  230.824">  1  5  2 -1</clus>
<clus scale="   45.703">  1  5  2 -1</clus>
</clustering>
</event>
<event>
10    2  0.1898324E-006  0.1450559E+03  0.7546771E-02  0.1206910E+00
         -1   -1    0    0    0  501 -0.00000000000E+00  0.00000000000E+00  0.10542572576E+03  0.10542572576E+03  0.00000000000E+00 0.  1.
          1   -1    0    0  502    0  0.00000000000E+00 -0.00000000000E+00 -0.38546001707E+03  0.38546001707E+03  0.00000000000E+00 0. -1.
         23    2    1    2    0    0 -0.20893282548E+02  0.12142385169E+03 -0.47677307656E+02  0.16093195392E+03  0.91900419553E+02 0.  0.
         23    2    1    2    0    0 -0.13168099403E+02 -0.11278225237E+03 -0.11553784062E+03  0.18569893800E+03  0.90784732568E+02 0.  0.
        -11    1    4    4    0    0  0.64876041798E+01 -0.37416861000E+02  0.87995074065E+01  0.38981300975E+02  0.00000000000E+00 0.  1.
         11    1    4    4    0    0 -0.19655703583E+02 -0.75365391373E+02 -0.12433734803E+03  0.14671763703E+03  0.00000000000E+00 0. -1.
        -11    1    3    3    0    0 -0.54716151631E+02  0.60660452065E+02 -0.11361550316E+02  0.82478072963E+02  0.00000000000E+00 0. -1.
         11    1    3    3    0    0  0.33822869082E+02  0.60763399623E+02 -0.36315757340E+02  0.78453880961E+02  0.00000000000E+00 0.  1.
         21    1    1    2  502  503  0.31394302058E+02  0.17150391182E+02 -0.11239484912E+03  0.11795058384E+03  0.00000000000E+00 0. -1.
         21    1    1    2  503  501  0.26670798932E+01 -0.25791990497E+02 -0.44242939056E+01  0.26304267059E+02  0.00000000000E+00 0.  1.
<scales pt_clust_5="13000.00000" pt_clust_6="13000.00000" pt_clust_7="13000.00000" pt_clust_8="13000.00000" pt_clust_9="35.48567" pt_clust_10="25.92952"></scales>
<clustering>
<clus scale="   25.930">  1 10  2 -1</clus>
<clus scale="   35.486">  2  9  1 -1</clus>
<clus scale="   90.785">  5  6 -1 -1</clus>
<clus scale="   91.900">  7  8 -1 -1</clus>
<clus scale="  144.352">  2  5  1 -1</clus>
<clus scale="   35.486">  2  5  1 -1</clus>
</clustering>
</event>
<event>
10    2  0.1898324E-006  0.1006706E+03  0.7546771E-02  0.1279312E+00
         -1   -1    0    0    0  501 -0.00000000000E+00  0.00000000000E+00  0.80021369670E+02  0.80021369670E+02  0.00000000000E+00 0.  1.
          1   -1    0    0  502    0  0.00000000000E+00 -0.00000000000E+00 -0.29261683289E+03  0.29261683289E+03  0.00000000000E+00 0. -1.
         23    2    1    2    0    0  0.35357822873E+02 -0.83611660689E+01 -0.80050643184E+02  0.12724417686E+03  0.91993969013E+02 0.  0.
         23    2    1    2    0    0 -0.46759754627E+02  0.29584420560E+01 -0.11701526322E+03  0.15553037291E+03  0.91114752040E+02 0.  0.
        -13    1    3    3    0    0 -0.12439203568E+02  0.24209229712E+02  0.15061880766E+01  0.27259662345E+02  0.00000000000E+00 0.  1.
         13    1    3    3    0    0  0.47797026441E+02 -0.32570395781E+02 -0.81556831261E+02  0.99984514517E+02  0.00000000000E+00 0. -1.
        -13    1    4    4    0    0 -0.30972816022E+02  0.30404190140E+02 -0.10840672739E+02  0.44735336099E+02  0.00000000000E+00 0.  1.
         13    1    4    4    0    0 -0.15786938605E+02 -0.27445748084E+02 -0.10617459048E+03  0.11079503681E+03  0.00000000000E+00 0. -1.
         21    1    1    2  502  503  0.75333074691E+01 -0.21473821227E+02 -0.44608561226E+02  0.50077933805E+02  0.00000000000E+00 0. -1.
         21    1    1    2  503  501  0.38686242852E+01  0.26876545240E+02  0.29079004406E+02  0.39785718985E+02  0.00000000000E+00 0.  1.
<scales pt_clust_5="13000.00000" pt_clust_6="13000.00000" pt_clust_7="13000.00000" pt_clust_8="13000.00000" pt_clust_9="22.75688" pt_clust_10="26.71405"></scales>
<clustering>
<clus scale="   22.757">  2  9  1 -1</clus>
<clus scale="   26.714">  1 10  2 -1</clus>
<clus scale="   91.115">  7  8 -1 -1</clus>
<clus scale="   91.994">  5  6 -1 -1</clus>
<clus scale="   99.868">  2  7  1 -1</clus>
<clus scale="   22.757">  2  5  1 -1</clus>
</clustering>
</event>
<event>
10    2  0.1898324E-006  0.1860738E+03  0.7546771E-02  0.1162142E+00
          1   -1    0    0  502    0  0.00000000000E+00  0.00000000000E+00  0.27667119673E+03  0.27667119673E+03  0.00000000000E+00 0. -1.
         -1   -1    0    0    0  501 -0.00000000000E+00 -0.00000000000E+00 -0.37849023063E+03  0.37849023063E+03  0.00000000000E+00 0.  1.
         23    2    1    2    0    0  0.16114817345E+03  0.60487408907E+02 -0.20634630281E+03  0.28327529674E+03  0.89658444217E+02 0.  0.
         23    2    1    2    0    0 -0.13667770648E+03 -0.61612011366E+02 -0.18769566874E+02  0.17527552526E+03  0.88839055160E+02 0.  0.
        -11    1    3    3    0    0  0.75064351966E+02  0.64592485088E+02 -0.67462426150E+02  0.11982497656E+03  0.00000000000E+00 0. -1.
         11    1    3    3    0    0  0.86083821482E+02 -0.41050761808E+01 -0.13888387666E+03  0.16345032018E+03  0.00000000000E+00 0.  1.
        -13    1    4    4    0    0 -0.11167826826E+03 -0.64359175265E+02  0.18600123957E+02  0.13023096273E+03  0.00000000000E+00 0. -1.
         13    1    4    4    0    0 -0.24999438220E+02  0.27471638995E+01 -0.37369690831E+02  0.45044562531E+02  0.00000000000E+00 0.  1.
         21    1    1    2  502  503 -0.29078529644E+02  0.25681894879E+02  0.15297344092E+03  0.15781633071E+03  0.00000000000E+00 0. -1.
         21    1    1    2  503  501  0.46080626750E+01 -0.24557292420E+02 -0.29676605146E+02  0.38794274649E+02  0.00000000000E+00 0. -1.
<scales pt_clust_5="13000.00000" pt_clust_6="13000.00000" pt_clust_7="13000.00000" pt_clust_8="13000.00000" pt_clust_9="38.65740" pt_clust_10="24.98589"></scales>
<clustering>
<clus scale="   24.986">  2 10  1 -1</clus>
<clus scale="   38.657">  1  9  2 -1</clus>
<clus scale="   88.839">  7  8 -1 -1</clus>
<clus scale="   89.658">  5  6 -1 -1</clus>
<clus scale="  185.680">  1  7  2 -1</clus>
<clus scale="   38.657">  1  5  2 -1</clus>
</clustering>
</event>
<event>
10    2  0.1898324E-006  0.1512444E+03  0.7546771E-02  0.1200833E+00
          1   -1    0    0  502    0  0.00000000000E+00  0.00000000000E+00  0.21659861979E+03  0.21659861979E+03  0.00000000000E+00 0. -1.
         -1   -1    0    0    0  501 -0.00000000000E+00 -0.00000000000E+00 -0.25471424812E+03  0.25471424812E+03  0.00000000000E+00 0.  1.
         23    2    1    2    0    0  0.98696639033E+02  0.67886106365E+02 -0.11811654005E+03  0.19099899017E+03  0.90440849275E+02 0.  0.
         23    2    1    2    0    0 -0.86845398307E+02 -0.70977392412E+02  0.11362456043E+03  0.18832025891E+03  0.99870244523E+02 0.  0.
        -11    1    4    4    0    0 -0.88669845175E+01 -0.40038361287E+02 -0.67867381496E+01  0.41566255589E+02  0.00000000000E+00 0.  1.
         11    1    4    4    0    0 -0.77978413789E+02 -0.30939031125E+02  0.12041129858E+03  0.14675400332E+03  0.00000000000E+00 0. -1.
        -13    1    3    3    0    0  0.89636545079E+02  0.37768983367E+02 -0.37120433819E+02  0.10411115658E+03  0.00000000000E+00 0.  1.
         13    1    3    3    0    0  0.90600939537E+01  0.30117122997E+02 -0.80996106233E+02  0.86887833584E+02  0.00000000000E+00 0. -1.
         21    1    1    2  502  503 -0.25440031577E+02  0.34854833301E+02  0.88835394350E+00  0.43160674042E+02  0.00000000000E+00 0.  1.
         21    1    1    2  503  501  0.13588790851E+02 -0.31763547253E+02 -0.34512002650E+02  0.48832944799E+02  0.00000000000E+00 0.  1.
<scales pt_clust_5="13000.00000" pt_clust_6="13000.00000" pt_clust_7="13000.00000" pt_clust_8="13000.00000" pt_clust_9="39.81874" pt_clust_10="34.54820"></scales>
<clustering>
<clus scale="   34.548">  2 10  1 -1</clus>
<clus scale="   39.819">  2  9  1 -1</clus>
<clus scale="   90.441">  7  8 -1 -1</clus>
<clus scale="   99.870">  5  6 -1 -1</clus>
<clus scale="  145.191">  2  7  1 -1</clus>
<clus scale="  151.244">  1  5  2 -1</clus>
</clustering>
</event>
<event>
10    2  0.1898324E-006  0.1061915E+03  0.7546771E-02  0.1269987E+00
          1   -1    0    0  502    0  0.00000000000E+00  0.00000000000E+00  0.52409959032E+03  0.52409959032E+03  0.00000000000E+00 0. -1.
         -1   -1    0    0    0  501 -0.00000000000E+00 -0.00000000000E+00 -0.63298599430E+02  0.63298599430E+02  0.00000000000E+00 0.  1.
         23    2    1    2    0    0  0.23911302090E+02 -0.13788939246E+02  0.54841082550E+02  0.11043684968E+03  0.91797975029E+02 0.  0.
         23    2    1    2    0    0  0.19415266498E+02  0.72476673285E+02  0.32752426394E+03  0.34964129553E+03  0.96680253011E+02 0.  0.
        -13    1    4    4    0    0  0.41458766428E+02  0.86482306587E+02  0.26784346861E+03  0.28449629583E+03  0.00000000000E+00 0. -1.
         13    1    4    4    0    0 -0.22043499930E+02 -0.14005633302E+02  0.59680795333E+02  0.65144999692E+02  0.00000000000E+00 0.  1.
        -13    1    3    3    0    0  0.41892706967E+02  0.25972665447E+01  0.70110388039E+02  0.81714204405E+02  0.00000000000E+00 0. -1.
         13    1    3    3    0    0 -0.17981404877E+02 -0.16386205791E+02 -0.15269305490E+02  0.28722645277E+02  0.00000000000E+00 0.  1.
         21    1    1    2  502  503 -0.19327510362E+01 -0.25930210169E+02  0.68946343243E+02  0.73686563039E+02  0.00000000000E+00 0.  1.
         21    1    1    2  503  501 -0.41393817552E+02 -0.32757523870E+02  0.94893011556E+01  0.53633481502E+02  0.00000000000E+00 0.  1.
<scales pt_clust_5="13000.00000" pt_clust_6="13000.00000" pt_clust_7="13000.00000" pt_clust_8="13000.00000" pt_clust_9="26.00214" pt_clust_10="54.03109"></scales>
<clustering>
<clus scale="   26.002">  1  9  2 -1</clus>
<clus scale="   54.031">  2 10  1 -1</clus>
<clus scale="   91.798">  7  8 -1 -1</clus>
<clus scale="   96.680">  5  6 -1 -1</clus>
<clus scale="  101.767">  2  7  1 -1</clus>
<clus scale="   26.002">  1  5  2 -1</clus>
</clustering>
</event>
<event>
10    2  0.1898324E-006  0.1834235E+03  0.7546771E-02  0.1165407E+00
          1   -1    0    0  502    0  0.00000000000E+00  0.00000000000E+00  0.15549365436E+03  0.15549365436E+03  0.00000000000E+00 0. -1.
         -1   -1    0    0    0  501 -0.00000000000E+00 -0.00000000000E+00 -0.39451704040E+03  0.39451704040E+03  0.00000000000E+00 0.  1.
         23    2    1    2    0    0 -0.17506427523E+03  0.35203538803E+02 -0.13046153022E+03  0.24209301770E+03  0.98498876873E+02 0.  0.
         23    2    1    2    0    0  0.13736373814E+03  0.23029792018E+02 -0.10409717223E+03  0.19647800555E+03  0.91477961951E+02 0.  0.
        -11    1    3    3    0    0 -0.14534604921E+03  0.48182736546E+02 -0.59876292593E+02  0.16441478199E+03  0.00000000000E+00 0. -1.
         11    1    3    3    0    0 -0.29718226018E+02 -0.12979197743E+02 -0.70585237631E+02  0.77678235711E+02  0.00000000000E+00 0.  1.
        -13    1    4    4    0    0  0.11901399025E+03 -0.17152983902E+02 -0.61280932824E+02  0.13495891026E+03  0.00000000000E+00 0.  1.
         13    1    4    4    0    0  0.18349747893E+02  0.40182775920E+02 -0.42816239403E+02  0.61519095287E+02  0.00000000000E+00 0. -1.
         21    1    1    2  502  503  0.39339260796E+01 -0.47244916412E+02  0.34566978307E+02  0.58672258270E+02  0.00000000000E+00 0.  1.
         21    1    1    2  503  501  0.33766611009E+02 -0.10988414409E+02 -0.39031661900E+02  0.52767413248E+02  0.00000000000E+00 0.  1.
<scales pt_clust_5="13000.00000" pt_clust_6="13000.00000" pt_clust_7="13000.00000" pt_clust_8="13000.00000" pt_clust_9="47.89725" pt_clust_10="35.50957"></scales>
<clustering>
<clus scale="   35.510">  2 10  1 -1</clus>
<clus scale="   47.897">  1  9  2 -1</clus>
<clus scale="   91.478">  7  8 -1 -1</clus>
<clus scale="   98.499">  5  6 -1 -1</clus>
<clus scale="  179.751">  1  7  2 -1</clus>
<clus scale="   47.897">  1  5  2 -1</clus>
</clustering>
</event>
<event>
10    2  0.1898324E-006  0.1044670E+03  0.7546771E-02  0.1274884E+00
         -1   -1    0    0    0  501 -0.00000000000E+00  0.00000000000E+00  0.14319881027E+03  0.14319881027E+03  0.00000000000E+00 0.  1.
          1   -1    0    0  502    0  0.00000000000E+00 -0.00000000000E+00 -0.38942794493E+03  0.38942794493E+03  0.00000000000E+00 0. -1.
         23    2    1    2    0    0 -0.31047155488E+02  0.18571493880E+02 -0.67400945516E+02  0.12457106690E+03  0.98317022958E+02 0.  0.
         23    2    1    2    0    0  0.42516554372E+01 -0.39024364655E+02 -0.20862081952E+03  0.23081849389E+03  0.90628655391E+02 0.  0.
        -11    1    3    3    0    0 -0.53708509638E+02  0.27188262783E+02 -0.77648367199E+02  0.98250061422E+02  0.00000000000E+00 0. -1.
         11    1    3    3    0    0  0.22661354150E+02 -0.86167689029E+01  0.10247421684E+02  0.26321005478E+02  0.00000000000E+00 0.  1.
        -11    1    4    4    0    0 -0.40527046344E+02 -0.66359977032E+01 -0.64485933844E+02  0.76452034732E+02  0.00000000000E+00 0.  1.
         11    1    4    4    0    0  0.44778701781E+02 -0.32388366952E+02 -0.14413488567E+03  0.15436645916E+03  0.00000000000E+00 0. -1.
         21    1    1    2  502  503  0.15599483121E+02  0.51481460569E+02 -0.60589695097E+02  0.81023427525E+02  0.00000000000E+00 0. -1.
         21    1    1    2  503  501  0.11196016931E+02 -0.31028589793E+02  0.90382325465E+02  0.96213766875E+02  0.00000000000E+00 0.  1.
<scales pt_clust_5="13000.00000" pt_clust_6="13000.00000" pt_clust_7="13000.00000" pt_clust_8="13000.00000" pt_clust_9="48.54588" pt_clust_10="32.98673"></scales>
<clustering>
<clus scale="   32.987">  1 10  2 -1</clus>
<clus scale="   48.546">  1  9  2 -1</clus>
<clus scale="   90.629">  7  8 -1 -1</clus>
<clus scale="   97.266">  2  7  1 -1</clus>
<clus scale="   98.317">  5  6 -1 -1</clus>
<clus scale="   97.266">  2  5  1 -1</clus>
</clustering>
</event>
<event>
10    2  0.1898324E-006  0.9400189E+02  0.7546771E-02  0.1293455E+00
         -2   -1    0    0    0  501 -0.00000000000E+00  0.00000000000E+00  0.17857355663E+03  0.17857355663E+03  0.00000000000E+00 0.  1.
          2   -1    0    0  502    0  0.00000000000E+00 -0.00000000000E+00 -0.18107302751E+03  0.18107302751E+03  0.00000000000E+00 0. -1.
         23    2    1    2    0    0 -0.23144621362E+02 -0.29885672897E+02  0.58976799022E+02  0.11510431168E+03  0.91334072519E+02 0.  0.
         23    2    1    2    0    0  0.89771982202E+01  0.67942464138E+01 -0.31780218635E+02  0.97383603943E+02  0.91360999054E+02 0.  0.
        -11    1    3    3    0    0  0.30084790709E+02  0.96738041569E+01  0.11872211843E+02  0.33758355009E+02  0.00000000000E+00 0. -1.
         11    1    3    3    0    0 -0.53229412070E+02 -0.39559477054E+02  0.47104587179E+02  0.81345956676E+02  0.00000000000E+00 0.  1.
        -13    1    4    4    0    0  0.44994285885E+02 -0.16605904536E+02 -0.24372658844E+02  0.53798404501E+02  0.00000000000E+00 0.  1.
         13    1    4    4    0    0 -0.36017087665E+02  0.23400150949E+02 -0.74075597907E+01  0.43585199441E+02  0.00000000000E+00 0. -1.
         21    1    1    2  502  503 -0.14958952144E+02  0.18892940398E+02 -0.82914847452E+02  0.86345731649E+02  0.00000000000E+00 0. -1.
         21    1    1    2  503  501  0.29126375286E+02  0.41984860855E+01  0.53218796179E+02  0.60812936860E+02  0.00000000000E+00 0. -1.
<scales pt_clust_5="13000.00000" pt_clust_6="13000.00000" pt_clust_7="13000.00000" pt_clust_8="13000.00000" pt_clust_9="24.09800" pt_clust_10="28.96224"></scales>
<clustering>
<clus scale="   24.098">  2  9  1 -1</clus>
<clus scale="   28.962">  1 10  2 -1</clus>
<clus scale="   91.334">  5  6 -1 -1</clus>
<clus scale="   91.361">  7  8 -1 -1</clus>
<clus scale="   93.976">  1  5  2 -1</clus>
<clus scale="   24.098">  2  5  1 -1</clus>
</clustering>
</event>
<event>
10    2  0.1898324E-006  0.2770683E+03  0.7546771E-02  0.1097328E+00
          1   -1    0    0  503    0  0.00000000000E+00  0.00000000000E+00  0.14042346117E+04  0.14042346117E+04  0.00000000000E+00 0. -1.
         -1   -1    0    0    0  501 -0.00000000000E+00 -0.00000000000E+00 -0.90497332355E+02  0.90497332355E+02  0.00000000000E+00 0.  1.
         23    2    1    2    0    0  0.22286338949E+03  0.14190766323E+03  0.23521242472E+03  0.36482938915E+03  0.89273306150E+02 0.  0.
         23    2    1    2    0    0 -0.24339451614E+03 -0.92597612566E+02  0.91404323202E+03  0.95454235955E+03  0.88661591571E+02 0.  0.
        -11    1    4    4    0    0 -0.21815228872E+03 -0.58805678527E+02  0.83403883274E+03  0.86410028551E+03  0.00000000000E+00 0. -1.
         11    1    4    4    0    0 -0.25242227424E+02 -0.33791934039E+02  0.80004399289E+02  0.90442074041E+02  0.00000000000E+00 0.  1.
        -13    1    3    3    0    0  0.84409378668E+01  0.20545354972E+02 -0.26403237956E+01  0.22368110174E+02  0.00000000000E+00 0. -1.
         13    1    3    3    0    0  0.21442245162E+03  0.12136230826E+03  0.23785274851E+03  0.34246127898E+03  0.00000000000E+00 0.  1.
         21    1    1    2  502  501  0.25299110795E+02 -0.23559230400E+02  0.90249776209E+02  0.96644215812E+02  0.00000000000E+00 0.  1.
         21    1    1    2  503  502 -0.47679841431E+01 -0.25750820262E+02  0.74231846441E+02  0.78715979592E+02  0.00000000000E+00 0.  1.
<scales pt_clust_5="13000.00000" pt_clust_6="13000.00000" pt_clust_7="13000.00000" pt_clust_8="13000.00000" pt_clust_9="60.80291" pt_clust_10="25.28562"></scales>
<clustering>
<clus scale="   25.286">  9 10 -1 -1</clus>
<clus scale="   60.803">  1  9  2 -1</clus>
<clus scale="   88.662">  5  6 -1 -1</clus>
<clus scale="   89.273">  7  8 -1 -1</clus>
<clus scale="  276.872">  1  5  2 -1</clus>
<clus scale="   60.803">  1  5  2 -1</clus>
</clustering>
</event>
<event>
10    2  0.1898324E-006  0.4016302E+03  0.7546771E-02  0.1043238E+00
          1   -1    0    0  502    0  0.00000000000E+00  0.00000000000E+00  0.99225972542E+03  0.99225972542E+03  0.00000000000E+00 0. -1.
         -1   -1    0    0    0  501 -0.00000000000E+00 -0.00000000000E+00 -0.27479692897E+03  0.27479692897E+03  0.00000000000E+00 0.  1.
         23    2    1    2    0    0  0.35219387781E+03  0.18130920778E+03  0.33866182450E+03  0.52878815413E+03  0.89507118027E+02 0.  0.
         23    2    1    2    0    0 -0.32021853796E+03 -0.22065107409E+03  0.28359603005E+03  0.48975467119E+03  0.90587643419E+02 0.  0.
        -13    1    3    3    0    0  0.19986908399E+02  0.35275502028E+02  0.17375079184E+02  0.44110440117E+02  0.00000000000E+00 0.  1.
         13    1    3    3    0    0  0.33220696941E+03  0.14603370575E+03  0.32128674531E+03  0.48467771401E+03  0.00000000000E+00 0. -1.
        -13    1    4    4    0    0 -0.26993406440E+03 -0.21864472285E+03  0.23227814325E+03  0.41787922871E+03  0.00000000000E+00 0.  1.
         13    1    4    4    0    0 -0.50284473558E+02 -0.20063512440E+01  0.51317886797E+02  0.71875442480E+02  0.00000000000E+00 0. -1.
         21    1    1    2  502  503  0.19054574326E+02  0.58291865602E+02  0.15557493214E+03  0.16722612807E+03  0.00000000000E+00 0. -1.
         21    1    1    2  503  501 -0.51029914177E+02 -0.18949999293E+02 -0.60369990232E+02  0.81287701005E+02  0.00000000000E+00 0. -1.
<scales pt_clust_5="13000.00000" pt_clust_6="13000.00000" pt_clust_7="13000.00000" pt_clust_8="13000.00000" pt_clust_9="60.37212" pt_clust_10="54.43487"></scales>
<clustering>
<clus scale="   54.435">  2 10  1 -1</clus>
<clus scale="   60.372">  1  9  2 -1</clus>
<clus scale="   89.507">  5  6 -1 -1</clus>
<clus scale="   90.588">  7  8 -1 -1</clus>
<clus scale="  401.388">  2  5  1 -1</clus>
<clus scale="   60.372">  1  5  2 -1</clus>
</clustering>
</event>
<event>
10    2  0.1898324E-006  0.1219459E+03  0.7546771E-02  0.1240107E+00
          2   -1    0    0  502    0  0.00000000000E+00  0.00000000000E+00  0.71962380320E+03  0.71962380320E+03  0.00000000000E+00 0. -1.
         -2   -1    0    0    0  501 -0.00000000000E+00 -0.00000000000E+00 -0.58757626968E+02  0.58757626968E+02  0.00000000000E+00 0.  1.
         23    2    1    2    0    0 -0.78466574845E+01  0.39023167833E+02  0.89059887268E+02  0.13277950817E+03  0.90079723622E+02 0.  0.
         23    2    1    2    0    0 -0.80481103357E+02 -0.76338984106E+02  0.45191383833E+03  0.47408541248E+03  0.90697368008E+02 0.  0.
        -13    1    4    4    0    0 -0.64077910268E+02 -0.54318519990E+01  0.28202017309E+03  0.28925915998E+03  0.00000000000E+00 0.  1.
         13    1    4    4    0    0 -0.16403193089E+02 -0.70907132107E+02  0.16989366524E+03  0.18482625250E+03  0.00000000000E+00 0. -1.
        -13    1    3    3    0    0 -0.29825709654E+02  0.58901861265E+02  0.45842864373E+02  0.80377673708E+02  0.00000000000E+00 0.  1.
         13    1    3    3    0    0  0.21979052170E+02 -0.19878693432E+02  0.43217022896E+02  0.52401834460E+02  0.00000000000E+00 0. -1.
         21    1    1    2  502  503  0.75417228236E+02 -0.61497774167E+01  0.88123640484E+02  0.11615228835E+03  0.00000000000E+00 0. -1.
         21    1    1    2  503  501  0.12910532606E+02  0.43465593689E+02  0.31768810151E+02  0.55364221166E+02  0.00000000000E+00 0. -1.
<scales pt_clust_5="13000.00000" pt_clust_6="13000.00000" pt_clust_7="13000.00000" pt_clust_8="13000.00000" pt_clust_9="79.56313" pt_clust_10="45.34247"></scales>
<clustering>
<clus scale="   45.342">  2 10  1 -1</clus>
<clus scale="   79.563">  2  9  1 -1</clus>
<clus scale="   90.080">  7  8 -1 -1</clus>
<clus scale="   90.697">  5  6 -1 -1</clus>
<clus scale="  121.487">  2  7  1 -1</clus>
<clus scale="  121.946">  1  5  2 -1</clus>
</clustering>
</event>
<event>
10    2  0.1898324E-006  0.1723055E+03  0.7546771E-02  0.1178850E+00
          1   -1    0    0  502    0  0.00000000000E+00  0.00000000000E+00  0.65171594001E+03  0.65171594001E+03  0.00000000000E+00 0. -1.
         -1   -1    0    0    0  501 -0.00000000000E+00 -0.00000000000E+00 -0.41238004195E+03  0.41238004195E+03  0.00000000000E+00 0.  1.
         23    2    1    2    0    0  0.13420227608E+03 -0.43903135485E+02  0.68882946644E+02  0.18188280677E+03  0.91644742607E+02 0.  0.
         23    2    1    2    0    0 -0.13304231494E+03  0.14732133007E+02  0.36472807061E+03  0.40441708279E+03  0.11229121984E+03 0.  0.
        -13    1    3    3    0    0  0.53256661225E+02  0.27814131820E+02  0.27706868228E+02  0.66163195515E+02  0.00000000000E+00 0.  1.
         13    1    3    3    0    0  0.80945614859E+02 -0.71717267305E+02  0.41176078416E+02  0.11571961125E+03  0.00000000000E+00 0. -1.
        -13    1    4    4    0    0 -0.56780211398E+02  0.62609536011E+02  0.16818906789E+03  0.18823259272E+03  0.00000000000E+00 0.  1.
         13    1    4    4    0    0 -0.76262103546E+02 -0.47877403003E+02  0.19653900273E+03  0.21618449007E+03  0.00000000000E+00 0. -1.
         21    1    1    2  502  503  0.60223116175E+01 -0.25608673226E+02  0.13824074364E+03  0.14072162444E+03  0.00000000000E+00 0.  1.
         21    1    1    2  503  501 -0.71822727579E+01  0.54779675704E+02 -0.33251586283E+03  0.33707446796E+03  0.00000000000E+00 0.  1.
<scales pt_clust_5="13000.00000" pt_clust_6="13000.00000" pt_clust_7="13000.00000" pt_clust_8="13000.00000" pt_clust_9="26.30727" pt_clust_10="55.13204"></scales>
<clustering>
<clus scale="   26.307">  1  9  2 -1</clus>
<clus scale="   55.132">  2 10  1 -1</clus>
<clus scale="   91.645">  5  6 -1 -1</clus>
<clus scale="  112.291">  7  8 -1 -1</clus>
<clus scale="  159.620">  2  5  1 -1</clus>
<clus scale="   26.307">  1  5  2 -1</clus>
</clustering>
</event>
<event>
10    2  0.2253704E-006  0.1503207E+03  0.7546771E-02  0.1200639E+00
          2   -1    0    0  502    0  0.00000000000E+00  0.00000000000E+00  0.61158188591E+03  0.61158188591E+03  0.00000000000E+00 0. -1.
         -2   -1    0    0    0  501 -0.00000000000E+00 -0.00000000000E+00 -0.20493455882E+03  0.20493455882E+03  0.00000000000E+00 0.  1.
         23    2    1    2    0    0  0.12655443740E+03  0.36082937342E+02 -0.10492347359E+03  0.18975213279E+03  0.87629518960E+02 0.  0.
         23    2    1    2    0    0 -0.90531667313E+02 -0.14041349740E+02  0.50429750504E+03  0.52051003778E+03  0.90672948287E+02 0.  0.
        -11    1    4    4    0    0 -0.39280948409E+02  0.38845984182E+02  0.21340157379E+03  0.22043646498E+03  0.00000000000E+00 0. -1.
         11    1    4    4    0    0 -0.51250718904E+02 -0.52887333922E+02  0.29089593125E+03  0.30007357280E+03  0.00000000000E+00 0.  1.
        -13    1    3    3    0    0  0.25382996255E+02  0.19253056976E+02 -0.77191159087E+02  0.83507195756E+02  0.00000000000E+00 0.  1.
         13    1    3    3    0    0  0.10117144115E+03  0.16829880366E+02 -0.27732314507E+02  0.10624493703E+03  0.00000000000E+00 0. -1.
         21    1    1    2  502  503 -0.30127468486E+02 -0.11340148343E+00  0.49708503458E+02  0.58125833614E+02  0.00000000000E+00 0.  1.
         21    1    1    2  503  501 -0.58953016054E+01 -0.21928186119E+02 -0.42435207810E+02  0.48128440546E+02  0.00000000000E+00 0. -1.
<scales pt_clust_5="13000.00000" pt_clust_6="13000.00000" pt_clust_7="13000.00000" pt_clust_8="13000.00000" pt_clust_9="30.29077" pt_clust_10="22.70683"></scales>
<clustering>
<clus scale="   22.707">  2 10  1 -1</clus>
<clus scale="   30.291">  1  9  2 -1</clus>
<clus scale="   87.630">  7  8 -1 -1</clus>
<clus scale="   90.673">  5  6 -1 -1</clus>
<clus scale="  148.505">  2  7  1 -1</clus>
<clus scale="   30.291">  1  5  2 -1</clus>
</clustering>
</event>
<event>
10    2  0.1898324E-006  0.9514864E+02  0.7546771E-02  0.1293781E+00
         -1   -1    0    0    0  501 -0.00000000000E+00  0.00000000000E+00  0.29396369265E+03  0.29396369265E+03  0.00000000000E+00 0.  1.
          1   -1    0    0  502    0  0.00000000000E+00 -0.00000000000E+00 -0.29801792452E+03  0.29801792452E+03  0.00000000000E+00 0. -1.
         23    2    1    2    0    0 -0.50221900745E+01 -0.31465495530E+02  0.11144428964E+03  0.14516109950E+03  0.87387729759E+02 0.  0.
         23    2    1    2    0    0  0.58717908520E+01  0.21487368732E+02  0.45690432499E+02  0.10564628404E+03  0.92613912379E+02 0.  0.
        -11    1    4    4    0    0 -0.33890514199E+02  0.37903153593E+02  0.33663255340E+02  0.60978937060E+02  0.00000000000E+00 0.  1.
         11    1    4    4    0    0  0.39762305051E+02 -0.16415784861E+02  0.12027177159E+02  0.44667346977E+02  0.00000000000E+00 0. -1.
        -11    1    3    3    0    0  0.40171424900E+02 -0.46821822501E+01  0.50550348823E+02  0.64737963942E+02  0.00000000000E+00 0. -1.
         11    1    3    3    0    0 -0.45193614975E+02 -0.26783313280E+02  0.60893940814E+02  0.80423135555E+02  0.00000000000E+00 0.  1.
         21    1    1    2  502  503  0.24995277464E+02 -0.27270173161E+02 -0.24398766931E+03  0.24677603007E+03  0.00000000000E+00 0. -1.
         21    1    1    2  503  501 -0.25844878241E+02  0.37248299959E+02  0.82798715301E+02  0.94398203566E+02  0.00000000000E+00 0.  1.
<scales pt_clust_5="13000.00000" pt_clust_6="13000.00000" pt_clust_7="13000.00000" pt_clust_8="13000.00000" pt_clust_9="36.99225" pt_clust_10="41.30135"></scales>
<clustering>
<clus scale="   36.992">  2  9  1 -1</clus>
<clus scale="   41.301">  1 10  2 -1</clus>
<clus scale="   87.388">  7  8 -1 -1</clus>
<clus scale="   90.070">  1  7  2 -1</clus>
<clus scale="   92.614">  5  6 -1 -1</clus>
<clus scale="   36.992">  2  5  1 -1</clus>
</clustering>
</event>
<event>
10    2  0.1898324E-006  0.9804485E+02  0.7546771E-02  0.1284839E+00
         -1   -1    0    0    0  501 -0.00000000000E+00  0.00000000000E+00  0.42023810112E+02  0.42023810112E+02  0.00000000000E+00 0.  1.
          1   -1    0    0  502    0  0.00000000000E+00 -0.00000000000E+00 -0.45758126134E+03  0.45758126134E+03  0.00000000000E+00 0. -1.
         23    2    1    2    0    0  0.35126450262E+02 -0.19757130776E+02 -0.99856318958E+02  0.14157317337E+03  0.91910104224E+02 0.  0.
         23    2    1    2    0    0 -0.29367239256E+02  0.14881907740E+02 -0.23111052275E+03  0.25061386892E+03  0.91166505065E+02 0.  0.
        -11    1    4    4    0    0 -0.45753230108E+02  0.42756386165E+02 -0.17482483021E+03  0.18570187905E+03  0.00000000000E+00 0.  1.
         11    1    4    4    0    0  0.16385990852E+02 -0.27874478425E+02 -0.56285692542E+02  0.64911989868E+02  0.00000000000E+00 0. -1.
        -13    1    3    3    0    0 -0.88696661051E+01 -0.23416836225E+02 -0.93711765229E+02  0.96999557411E+02  0.00000000000E+00 0. -1.
         13    1    3    3    0    0  0.43996116367E+02  0.36597054491E+01 -0.61445537288E+01  0.44573615961E+02  0.00000000000E+00 0.  1.
         21    1    1    2  502  503  0.16701182485E+02  0.17595527627E+02 -0.76671923734E+02  0.80418380846E+02  0.00000000000E+00 0.  1.
         21    1    1    2  503  501 -0.22460393491E+02 -0.12720304591E+02 -0.79186857796E+01  0.26999648315E+02  0.00000000000E+00 0. -1.
<scales pt_clust_5="13000.00000" pt_clust_6="13000.00000" pt_clust_7="13000.00000" pt_clust_8="13000.00000" pt_clust_9="24.25968" pt_clust_10="24.74566"></scales>
<clustering>
<clus scale="   24.260">  2  9  1 -1</clus>
<clus scale="   24.746">  1 10  2 -1</clus>
<clus scale="   91.167">  5  6 -1 -1</clus>
<clus scale="   91.910">  7  8 -1 -1</clus>
<clus scale="   97.348">  2  5  1 -1</clus>
<clus scale="   24.260">  2  5  1 -1</clus>
</clustering>
</event>
<event>
10    2  0.1898324E-006  0.9381981E+02  0.7546771E-02  0.1298115E+00
         -1   -1    0    0    0  501 -0.00000000000E+00  0.00000000000E+00  0.42389483586E+03  0.42389483586E+03  0.00000000000E+00 0.  1.
          1   -1    0    0  502    0  0.00000000000E+00 -0.00000000000E+00 -0.73999343174E+02  0.73999343174E+02  0.00000000000E+00 0. -1.
         23    2    1    2    0    0  0.20099721340E+02  0.47610621262E+02  0.26045900548E+03  0.28081472959E+03  0.91363279066E+02 0.  0.
         23    2    1    2    0    0 -0.21667654510E+02 -0.16942018143E+02  0.13874243959E+02  0.89497009906E+02  0.84027976924E+02 0.  0.
        -11    1    3    3    0    0  0.36316517505E+02 -0.24092046688E+01  0.18679987098E+03  0.19031259945E+03  0.00000000000E+00 0. -1.
         11    1    3    3    0    0 -0.16216796165E+02  0.50019825931E+02  0.73659134500E+02  0.90502130137E+02  0.00000000000E+00 0.  1.
        -13    1    4    4    0    0  0.14216605552E+02  0.22111522028E+02  0.23892178587E+02  0.35522774068E+02  0.00000000000E+00 0.  1.
         13    1    4    4    0    0 -0.35884260063E+02 -0.39053540170E+02 -0.10017934628E+02  0.53974235838E+02  0.00000000000E+00 0. -1.
         21    1    1    2  502  503  0.45692734095E+01  0.22608600040E+02 -0.11264211620E+02  0.25669232919E+02  0.00000000000E+00 0.  1.
         21    1    1    2  503  501 -0.30013402391E+01 -0.53277203159E+02  0.86826454863E+02  0.10191320662E+03  0.00000000000E+00 0. -1.
<scales pt_clust_5="13000.00000" pt_clust_6="13000.00000" pt_clust_7="13000.00000" pt_clust_8="13000.00000" pt_clust_9="23.06571" pt_clust_10="50.26253"></scales>
<clustering>
<clus scale="   23.066">  2  9  1 -1</clus>
<clus scale="   50.263">  1 10  2 -1</clus>
<clus scale="   84.028">  7  8 -1 -1</clus>
<clus scale="   86.693">  2  7  1 -1</clus>
<clus scale="   91.363">  5  6 -1 -1</clus>
<clus scale="   23.066">  2  5  1 -1</clus>
</clustering>
</event>
<event>
10    2  0.1898324E-006  0.1144070E+03  0.7546771E-02  0.1252658E+00
         -2   -1    0    0    0  501 -0.00000000000E+00  0.00000000000E+00  0.54793237422E+02  0.54793237422E+02  0.00000000000E+00 0.  1.
          2   -1    0    0  502    0  0.00000000000E+00 -0.00000000000E+00 -0.96498862910E+03  0.96498862910E+03  0.00000000000E+00 0. -1.
         23    2    1    2    0    0 -0.61029796325E+02  0.45603226585E+02 -0.58512526236E+02  0.13213723164E+03  0.90731703089E+02 0.  0.
         23    2    1    2    0    0  0.26241776840E+02 -0.10261421394E+03 -0.62884255652E+03  0.64410676000E+03  0.90621463457E+02 0.  0.
        -11    1    3    3    0    0 -0.35025968484E+02 -0.14990194064E+02 -0.53944129719E+02  0.66041604443E+02  0.00000000000E+00 0. -1.
         11    1    3    3    0    0 -0.26003827841E+02  0.60593420649E+02 -0.45683965179E+01  0.66095627201E+02  0.00000000000E+00 0.  1.
        -13    1    4    4    0    0  0.47988842029E+02 -0.26110095641E+02 -0.17440039736E+03  0.18275711929E+03  0.00000000000E+00 0.  1.
         13    1    4    4    0    0 -0.21747065189E+02 -0.76504118296E+02 -0.45444215916E+03  0.46134964071E+03  0.00000000000E+00 0. -1.
         21    1    1    2  502  503  0.14395046997E+02  0.54883657427E+02 -0.21367288823E+03  0.22107812284E+03  0.00000000000E+00 0.  1.
         21    1    1    2  503  501  0.20392972488E+02  0.21273299241E+01 -0.91674206861E+01  0.22459752037E+02  0.00000000000E+00 0.  1.
<scales pt_clust_5="13000.00000" pt_clust_6="13000.00000" pt_clust_7="13000.00000" pt_clust_8="13000.00000" pt_clust_9="57.31516" pt_clust_10="20.50363"></scales>
<clustering>
<clus scale="   20.504">  1 10  2 -1</clus>
<clus scale="   57.315">  2  9  1 -1</clus>
<clus scale="   90.621">  7  8 -1 -1</clus>
<clus scale="   90.732">  5  6 -1 -1</clus>
<clus scale="  114.320">  2  7  1 -1</clus>
<clus scale="   57.315">  2  5  1 -1</clus>
</clustering>
</event>
<event>
10    2  0.1898324E-006  0.9693147E+02  0.7546771E-02  0.1288219E+00
          1   -1    0    0  502    0  0.00000000000E+00  0.00000000000E+00  0.19402462908E+03  0.19402462908E+03  0.00000000000E+00 0. -1.
         -1   -1    0    0    0  501 -0.00000000000E+00 -0.00000000000E+00 -0.15297512427E+03  0.15297512427E+03  0.00000000000E+00 0.  1.
         23    2    1    2    0    0 -0.19026913618E+02  0.11588414320E+02 -0.56350491774E+02  0.10872222306E+03  0.90270865039E+02 0.  0.
         23    2    1    2    0    0  0.27502341002E+02 -0.30604427790E+02  0.84179853722E+01  0.10184565822E+03  0.92782896370E+02 0.  0.
        -11    1    3    3    0    0 -0.54161963499E+02  0.13350472034E+02 -0.23301942352E+02  0.60454395299E+02  0.00000000000E+00 0.  1.
         11    1    3    3    0    0  0.35135049881E+02 -0.17620577135E+01 -0.33048549422E+02  0.48267827758E+02  0.00000000000E+00 0. -1.
        -13    1    4    4    0    0  0.39796918597E+02  0.20233749820E+02  0.18935682339E+02  0.48494942285E+02  0.00000000000E+00 0. -1.
         13    1    4    4    0    0 -0.12294577595E+02 -0.50838177609E+02 -0.10517696967E+02  0.53350715931E+02  0.00000000000E+00 0.  1.
         21    1    1    2  502  503  0.26464396310E+02 -0.17080576344E+01  0.91952027608E+02  0.95699828182E+02  0.00000000000E+00 0.  1.
         21    1    1    2  503  501 -0.34939823694E+02  0.20724071104E+02 -0.29700164001E+01  0.40732043900E+02  0.00000000000E+00 0.  1.
<scales pt_clust_5="13000.00000" pt_clust_6="13000.00000" pt_clust_7="13000.00000" pt_clust_8="13000.00000" pt_clust_9="26.51946" pt_clust_10="36.24130"></scales>
<clustering>
<clus scale="   26.519">  1  9  2 -1</clus>
<clus scale="   36.241">  1 10  2 -1</clus>
<clus scale="   90.271">  5  6 -1 -1</clus>
<clus scale="   92.783">  7  8 -1 -1</clus>
<clus scale="   94.530">  2  5  1 -1</clus>
<clus scale="   26.519">  1  5  2 -1</clus>
</clustering>
</event>
<event>
10    2  0.1898324E-006  0.9609799E+02  0.7546771E-02  0.1288849E+00
         -2   -1    0    0    0  501 -0.00000000000E+00  0.00000000000E+00  0.67940630596E+02  0.67940630596E+02  0.00000000000E+00 0.  1.
          2   -1    0    0  502    0  0.00000000000E+00 -0.00000000000E+00 -0.41093785462E+03  0.41093785462E+03  0.00000000000E+00 0. -1.
         23    2    1    2    0    0  0.16850459043E+02 -0.18530434852E+02 -0.12368330860E+03  0.15546294509E+03  0.90795657843E+02 0.  0.
         23    2    1    2    0    0 -0.16110891235E+02  0.29847260657E+02 -0.17531658854E+03  0.20021539615E+03  0.90553182443E+02 0.  0.
        -11    1    3    3    0    0 -0.34074003476E+02  0.25979868988E+01 -0.24714653653E+02  0.42173467418E+02  0.00000000000E+00 0. -1.
         11    1    3    3    0    0  0.50924462519E+02 -0.21128421750E+02 -0.98968654950E+02  0.11328947767E+03  0.00000000000E+00 0.  1.
        -11    1    4    4    0    0 -0.22511490900E+02 -0.15363606931E+02 -0.13962338743E+03  0.14225856023E+03  0.00000000000E+00 0. -1.
         11    1    4    4    0    0  0.64005996648E+01  0.45210867588E+02 -0.35693201115E+02  0.57956835921E+02  0.00000000000E+00 0.  1.
         21    1    1    2  502  503 -0.12881373739E+02  0.16384211906E+02 -0.76213193112E+02  0.79011537091E+02  0.00000000000E+00 0. -1.
         21    1    1    2  503  501  0.12141805932E+02 -0.27701037711E+02  0.32215866234E+02  0.44188606889E+02  0.00000000000E+00 0.  1.
<scales pt_clust_5="13000.00000" pt_clust_6="13000.00000" pt_clust_7="13000.00000" pt_clust_8="13000.00000" pt_clust_9="20.84160" pt_clust_10="29.88295"></scales>
<clustering>
<clus scale="   20.842">  2  9  1 -1</clus>
<clus scale="   29.883">  1 10  2 -1</clus>
<clus scale="   90.553">  7  8 -1 -1</clus>
<clus scale="   90.796">  5  6 -1 -1</clus>
<clus scale="   95.869">  2  7  1 -1</clus>
<clus scale="   20.842">  2  5  1 -1</clus>
</clustering>
</event>
<event>
10    2  0.1898324E-006  0.9821437E+02  0.7546771E-02  0.1285153E+00
         -1   -1    0    0    0  501 -0.00000000000E+00  0.00000000000E+00  0.81598012489E+02  0.81598012489E+02  0.00000000000E+00 0.  1.
          1   -1    0    0  502    0  0.00000000000E+00 -0.00000000000E+00 -0.38929478497E+03  0.38929478497E+03  0.00000000000E+00 0. -1.
         23    2    1    2    0    0 -0.35936976837E+02 -0.57129546848E+01 -0.37699026068E+01  0.10175382157E+03  0.94950112601E+02 0.  0.
         23    2    1    2    0    0 -0.50948855376E+02  0.39588847374E+02 -0.16124685196E+03  0.19536311956E+03  0.89460262215E+02 0.  0.
        -11    1    4    4    0    0 -0.63201991814E+02  0.59193410707E+01 -0.13997089277E+03  0.15369248905E+03  0.00000000000E+00 0.  1.
         11    1    4    4    0    0  0.12253136438E+02  0.33669506303E+02 -0.21275959190E+02  0.41670630505E+02  0.00000000000E+00 0. -1.
        -13    1    3    3    0    0  0.26553059424E+02 -0.24156897903E+02  0.40760927880E+01  0.36128039159E+02  0.00000000000E+00 0. -1.
         13    1    3    3    0    0 -0.62490036261E+02  0.18443943218E+02 -0.78459953948E+01  0.65625782411E+02  0.00000000000E+00 0.  1.
         21    1    1    2  502  503  0.26159664239E+02 -0.29099015303E+01 -0.66669006135E+02  0.71676718250E+02  0.00000000000E+00 0. -1.
         21    1    1    2  503  501  0.60726167974E+02 -0.30965991159E+02 -0.76011011775E+02  0.10209913808E+03  0.00000000000E+00 0. -1.
<scales pt_clust_5="13000.00000" pt_clust_6="13000.00000" pt_clust_7="13000.00000" pt_clust_8="13000.00000" pt_clust_9="21.01510" pt_clust_10="99.19910"></scales>
<clustering>
<clus scale="   21.015">  9 10 -1 -1</clus>
<clus scale="   89.460">  5  6 -1 -1</clus>
<clus scale="   94.950">  7  8 -1 -1</clus>
<clus scale="   99.199">  2  9  1 -1</clus>
<clus scale="   99.199">  2  5  1 -1</clus>
<clus scale="   98.214">  2  5  1 -1</clus>
</clustering>
</event>
<event>
10    2  0.1898324E-006  0.1224152E+03  0.7546771E-02  0.1243380E+00
          3   -1    0    0  502    0  0.00000000000E+00  0.00000000000E+00  0.28255414694E+03  0.28255414694E+03  0.00000000000E+00 0. -1.
         -3   -1    0    0    0  501 -0.00000000000E+00 -0.00000000000E+00 -0.26725970365E+03  0.26725970365E+03  0.00000000000E+00 0.  1.
         23    2    1    2    0    0 -0.10266352533E+03  0.18062362893E+02 -0.55280129780E+02  0.15715257495E+03  0.10380265256E+03 0.  0.
         23    2    1    2    0    0  0.49254684166E+02  0.28580780659E+01  0.18748697348E+03  0.21449244669E+03  0.91768469221E+02 0.  0.
        -11    1    4    4    0    0 -0.26074047713E+02  0.40370276511E+01  0.30259339946E+02  0.40146995036E+02  0.00000000000E+00 0.  1.
         11    1    4    4    0    0  0.75328731879E+02 -0.11789495852E+01  0.15722763353E+03  0.17434545166E+03  0.00000000000E+00 0. -1.
        -13    1    3    3    0    0 -0.11643346431E+03 -0.64026640140E+01 -0.32652095673E+02  0.12109461205E+03  0.00000000000E+00 0.  1.
         13    1    3    3    0    0  0.13769938973E+02  0.24465026907E+02 -0.22628034108E+02  0.36057962900E+02  0.00000000000E+00 0. -1.
         21    1    1    2  502  503  0.65305385470E+01 -0.27802556432E+02  0.18954837134E+02  0.34277046673E+02  0.00000000000E+00 0.  1.
         21    1    1    2  503  501  0.46878302620E+02  0.68821154733E+01 -0.13586723753E+03  0.14389178227E+03  0.00000000000E+00 0.  1.
<scales pt_clust_5="13000.00000" pt_clust_6="13000.00000" pt_clust_7="13000.00000" pt_clust_8="13000.00000" pt_clust_9="28.55924" pt_clust_10="47.42087"></scales>
<clustering>
<clus scale="   28.559">  1  9  2 -1</clus>
<clus scale="   47.421">  2 10  1 -1</clus>
<clus scale="   91.768">  5  6 -1 -1</clus>
<clus scale="  103.803">  7  8 -1 -1</clus>
<clus scale="  112.392">  1  5  2 -1</clus>
<clus scale="   28.559">  1  5  2 -1</clus>
</clustering>
</event>
<event>
10    2  0.1898324E-006  0.1116056E+03  0.7546771E-02  0.1258621E+00
         -1   -1    0    0    0  501 -0.00000000000E+00  0.00000000000E+00  0.27435258699E+03  0.27435258699E+03  0.00000000000E+00 0.  1.
          1   -1    0    0  502    0  0.00000000000E+00 -0.00000000000E+00 -0.11972908040E+03  0.11972908040E+03  0.00000000000E+00 0. -1.
         23    2    1    2    0    0 -0.46669783084E+02  0.49693550745E+01  0.99189654820E+02  0.14188068144E+03  0.89937628388E+02 0.  0.
         23    2    1    2    0    0  0.10400011367E+03  0.25555885427E+02  0.30491746405E+02  0.14480135381E+03  0.92566508755E+02 0.  0.
        -13    1    3    3    0    0 -0.50548965323E+02  0.36921086214E+02  0.39360560102E+02  0.73943344487E+02  0.00000000000E+00 0.  1.
         13    1    3    3    0    0  0.38791822394E+01 -0.31951731139E+02  0.59829094718E+02  0.67937336954E+02  0.00000000000E+00 0. -1.
        -13    1    4    4    0    0  0.31572437369E+02 -0.21229481761E+02 -0.21908549710E+02  0.43903237325E+02  0.00000000000E+00 0. -1.
         13    1    4    4    0    0  0.72427676299E+02  0.46785367188E+02  0.52400296115E+02  0.10089811648E+03  0.00000000000E+00 0.  1.
         21    1    1    2  502  503  0.20016491817E+02  0.20672769104E+01  0.11335696388E+01  0.20154864391E+02  0.00000000000E+00 0. -1.
         21    1    1    2  503  501 -0.77346822402E+02 -0.32592517412E+02  0.23808535729E+02  0.87244767754E+02  0.00000000000E+00 0. -1.
<scales pt_clust_5="13000.00000" pt_clust_6="13000.00000" pt_clust_7="13000.00000" pt_clust_8="13000.00000" pt_clust_9="20.12296" pt_clust_10="78.41227"></scales>
<clustering>
<clus scale="   20.123">  2  9  1 -1</clus>
<clus scale="   78.412">  2 10  1 -1</clus>
<clus scale="   89.938">  5  6 -1 -1</clus>
<clus scale="   92.567">  7  8 -1 -1</clus>
<clus scale="  109.435">  1  5  2 -1</clus>
<clus scale="   20.123">  2  5  1 -1</clus>
</clustering>
</event>
<event>
10    2  0.1898324E-006  0.1385611E+03  0.7546771E-02  0.1230679E+00
         -2   -1    0    0    0  501 -0.00000000000E+00  0.00000000000E+00  0.10939799639E+03  0.10939799639E+03  0.00000000000E+00 0.  1.
          2   -1    0    0  502    0  0.00000000000E+00 -0.00000000000E+00 -0.92285217740E+03  0.92285217740E+03  0.00000000000E+00 0. -1.
         23    2    1    2    0    0  0.41612972059E+01  0.40348862085E+02 -0.13315307354E+03  0.16636416950E+03  0.91115030783E+02 0.  0.
         23    2    1    2    0    0  0.18789597537E+02  0.41170725751E+02  0.15508077104E+02  0.10524057430E+03  0.93739001431E+02 0.  0.
        -11    1    4    4    0    0  0.27566124969E+02  0.63344393271E+02  0.32112947711E+02  0.76181656686E+02  0.00000000000E+00 0.  1.
         11    1    4    4    0    0 -0.87765274325E+01 -0.22173667520E+02 -0.16604870607E+02  0.29058917615E+02  0.00000000000E+00 0. -1.
        -11    1    3    3    0    0 -0.33807226787E+02  0.48356672213E+02 -0.63852042520E+02  0.86938942164E+02  0.00000000000E+00 0. -1.
         11    1    3    3    0    0  0.37968523992E+02 -0.80078101282E+01 -0.69301031016E+02  0.79425227335E+02  0.00000000000E+00 0.  1.
         21    1    1    2  502  503 -0.69845446159E+02 -0.79576395632E+02 -0.70492599155E+03  0.71283339053E+03  0.00000000000E+00 0. -1.
         21    1    1    2  503  501  0.46894551417E+02 -0.19431922048E+01  0.91168069716E+01  0.47812039466E+02  0.00000000000E+00 0.  1.
<scales pt_clust_5="13000.00000" pt_clust_6="13000.00000" pt_clust_7="13000.00000" pt_clust_8="13000.00000" pt_clust_9="102.04012" pt_clust_10="46.93479"></scales>
<clustering>
<clus scale="   46.935">  1 10  2 -1</clus>
<clus scale="   91.115">  7  8 -1 -1</clus>
<clus scale="   93.739">  5  6 -1 -1</clus>
<clus scale="  100.439">  1  7  2 -1</clus>
<clus scale="  102.040">  2  9  1 -1</clus>
<clus scale="  102.040">  2  5  1 -1</clus>
</clustering>
</event>
<event>
10    2  0.1898324E-006  0.1221392E+03  0.7546771E-02  0.1240265E+00
         -1   -1    0    0    0  501 -0.00000000000E+00  0.00000000000E+00  0.10796196332E+03  0.10796196332E+03  0.00000000000E+00 0.  1.
          1   -1    0    0  503    0  0.00000000000E+00 -0.00000000000E+00 -0.69857826663E+03  0.69857826663E+03  0.00000000000E+00 0. -1.
         23    2    1    2    0    0  0.94593499926E+02  0.47004208135E+02 -0.24960252132E+03  0.28536426520E+03  0.89297364991E+02 0.  0.
         23    2    1    2    0    0 -0.42156880161E+02 -0.59026559498E+02 -0.38378905329E+03  0.40115065698E+03  0.91468436633E+02 0.  0.
        -11    1    3    3    0    0  0.25889381095E+02  0.24921673642E+02 -0.13348972155E+02  0.38334643969E+02  0.00000000000E+00 0.  1.
         11    1    3    3    0    0  0.68704118831E+02  0.22082534493E+02 -0.23625354916E+03  0.24702962123E+03  0.00000000000E+00 0. -1.
        -13    1    4    4    0    0  0.14854589158E+02 -0.49314251611E+02 -0.25233317510E+03  0.25753560043E+03  0.00000000000E+00 0.  1.
         13    1    4    4    0    0 -0.57011469319E+02 -0.97123078871E+01 -0.13145587819E+03  0.14361505655E+03  0.00000000000E+00 0. -1.
         21    1    1    2  502  501 -0.17005351747E+02 -0.20709031547E+02 -0.25126791175E+02  0.36734202188E+02  0.00000000000E+00 0.  1.
         21    1    1    2  503  502 -0.35431268017E+02  0.32731382910E+02  0.67902062475E+02  0.83291105581E+02  0.00000000000E+00 0.  1.
<scales pt_clust_5="13000.00000" pt_clust_6="13000.00000" pt_clust_7="13000.00000" pt_clust_8="13000.00000" pt_clust_9="26.79638" pt_clust_10="51.07299"></scales>
<clustering>
<clus scale="   26.796">  1  9  2 -1</clus>
<clus scale="   51.073">  1 10  2 -1</clus>
<clus scale="   89.297">  5  6 -1 -1</clus>
<clus scale="   91.468">  7  8 -1 -1</clus>
<clus scale="  120.522">  1  5  2 -1</clus>
<clus scale="  122.139">  2  5  1 -1</clus>
</clustering>
</event>
<event>
10    2  0.1898324E-006  0.9851365E+02  0.7546771E-02  0.1284155E+00
         -1   -1    0    0    0  501 -0.00000000000E+00  0.00000000000E+00  0.20469404037E+03  0.20469404037E+03  0.00000000000E+00 0.  1.
          1   -1    0    0  502    0  0.00000000000E+00 -0.00000000000E+00 -0.48662263131E+03  0.48662263131E+03  0.00000000000E+00 0. -1.
         23    2    1    2    0    0  0.52250075274E+02  0.13927032661E+02  0.92836692986E+02  0.14113418212E+03  0.91521435708E+02 0.  0.
         23    2    1    2    0    0 -0.10664614205E+02  0.69195224698E+02 -0.10956495851E+03  0.15820192473E+03  0.90120229339E+02 0.  0.
        -11    1    4    4    0    0 -0.32636316313E+02  0.78790973364E+02 -0.10222443064E+03  0.13312768625E+03  0.00000000000E+00 0. -1.
         11    1    4    4    0    0  0.21971702107E+02 -0.95957486655E+01 -0.73405278777E+01  0.25074238482E+02  0.00000000000E+00 0.  1.
        -11    1    3    3    0    0  0.22680409754E+02  0.19326269547E+02 -0.11962628575E+02  0.32109346982E+02  0.00000000000E+00 0. -1.
         11    1    3    3    0    0  0.29569665520E+02 -0.53992368854E+01  0.10479932156E+03  0.10902483514E+03  0.00000000000E+00 0.  1.
         21    1    1    2  502  503 -0.22124408760E+02 -0.58150304665E+02 -0.32145945796E+03  0.32742499982E+03  0.00000000000E+00 0. -1.
         21    1    1    2  503  501 -0.19461052309E+02 -0.24971952695E+02  0.56259132545E+02  0.64555565005E+02  0.00000000000E+00 0. -1.
<scales pt_clust_5="13000.00000" pt_clust_6="13000.00000" pt_clust_7="13000.00000" pt_clust_8="13000.00000" pt_clust_9="62.84279" pt_clust_10="31.65961"></scales>
<clustering>
<clus scale="   31.660">  1 10  2 -1</clus>
<clus scale="   62.843">  2  9  1 -1</clus>
<clus scale="   90.120">  5  6 -1 -1</clus>
<clus scale="   91.521">  7  8 -1 -1</clus>
<clus scale="   97.213">  2  5  1 -1</clus>
<clus scale="   62.843">  2  5  1 -1</clus>
</clustering>
</event>
<event>
10    2  0.1898324E-006  0.1587149E+03  0.7546771E-02  0.1190497E+00
          4   -1    0    0  502    0  0.00000000000E+00  0.00000000000E+00  0.27296996392E+03  0.27296996392E+03  0.00000000000E+00 0. -1.
         -4   -1    0    0    0  501 -0.00000000000E+00 -0.00000000000E+00 -0.18412181778E+03  0.18412181778E+03  0.00000000000E+00 0.  1.
         23    2    1    2    0    0  0.15104021946E+03  0.63673659310E+02  0.48218185962E+02  0.19266416685E+03  0.89033729252E+02 0.  0.
         23    2    1    2    0    0 -0.61966443797E+02 -0.93391849148E+02  0.33854879205E+02  0.14836527565E+03  0.91127517949E+02 0.  0.
        -11    1    3    3    0    0  0.21693086908E+02  0.38545750335E+02 -0.14751090735E+02  0.46625739311E+02  0.00000000000E+00 0. -1.
         11    1    3    3    0    0  0.12934713255E+03  0.25127908976E+02  0.62969276697E+02  0.14603842754E+03  0.00000000000E+00 0.  1.
        -13    1    4    4    0    0 -0.53463637373E+02 -0.81807557166E+01  0.31726595979E+02  0.62704562654E+02  0.00000000000E+00 0. -1.
         13    1    4    4    0    0 -0.85028064237E+01 -0.85211093432E+02  0.21282832266E+01  0.85660712993E+02  0.00000000000E+00 0.  1.
         21    1    1    2  502  503 -0.27740329057E+02  0.30011121270E+02  0.29767895797E+02  0.50560071956E+02  0.00000000000E+00 0. -1.
         21    1    1    2  503  501 -0.61333446610E+02 -0.29293143142E+00 -0.22992814819E+02  0.65502267252E+02  0.00000000000E+00 0.  1.
<scales pt_clust_5="13000.00000" pt_clust_6="13000.00000" pt_clust_7="13000.00000" pt_clust_8="13000.00000" pt_clust_9="40.86800" pt_clust_10="63.91295"></scales>
<clustering>
<clus scale="   40.868">  1  9  2 -1</clus>
<clus scale="   63.913">  2 10  1 -1</clus>
<clus scale="   89.034">  5  6 -1 -1</clus>
<clus scale="   91.128">  7  8 -1 -1</clus>
<clus scale="  157.522">  2  5  1 -1</clus>
<clus scale="   40.868">  1  5  2 -1</clus>
</clustering>
</event>
<event>
10    2  0.1898324E-006  0.1141077E+03  0.7546771E-02  0.1253865E+00
         -2   -1    0    0    0  501 -0.00000000000E+00  0.00000000000E+00  0.47341632271E+03  0.47341632271E+03  0.00000000000E+00 0.  1.
          2   -1    0    0  502    0  0.00000000000E+00 -0.00000000000E+00 -0.19976892955E+03  0.19976892955E+03  0.00000000000E+00 0. -1.
         23    2    1    2    0    0  0.99450665442E+02  0.12224395152E+02  0.14107663189E+02  0.13601494463E+03  0.90890969338E+02 0.  0.
         23    2    1    2    0    0 -0.51184799037E+02 -0.35294966732E+02 -0.77546507799E+02  0.13603918685E+03  0.92884773551E+02 0.  0.
        -13    1    4    4    0    0 -0.60993228408E+02  0.62925884676E+01 -0.69281469474E+02  0.92518606743E+02  0.00000000000E+00 0. -1.
         13    1    4    4    0    0  0.98084293710E+01 -0.41587555200E+02 -0.82650383249E+01  0.43520580105E+02  0.00000000000E+00 0.  1.
        -13    1    3    3    0    0  0.64269020912E+02  0.51527926913E+02  0.11790865533E+02  0.83214534854E+02  0.00000000000E+00 0. -1.
         13    1    3    3    0    0  0.35181644530E+02 -0.39303531761E+02  0.23167976559E+01  0.52800409772E+02  0.00000000000E+00 0.  1.
         21    1    1    2  502  503  0.66075838917E+01  0.47177650249E+02 -0.10194206913E+02  0.48716657341E+02  0.00000000000E+00 0. -1.
         21    1    1    2  503  501 -0.54873450296E+02 -0.24107078669E+02  0.34728044468E+03  0.35241446345E+03  0.00000000000E+00 0.  1.
<scales pt_clust_5="13000.00000" pt_clust_6="13000.00000" pt_clust_7="13000.00000" pt_clust_8="13000.00000" pt_clust_9="47.63812" pt_clust_10="59.56130"></scales>
<clustering>
<clus scale="   47.638">  2  9  1 -1</clus>
<clus scale="   59.561">  1 10  2 -1</clus>
<clus scale="   90.891">  7  8 -1 -1</clus>
<clus scale="   92.885">  5  6 -1 -1</clus>
<clus scale="  112.491">  1  7  2 -1</clus>
<clus scale="   47.638">  2  5  1 -1</clus>
</clustering>
</event>
<event>
10    2  0.2976111E-006  0.1039212E+03  0.7546771E-02  0.1273207E+00
          1   -1    0    0  502    0  0.00000000000E+00  0.00000000000E+00  0.10094850165E+03  0.10094850165E+03  0.00000000000E+00 0. -1.
         -1   -1    0    0    0  501 -0.00000000000E+00 -0.00000000000E+00 -0.47819938275E+03  0.47819938275E+03  0.00000000000E+00 0.  1.
         23    2    1    2    0    0 -0.53898252877E+01  0.48381864317E+01 -0.28940736457E+03  0.30386538646E+03  0.92331425609E+02 0.  0.
         23    2    1    2    0    0  0.41749913427E+02 -0.16185889942E+01  0.47469787457E+02  0.11016922921E+03  0.90211990566E+02 0.  0.
        -11    1    3    3    0    0 -0.16449396555E+02  0.46485600740E+02 -0.14409839509E+03  0.15230180955E+03  0.00000000000E+00 0.  1.
         11    1    3    3    0    0  0.11059571267E+02 -0.41647414308E+02 -0.14530896948E+03  0.15156357691E+03  0.00000000000E+00 0. -1.
        -13    1    4    4    0    0  0.76070281158E+01 -0.23548142058E+02 -0.19742844160E+02  0.31656938681E+02  0.00000000000E+00 0.  1.
         13    1    4    4    0    0  0.34142885311E+02  0.21929553064E+02  0.67212631618E+02  0.78512290528E+02  0.00000000000E+00 0. -1.
         21    1    1    2  502  503  0.97687038516E+01 -0.23130097767E+02 -0.52063636543E+01  0.25642449574E+02  0.00000000000E+00 0.  1.
         21    1    1    2  503  501 -0.46128791991E+02  0.19910500329E+02 -0.13010694034E+03  0.13947081916E+03  0.00000000000E+00 0.  1.
<scales pt_clust_5="13000.00000" pt_clust_6="13000.00000" pt_clust_7="13000.00000" pt_clust_8="13000.00000" pt_clust_9="25.10835" pt_clust_10="49.31467"></scales>
<clustering>
<clus scale="   25.108">  1  9  2 -1</clus>
<clus scale="   49.315">  2 10  1 -1</clus>
<clus scale="   90.212">  7  8 -1 -1</clus>
<clus scale="   92.331">  5  6 -1 -1</clus>
<clus scale="  102.043">  1  7  2 -1</clus>
<clus scale="   25.108">  1  5  2 -1</clus>
</clustering>
</event>
<event>
10    2  0.1898324E-006  0.1122421E+03  0.7546771E-02  0.1256488E+00
         -4   -1    0    0    0  501 -0.00000000000E+00  0.00000000000E+00  0.53329624290E+02  0.53329624290E+02  0.00000000000E+00 0.  1.
          4   -1    0    0  502    0  0.00000000000E+00 -0.00000000000E+00 -0.37783417516E+03  0.37783417516E+03  0.00000000000E+00 0. -1.
         23    2    1    2    0    0  0.44570422011E+02 -0.37218249081E+02 -0.10010487682E+03  0.14733408118E+03  0.91184563007E+02 0.  0.
         23    2    1    2    0    0 -0.59258143035E+02  0.42863526730E+02 -0.12393112032E+03  0.17033722475E+03  0.91142954249E+02 0.  0.
        -13    1    3    3    0    0 -0.24652177048E+02 -0.16423271385E+02 -0.88361632759E+01  0.30911671867E+02  0.00000000000E+00 0.  1.
         13    1    3    3    0    0  0.69222599059E+02 -0.20794977697E+02 -0.91268713543E+02  0.11642240931E+03  0.00000000000E+00 0. -1.
        -13    1    4    4    0    0 -0.34339334336E+02  0.59282686784E+02 -0.35818623984E+02  0.77308477278E+02  0.00000000000E+00 0.  1.
         13    1    4    4    0    0 -0.24918808699E+02 -0.16419160054E+02 -0.88112496341E+02  0.93028747467E+02  0.00000000000E+00 0. -1.
         21    1    1    2  502  503  0.20399253065E+02  0.14646998674E+02 -0.80976385593E+02  0.84781124783E+02  0.00000000000E+00 0.  1.
         21    1    1    2  503  501 -0.57115320413E+01 -0.20292276323E+02 -0.19492168137E+02  0.28711368746E+02  0.00000000000E+00 0. -1.
<scales pt_clust_5="13000.00000" pt_clust_6="13000.00000" pt_clust_7="13000.00000" pt_clust_8="13000.00000" pt_clust_9="24.47512" pt_clust_10="21.08075"></scales>
<clustering>
<clus scale="   21.081">  1 10  2 -1</clus>
<clus scale="   24.475">  2  9  1 -1</clus>
<clus scale="   91.143">  7  8 -1 -1</clus>
<clus scale="   91.185">  5  6 -1 -1</clus>
<clus scale="  112.208">  2  7  1 -1</clus>
<clus scale="   24.475">  2  5  1 -1</clus>
</clustering>
</event>
<event>
10    2  0.1898324E-006  0.1662243E+03  0.7546771E-02  0.1183313E+00
         -2   -1    0    0    0  501 -0.00000000000E+00  0.00000000000E+00  0.39455663078E+03  0.39455663078E+03  0.00000000000E+00 0.  1.
          2   -1    0    0  502    0  0.00000000000E+00 -0.00000000000E+00 -0.21353955403E+03  0.21353955403E+03  0.00000000000E+00 0. -1.
         23    2    1    2    0    0 -0.11797790146E+03 -0.40707035606E+02  0.25680158521E+03  0.30202861102E+03  0.98480351983E+02 0.  0.
         23    2    1    2    0    0  0.18048224000E+03  0.74424556878E+02 -0.75590337933E+02  0.22752283699E+03  0.89106052196E+02 0.  0.
        -11    1    3    3    0    0 -0.11476166751E+03 -0.66053555274E+02  0.22677638724E+03  0.26260396475E+03  0.00000000000E+00 0.  1.
         11    1    3    3    0    0 -0.32162339514E+01  0.25346519668E+02  0.30025197970E+02  0.39424646267E+02  0.00000000000E+00 0. -1.
        -11    1    4    4    0    0  0.15300716559E+03  0.25631199697E+02 -0.73026105048E+02  0.17146709054E+03  0.00000000000E+00 0.  1.
         11    1    4    4    0    0  0.27475074409E+02  0.48793357181E+02 -0.25642328844E+01  0.56055746441E+02  0.00000000000E+00 0. -1.
         21    1    1    2  502  503 -0.34486005798E+02 -0.22312001711E+01 -0.84965109186E+01  0.35587266654E+02  0.00000000000E+00 0.  1.
         21    1    1    2  503  501 -0.28018332746E+02 -0.31486321101E+02  0.83023403839E+01  0.42957470155E+02  0.00000000000E+00 0.  1.
<scales pt_clust_5="13000.00000" pt_clust_6="13000.00000" pt_clust_7="13000.00000" pt_clust_8="13000.00000" pt_clust_9="30.37917" pt_clust_10="78.54450"></scales>
<clustering>
<clus scale="   30.379">  9 10 -1 -1</clus>
<clus scale="   78.544">  2  9  1 -1</clus>
<clus scale="   89.106">  7  8 -1 -1</clus>
<clus scale="   98.480">  5  6 -1 -1</clus>
<clus scale="  160.848">  2  7  1 -1</clus>
<clus scale="   78.544">  2  5  1 -1</clus>
</clustering>
</event>
<event>
10    2  0.1898324E-006  0.1088252E+03  0.7546771E-02  0.1263523E+00
          1   -1    0    0  502    0  0.00000000000E+00  0.00000000000E+00  0.84004586044E+03  0.84004586044E+03  0.00000000000E+00 0. -1.
         -1   -1    0    0    0  501 -0.00000000000E+00 -0.00000000000E+00 -0.43881869140E+02  0.43881869140E+02  0.00000000000E+00 0.  1.
         23    2    1    2    0    0 -0.64533182912E+02  0.28974488459E+02  0.18498135741E+03  0.21662545981E+03  0.87774908540E+02 0.  0.
         23    2    1    2    0    0  0.37031332832E+02 -0.31326511354E+02  0.26704981332E+03  0.28586796937E+03  0.89734180720E+02 0.  0.
        -13    1    3    3    0    0 -0.51100742246E+02  0.47771837437E+02  0.68612239946E+02  0.97985069172E+02  0.00000000000E+00 0. -1.
         13    1    3    3    0    0 -0.13432440666E+02 -0.18797348979E+02  0.11636911746E+03  0.11864039063E+03  0.00000000000E+00 0.  1.
        -13    1    4    4    0    0  0.44415616889E+02 -0.52398379466E+02  0.24515371296E+03  0.25459512991E+03  0.00000000000E+00 0. -1.
         13    1    4    4    0    0 -0.73842840570E+01  0.21071868112E+02  0.21896100360E+02  0.31272839458E+02  0.00000000000E+00 0.  1.
         21    1    1    2  502  503  0.43296564784E+02  0.18597643420E+02  0.35371013555E+03  0.35683515081E+03  0.00000000000E+00 0. -1.
         21    1    1    2  503  501 -0.15794714704E+02 -0.16245620525E+02 -0.95773149781E+01  0.24599149599E+02  0.00000000000E+00 0. -1.
<scales pt_clust_5="13000.00000" pt_clust_6="13000.00000" pt_clust_7="13000.00000" pt_clust_8="13000.00000" pt_clust_9="45.90438" pt_clust_10="22.65818"></scales>
<clustering>
<clus scale="   22.658">  2 10  1 -1</clus>
<clus scale="   45.904">  1  9  2 -1</clus>
<clus scale="   87.775">  5  6 -1 -1</clus>
<clus scale="   89.734">  7  8 -1 -1</clus>
<clus scale="  107.215">  2  5  1 -1</clus>
<clus scale="   45.904">  1  5  2 -1</clus>
</clustering>
</event>
<event>
10    2  0.1898324E-006  0.1767777E+03  0.7546771E-02  0.1174687E+00
          1   -1    0    0  502    0  0.00000000000E+00  0.00000000000E+00  0.57427993371E+03  0.57427993371E+03  0.00000000000E+00 0. -1.
         -1   -1    0    0    0  501 -0.00000000000E+00 -0.00000000000E+00 -0.16268827536E+03  0.16268827536E+03  0.00000000000E+00 0.  1.
         23    2    1    2    0    0  0.53374951371E+02  0.64533041655E+02  0.69090904943E+02  0.15795413480E+03  0.11472818596E+03 0.  0.
         23    2    1    2    0    0 -0.13799710517E+03 -0.13903669384E+03  0.19928255224E+03  0.29389093407E+03  0.91016164690E+02 0.  0.
        -11    1    3    3    0    0  0.56671592586E+02  0.13213707522E+02  0.85984830260E+02  0.10382515354E+03  0.00000000000E+00 0. -1.
         11    1    3    3    0    0 -0.32966412154E+01  0.51319334133E+02 -0.16893925317E+02  0.54128981256E+02  0.00000000000E+00 0.  1.
        -13    1    4    4    0    0 -0.68948288734E+02 -0.10056194022E+02  0.62105110949E+02  0.93338300625E+02  0.00000000000E+00 0.  1.
         13    1    4    4    0    0 -0.69048816431E+02 -0.12898049982E+03  0.13717744129E+03  0.20055263345E+03  0.00000000000E+00 0. -1.
         21    1    1    2  502  503  0.64995552697E+02  0.19155205723E+02  0.19524363864E+03  0.20666741932E+03  0.00000000000E+00 0. -1.
         21    1    1    2  503  501  0.19626601097E+02  0.55348446460E+02 -0.52025437477E+02  0.78455720893E+02  0.00000000000E+00 0.  1.
<scales pt_clust_5="13000.00000" pt_clust_6="13000.00000" pt_clust_7="13000.00000" pt_clust_8="13000.00000" pt_clust_9="69.83569" pt_clust_10="58.72524"></scales>
<clustering>
<clus scale="   58.725">  2 10  1 -1</clus>
<clus scale="   69.836">  1  9  2 -1</clus>
<clus scale="   91.016">  7  8 -1 -1</clus>
<clus scale="  114.728">  5  6 -1 -1</clus>
<clus scale="  162.394">  1  7  2 -1</clus>
<clus scale="   69.836">  1  5  2 -1</clus>
</clustering>
</event>
<event>
10    2  0.1898324E-006  0.9627150E+02  0.7546771E-02  0.1296723E+00
          1   -1    0    0  502    0  0.00000000000E+00  0.00000000000E+00  0.28822754856E+03  0.28822754856E+03  0.00000000000E+00 0. -1.
         -1   -1    0    0    0  501 -0.00000000000E+00 -0.00000000000E+00 -0.98968061983E+02  0.98968061983E+02  0.00000000000E+00 0.  1.
         23    2    1    2    0    0  0.13854842886E+02  0.44752375366E+02  0.34852275610E+02  0.98328438929E+02  0.79114278197E+02 0.  0.
         23    2    1    2    0    0 -0.10567814521E+01  0.52777691683E+01  0.11444494904E+03  0.14790370897E+03  0.93535496641E+02 0.  0.
        -11    1    3    3    0    0 -0.28912862681E+02  0.17197318121E+01  0.12877566493E+01  0.28992575310E+02  0.00000000000E+00 0. -1.
         11    1    3    3    0    0  0.42767705567E+02  0.43032643553E+02  0.33564518961E+02  0.69335863618E+02  0.00000000000E+00 0.  1.
        -13    1    4    4    0    0  0.42435063586E+02 -0.15698102239E+02  0.59669430304E+02  0.74883949871E+02  0.00000000000E+00 0.  1.
         13    1    4    4    0    0 -0.43491845038E+02  0.20975871407E+02  0.54775518733E+02  0.73019759097E+02  0.00000000000E+00 0. -1.
         21    1    1    2  502  503 -0.95943204930E+01 -0.25448942425E+02  0.85169046108E+02  0.89406185866E+02  0.00000000000E+00 0. -1.
         21    1    1    2  503  501 -0.32037409404E+01 -0.24581202109E+02 -0.45206784179E+02  0.51557276779E+02  0.00000000000E+00 0. -1.
<scales pt_clust_5="13000.00000" pt_clust_6="13000.00000" pt_clust_7="13000.00000" pt_clust_8="13000.00000" pt_clust_9="28.20904" pt_clust_10="24.78910"></scales>
<clustering>
<clus scale="   24.789">  2 10  1 -1</clus>
<clus scale="   28.209">  1  9  2 -1</clus>
<clus scale="   79.114">  5  6 -1 -1</clus>
<clus scale="   82.331">  2  5  1 -1</clus>
<clus scale="   93.535">  7  8 -1 -1</clus>
<clus scale="   28.209">  1  5  2 -1</clus>
</clustering>
</event>
<event>
10    2  0.1898324E-006  0.1140970E+03  0.7546771E-02  0.1260891E+00
          1   -1    0    0  502    0  0.00000000000E+00  0.00000000000E+00  0.22124443510E+03  0.22124443510E+03  0.00000000000E+00 0. -1.
         -1   -1    0    0    0  501 -0.00000000000E+00 -0.00000000000E+00 -0.18769319325E+03  0.18769319325E+03  0.00000000000E+00 0.  1.
         23    2    1    2    0    0 -0.21355731970E+02 -0.21517187484E+01 -0.49557667637E+02  0.10561361842E+03  0.90761097356E+02 0.  0.
         23    2    1    2    0    0 -0.56955153159E+02  0.63884200379E+02  0.67030286472E+02  0.15323024639E+03  0.10798781679E+03 0.  0.
        -11    1    3    3    0    0 -0.54010378037E+02 -0.15828640763E+01 -0.11104715275E+02  0.55162859749E+02  0.00000000000E+00 0.  1.
         11    1    3    3    0    0  0.32654646067E+02 -0.56885467208E+00 -0.38452952361E+02  0.50450758673E+02  0.00000000000E+00 0. -1.
        -13    1    4    4    0    0 -0.61614192443E+02 -0.11046337261E+02  0.33659777767E+02  0.71072574996E+02  0.00000000000E+00 0.  1.
         13    1    4    4    0    0  0.46590392843E+01  0.74930537639E+02  0.33370508706E+02  0.82157671396E+02  0.00000000000E+00 0. -1.
         21    1    1    2  502  503  0.68065252459E+02 -0.84029533743E+01  0.51055735250E+02  0.85499569119E+02  0.00000000000E+00 0.  1.
         21    1    1    2  503  501  0.10245632670E+02 -0.53329528256E+02 -0.34977112235E+02  0.64594194423E+02  0.00000000000E+00 0.  1.
<scales pt_clust_5="13000.00000" pt_clust_6="13000.00000" pt_clust_7="13000.00000" pt_clust_8="13000.00000" pt_clust_9="70.96181" pt_clust_10="54.30480"></scales>
<clustering>
<clus scale="   54.305">  2 10  1 -1</clus>
<clus scale="   70.962">  1  9  2 -1</clus>
<clus scale="   90.761">  5  6 -1 -1</clus>
<clus scale="   97.951">  2  5  1 -1</clus>
<clus scale="  107.988">  7  8 -1 -1</clus>
<clus scale="   70.962">  1  5  2 -1</clus>
</clustering>
</event>
<event>
10    2  0.1898324E-006  0.1169081E+03  0.7546771E-02  0.1251020E+00
         -2   -1    0    0    0  501 -0.00000000000E+00  0.00000000000E+00  0.19152356316E+03  0.19152356316E+03  0.00000000000E+00 0.  1.
          2   -1    0    0  502    0  0.00000000000E+00 -0.00000000000E+00 -0.19848183461E+03  0.19848183461E+03  0.00000000000E+00 0. -1.
         23    2    1    2    0    0 -0.81765231931E+02 -0.56773181241E+02 -0.33199819249E+02  0.14415131553E+03  0.98836362284E+02 0.  0.
         23    2    1    2    0    0  0.38615498514E+02 -0.24785737515E+01 -0.11642527578E+02  0.99932631568E+02  0.91398481117E+02 0.  0.
        -11    1    3    3    0    0 -0.67272488191E+02 -0.37404171638E+01  0.17233495158E+02  0.69545465296E+02  0.00000000000E+00 0.  1.
         11    1    3    3    0    0 -0.14492743740E+02 -0.53032764077E+02 -0.50433314406E+02  0.74605850232E+02  0.00000000000E+00 0. -1.
        -13    1    4    4    0    0  0.43500732133E+02  0.38415767564E+02 -0.55626693584E+01  0.58301185100E+02  0.00000000000E+00 0.  1.
         13    1    4    4    0    0 -0.48852336194E+01 -0.40894341315E+02 -0.60798582198E+01  0.41631446469E+02  0.00000000000E+00 0. -1.
         21    1    1    2  502  503  0.64992921820E+02  0.64559994993E+02 -0.10854247591E+02  0.92249051654E+02  0.00000000000E+00 0. -1.
         21    1    1    2  503  501 -0.21843188403E+02 -0.53082400005E+01  0.48738322967E+02  0.53672399025E+02  0.00000000000E+00 0.  1.
<scales pt_clust_5="13000.00000" pt_clust_6="13000.00000" pt_clust_7="13000.00000" pt_clust_8="13000.00000" pt_clust_9="86.09464" pt_clust_10="22.47893"></scales>
<clustering>
<clus scale="   22.479">  1 10  2 -1</clus>
<clus scale="   86.095">  1  9  2 -1</clus>
<clus scale="   91.398">  7  8 -1 -1</clus>
<clus scale="   98.836">  5  6 -1 -1</clus>
<clus scale="  110.691">  2  7  1 -1</clus>
<clus scale="  110.691">  2  5  1 -1</clus>
</clustering>
</event>
<event>
10    2  0.1898324E-006  0.1602696E+03  0.7546771E-02  0.1201357E+00
          1   -1    0    0  502    0  0.00000000000E+00  0.00000000000E+00  0.34952986154E+03  0.34952986154E+03  0.00000000000E+00 0. -1.
         -1   -1    0    0    0  501 -0.00000000000E+00 -0.00000000000E+00 -0.18702239351E+03  0.18702239351E+03  0.00000000000E+00 0.  1.
         23    2    1    2    0    0  0.18482155700E+02 -0.98805194363E+02  0.21071721931E+02  0.14369574415E+03  0.10050071099E+03 0.  0.
         23    2    1    2    0    0  0.71718185052E+02  0.26916129192E+02  0.86349022689E+02  0.14704424211E+03  0.91092696421E+02 0.  0.
        -13    1    3    3    0    0  0.29336764187E+02 -0.44975612561E+01 -0.24414136110E+02  0.38430766740E+02  0.00000000000E+00 0.  1.
         13    1    3    3    0    0 -0.10854608487E+02 -0.94307633107E+02  0.45485858041E+02  0.10526497741E+03  0.00000000000E+00 0. -1.
        -13    1    4    4    0    0  0.19311007479E+02  0.54922968822E+02  0.53906714302E+02  0.79343439306E+02  0.00000000000E+00 0.  1.
         13    1    4    4    0    0  0.52407177573E+02 -0.28006839630E+02  0.32442308386E+02  0.67700802806E+02  0.00000000000E+00 0. -1.
         21    1    1    2  502  503 -0.11311964704E+03  0.10872816415E+03  0.97834776086E+02  0.18490406063E+03  0.00000000000E+00 0.  1.
         21    1    1    2  503  501  0.22919306283E+02 -0.36839098978E+02 -0.42748052669E+02  0.60908208158E+02  0.00000000000E+00 0. -1.
<scales pt_clust_5="13000.00000" pt_clust_6="13000.00000" pt_clust_7="13000.00000" pt_clust_8="13000.00000" pt_clust_9="124.84370" pt_clust_10="43.38679"></scales>
<clustering>
<clus scale="   43.387">  2 10  1 -1</clus>
<clus scale="   91.093">  7  8 -1 -1</clus>
<clus scale="  100.501">  5  6 -1 -1</clus>
<clus scale="  120.638">  1  7  2 -1</clus>
<clus scale="  124.844">  1  9  2 -1</clus>
<clus scale="  120.638">  1  5  2 -1</clus>
</clustering>
</event>
<event>
10    2  0.1898324E-006  0.1909562E+03  0.7546771E-02  0.1173109E+00
          1   -1    0    0  502    0  0.00000000000E+00  0.00000000000E+00  0.58270305651E+03  0.58270305651E+03  0.00000000000E+00 0. -1.
         -1   -1    0    0    0  501 -0.00000000000E+00 -0.00000000000E+00 -0.18043278719E+03  0.18043278719E+03  0.00000000000E+00 0.  1.
         23    2    1    2    0    0 -0.17585884052E+03 -0.35100097191E+02  0.50493006245E+02  0.22240144951E+03  0.12146815407E+03 0.  0.
         23    2    1    2    0    0  0.65133330288E+02 -0.54812351889E+02  0.16530209258E+03  0.20678672278E+03  0.90494321788E+02 0.  0.
        -11    1    3    3    0    0 -0.16445919066E+03 -0.39066305881E+01  0.75327436465E+02  0.18093178228E+03  0.00000000000E+00 0. -1.
         11    1    3    3    0    0 -0.11399649861E+02 -0.31193466603E+02 -0.24834430220E+02  0.41469667228E+02  0.00000000000E+00 0.  1.
        -13    1    4    4    0    0  0.54544987195E+02 -0.78639715999E+02  0.11108841342E+03  0.14662876988E+03  0.00000000000E+00 0. -1.
         13    1    4    4    0    0  0.10588343092E+02  0.23827364110E+02  0.54213679161E+02  0.60157952908E+02  0.00000000000E+00 0.  1.
         21    1    1    2  502  503  0.18855478739E+02 -0.20499002322E+02  0.18825323400E+03  0.19030243899E+03  0.00000000000E+00 0. -1.
         21    1    1    2  503  501  0.91870031496E+02  0.11041145140E+03 -0.17780634994E+01  0.14364523242E+03  0.00000000000E+00 0.  1.
<scales pt_clust_5="13000.00000" pt_clust_6="13000.00000" pt_clust_7="13000.00000" pt_clust_8="13000.00000" pt_clust_9="27.85208" pt_clust_10="147.34234"></scales>
<clustering>
<clus scale="   27.852">  1  9  2 -1</clus>
<clus scale="   90.494">  7  8 -1 -1</clus>
<clus scale="  121.468">  5  6 -1 -1</clus>
<clus scale="  133.543">  1  7  2 -1</clus>
<clus scale="  147.342">  2 10  1 -1</clus>
<clus scale="   27.852">  1  5  2 -1</clus>
</clustering>
</event>
<event>
10    2  0.1898324E-006  0.9804537E+02  0.7546771E-02  0.1285654E+00
          2   -1    0    0  502    0  0.00000000000E+00  0.00000000000E+00  0.10818817219E+04  0.10818817219E+04  0.00000000000E+00 0. -1.
         -2   -1    0    0    0  501 -0.00000000000E+00 -0.00000000000E+00 -0.20934918600E+02  0.20934918600E+02  0.00000000000E+00 0.  1.
         23    2    1    2    0    0  0.40638349662E+02  0.18208635878E+02  0.30210214678E+03  0.31870682885E+03  0.91243113629E+02 0.  0.
         23    2    1    2    0    0  0.41750422841E+01 -0.24245122245E+02  0.38014624847E+03  0.39225672631E+03  0.93535619812E+02 0.  0.
        -11    1    4    4    0    0 -0.27785191769E+02 -0.45927119076E+02  0.16042488309E+03  0.16916695972E+03  0.00000000000E+00 0.  1.
         11    1    4    4    0    0  0.31960234053E+02  0.21681996831E+02  0.21972136538E+03  0.22308976658E+03  0.00000000000E+00 0. -1.
        -11    1    3    3    0    0  0.78797800535E+01  0.52810233899E+02  0.17511444087E+03  0.18307397177E+03  0.00000000000E+00 0. -1.
         11    1    3    3    0    0  0.32758569608E+02 -0.34601598021E+02  0.12698770590E+03  0.13563285707E+03  0.00000000000E+00 0.  1.
         21    1    1    2  502  503  0.76793886482E+00 -0.37452292303E+02  0.15393963794E+03  0.15843192879E+03  0.00000000000E+00 0.  1.
         21    1    1    2  503  501 -0.45581330811E+02  0.43488778670E+02  0.22475877010E+03  0.23342115655E+03  0.00000000000E+00 0. -1.
<scales pt_clust_5="13000.00000" pt_clust_6="13000.00000" pt_clust_7="13000.00000" pt_clust_8="13000.00000" pt_clust_9="37.46016" pt_clust_10="56.84528"></scales>
<clustering>
<clus scale="   37.460">  1  9  2 -1</clus>
<clus scale="   56.845">  1 10  2 -1</clus>
<clus scale="   91.243">  7  8 -1 -1</clus>
<clus scale="   93.536">  5  6 -1 -1</clus>
<clus scale="   95.861">  2  7  1 -1</clus>
<clus scale="   37.460">  1  5  2 -1</clus>
</clustering>
</event>
<event>
10    2  0.1898324E-006  0.1741949E+03  0.7546771E-02  0.1185454E+00
         -1   -1    0    0    0  501 -0.00000000000E+00  0.00000000000E+00  0.12666095255E+03  0.12666095255E+03  0.00000000000E+00 0.  1.
          1   -1    0    0  502    0  0.00000000000E+00 -0.00000000000E+00 -0.52300439220E+03  0.52300439220E+03  0.00000000000E+00 0. -1.
         23    2    1    2    0    0 -0.10235364308E+03  0.10405992779E+03 -0.15775477219E+03  0.23355225171E+03  0.91407599831E+02 0.  0.
         23    2    1    2    0    0  0.72125282957E+02  0.59038030405E+02 -0.16097445012E+03  0.20715899752E+03  0.91184051154E+02 0.  0.
        -13    1    3    3    0    0 -0.78708099309E+02  0.31163158229E+02 -0.41417584849E+02  0.94241836051E+02  0.00000000000E+00 0. -1.
         13    1    3    3    0    0 -0.23645543771E+02  0.72896769559E+02 -0.11633718734E+03  0.13931041566E+03  0.00000000000E+00 0.  1.
        -13    1    4    4    0    0  0.19496021824E+02 -0.22986380714E+02 -0.58091927764E+02  0.65445707550E+02  0.00000000000E+00 0.  1.
         13    1    4    4    0    0  0.52629261133E+02  0.82024411120E+02 -0.10288252236E+03  0.14171328997E+03  0.00000000000E+00 0. -1.
         21    1    1    2  502  503  0.77738545229E+01 -0.16568501122E+03 -0.83354039510E+02  0.18563364905E+03  0.00000000000E+00 0.  1.
         21    1    1    2  503  501  0.22454505600E+02  0.25870530252E+01  0.57398221685E+01  0.23320446471E+02  0.00000000000E+00 0. -1.
<scales pt_clust_5="13000.00000" pt_clust_6="13000.00000" pt_clust_7="13000.00000" pt_clust_8="13000.00000" pt_clust_9="148.28526" pt_clust_10="22.60305"></scales>
<clustering>
<clus scale="   22.603">  1 10  2 -1</clus>
<clus scale="   91.184">  7  8 -1 -1</clus>
<clus scale="   91.408">  5  6 -1 -1</clus>
<clus scale="  133.243">  2  7  1 -1</clus>
<clus scale="  148.285">  1  9  2 -1</clus>
<clus scale="  133.243">  2  5  1 -1</clus>
</clustering>
</event>
<event>
10    2  0.1898324E-006  0.1078494E+03  0.7546771E-02  0.1265245E+00
          2   -1    0    0  502    0  0.00000000000E+00  0.00000000000E+00  0.85984334839E+02  0.85984334839E+02  0.00000000000E+00 0. -1.
         -2   -1    0    0    0  501 -0.00000000000E+00 -0.00000000000E+00 -0.37213154100E+03  0.37213154100E+03  0.00000000000E+00 0.  1.
         23    2    1    2    0    0  0.62342157622E+01 -0.26332680862E+02 -0.10322424173E+03  0.14033803797E+03  0.91144090826E+02 0.  0.
         23    2    1    2    0    0 -0.45499077960E+02  0.76478263305E+02 -0.13216148014E+03  0.18433616933E+03  0.92704237428E+02 0.  0.
        -11    1    4    4    0    0 -0.29064639333E+02  0.97128840351E+02 -0.11237790847E+03  0.15135243374E+03  0.00000000000E+00 0.  1.
         11    1    4    4    0    0 -0.16434438627E+02 -0.20650577046E+02 -0.19783571673E+02  0.32983735590E+02  0.00000000000E+00 0. -1.
        -11    1    3    3    0    0  0.40032578869E+02  0.72714910739E+01 -0.22238165526E+02  0.46368286137E+02  0.00000000000E+00 0. -1.
         11    1    3    3    0    0 -0.33798363107E+02 -0.33604171936E+02 -0.80986076208E+02  0.93969751834E+02  0.00000000000E+00 0.  1.
         21    1    1    2  502  503  0.40904354527E+02 -0.11495512948E+02  0.24336808849E+02  0.48965225437E+02  0.00000000000E+00 0. -1.
         21    1    1    2  503  501 -0.16394923291E+01 -0.38650069494E+02 -0.75098293138E+02  0.84476443103E+02  0.00000000000E+00 0.  1.
<scales pt_clust_5="13000.00000" pt_clust_6="13000.00000" pt_clust_7="13000.00000" pt_clust_8="13000.00000" pt_clust_9="42.89229" pt_clust_10="38.68483"></scales>
<clustering>
<clus scale="   38.685">  2 10  1 -1</clus>
<clus scale="   42.892">  1  9  2 -1</clus>
<clus scale="   91.144">  7  8 -1 -1</clus>
<clus scale="   92.704">  5  6 -1 -1</clus>
<clus scale="  106.511">  2  7  1 -1</clus>
<clus scale="   42.892">  1  5  2 -1</clus>
</clustering>
</event>
<event>
10    2  0.1898324E-006  0.1006260E+03  0.7546771E-02  0.1280615E+00
          1   -1    0    0  502    0  0.00000000000E+00  0.00000000000E+00  0.56402405283E+03  0.56402405283E+03  0.00000000000E+00 0. -1.
         -1   -1    0    0    0  501 -0.00000000000E+00 -0.00000000000E+00 -0.78588477274E+02  0.78588477274E+02  0.00000000000E+00 0.  1.
         23    2    1    2    0    0  0.21358582451E+02 -0.17326845255E+01 -0.30703610741E+02  0.96507890553E+02  0.88948693001E+02 0.  0.
         23    2    1    2    0    0 -0.49317691082E+02 -0.80709427988E+00  0.40672693277E+03  0.41997706600E+03  0.92309544852E+02 0.  0.
        -13    1    4    4    0    0 -0.58364670717E+01 -0.40369376701E+02  0.10639258001E+03  0.11394354745E+03  0.00000000000E+00 0.  1.
         13    1    4    4    0    0 -0.43481224010E+02  0.39562282421E+02  0.30033435276E+03  0.30603351855E+03  0.00000000000E+00 0. -1.
        -13    1    3    3    0    0  0.45965332159E+02 -0.21611012376E+01 -0.47948378785E+02  0.66456972149E+02  0.00000000000E+00 0.  1.
         13    1    3    3    0    0 -0.24606749708E+02  0.42841671216E+00  0.17244768044E+02  0.30050918405E+02  0.00000000000E+00 0. -1.
         21    1    1    2  502  503  0.10835696891E+02  0.17222212411E+02  0.99378775249E+02  0.10144041550E+03  0.00000000000E+00 0. -1.
         21    1    1    2  503  501  0.17123411739E+02 -0.14682433606E+02  0.10033478279E+02  0.24687158049E+02  0.00000000000E+00 0. -1.
<scales pt_clust_5="13000.00000" pt_clust_6="13000.00000" pt_clust_7="13000.00000" pt_clust_8="13000.00000" pt_clust_9="20.34741" pt_clust_10="22.45716"></scales>
<clustering>
<clus scale="   20.347">  1  9  2 -1</clus>
<clus scale="   22.457">  2 10  1 -1</clus>
<clus scale="   88.949">  7  8 -1 -1</clus>
<clus scale="   92.310">  5  6 -1 -1</clus>
<clus scale="   97.552">  2  7  1 -1</clus>
<clus scale="   20.347">  1  5  2 -1</clus>
</clustering>
</event>
<event>
10    2  0.1898324E-006  0.1053229E+03  0.7546771E-02  0.1269596E+00
          3   -1    0    0  502    0  0.00000000000E+00  0.00000000000E+00  0.63393477968E+02  0.63393477968E+02  0.00000000000E+00 0. -1.
         -3   -1    0    0    0  501 -0.00000000000E+00 -0.00000000000E+00 -0.34405812441E+03  0.34405812441E+03  0.00000000000E+00 0.  1.
         23    2    1    2    0    0  0.63674122500E+02 -0.10434244986E+02 -0.15472170820E+03  0.19078565547E+03  0.91088374657E+02 0.  0.
         23    2    1    2    0    0 -0.21156573943E+02  0.42635500235E+02 -0.76189468798E+02  0.12774781451E+03  0.90825560586E+02 0.  0.
        -11    1    3    3    0    0  0.55271635493E+02 -0.40824987278E+02 -0.60935608381E+02  0.91841067312E+02  0.00000000000E+00 0. -1.
         11    1    3    3    0    0  0.84024870074E+01  0.30390742292E+02 -0.93786099823E+02  0.98944588154E+02  0.00000000000E+00 0.  1.
        -11    1    4    4    0    0 -0.34083815440E+02  0.65235470655E+02 -0.41898573592E+02  0.84692759877E+02  0.00000000000E+00 0.  1.
         11    1    4    4    0    0  0.12927241497E+02 -0.22599970420E+02 -0.34290895206E+02  0.43055054636E+02  0.00000000000E+00 0. -1.
         21    1    1    2  502  503 -0.35054131059E+02  0.24410082131E+01 -0.11982445253E+02  0.37125861871E+02  0.00000000000E+00 0.  1.
         21    1    1    2  503  501 -0.74634174976E+01 -0.34642263462E+02 -0.37771024190E+02  0.51792270532E+02  0.00000000000E+00 0. -1.
<scales pt_clust_5="13000.00000" pt_clust_6="13000.00000" pt_clust_7="13000.00000" pt_clust_8="13000.00000" pt_clust_9="35.13902" pt_clust_10="36.44358"></scales>
<clustering>
<clus scale="   35.139">  1  9  2 -1</clus>
<clus scale="   36.444">  2 10  1 -1</clus>
<clus scale="   90.826">  7  8 -1 -1</clus>
<clus scale="   91.088">  5  6 -1 -1</clus>
<clus scale="  105.096">  1  7  2 -1</clus>
<clus scale="   35.139">  1  5  2 -1</clus>
</clustering>
</event>
<event>
10    2  0.1898324E-006  0.2373545E+03  0.7546771E-02  0.1121774E+00
         -1   -1    0    0    0  501 -0.00000000000E+00  0.00000000000E+00  0.26657694942E+03  0.26657694942E+03  0.00000000000E+00 0.  1.
          1   -1    0    0  502    0  0.00000000000E+00 -0.00000000000E+00 -0.35525736021E+03  0.35525736021E+03  0.00000000000E+00 0. -1.
         23    2    1    2    0    0 -0.78511676705E+02 -0.19580452962E+03  0.13698442786E+02  0.23037631618E+03  0.91553823096E+02 0.  0.
         23    2    1    2    0    0 -0.21292046719E+02  0.23129643861E+03 -0.10213945255E+03  0.27081759761E+03  0.94648347270E+02 0.  0.
        -11    1    3    3    0    0 -0.78231033389E+02 -0.16910617421E+03  0.42491868517E+02  0.19110874295E+03  0.00000000000E+00 0.  1.
         11    1    3    3    0    0 -0.28064331583E+00 -0.26698355407E+02 -0.28793425731E+02  0.39267573231E+02  0.00000000000E+00 0. -1.
        -13    1    4    4    0    0 -0.41095418071E+02  0.36355465527E+02 -0.21618336859E+02  0.58973771701E+02  0.00000000000E+00 0. -1.
         13    1    4    4    0    0  0.19803371352E+02  0.19494097309E+03 -0.80521115688E+02  0.21184382591E+03  0.00000000000E+00 0.  1.
         21    1    1    2  502  503  0.73054166104E+02 -0.50675577396E+02 -0.68724455073E+01  0.89174861013E+02  0.00000000000E+00 0.  1.
         21    1    1    2  503  501  0.26749557321E+02  0.15183668401E+02  0.66330444766E+01  0.31465534827E+02  0.00000000000E+00 0.  1.
<scales pt_clust_5="13000.00000" pt_clust_6="13000.00000" pt_clust_7="13000.00000" pt_clust_8="13000.00000" pt_clust_9="91.24140" pt_clust_10="30.75846"></scales>
<clustering>
<clus scale="   30.758">  1 10  2 -1</clus>
<clus scale="   91.241">  1  9  2 -1</clus>
<clus scale="   91.554">  5  6 -1 -1</clus>
<clus scale="   94.648">  7  8 -1 -1</clus>
<clus scale="  236.138">  1  5  2 -1</clus>
<clus scale="  237.354">  2  5  1 -1</clus>
</clustering>
</event>
<event>
10    2  0.1898324E-006  0.1020011E+03  0.7546771E-02  0.1278026E+00
          2   -1    0    0  502    0  0.00000000000E+00  0.00000000000E+00  0.42981514247E+03  0.42981514247E+03  0.00000000000E+00 0. -1.
         -2   -1    0    0    0  501 -0.00000000000E+00 -0.00000000000E+00 -0.89951308945E+02  0.89951308945E+02  0.00000000000E+00 0.  1.
         23    2    1    2    0    0 -0.37189330078E+02  0.24265378917E+02  0.49023311028E+02  0.11111685805E+03  0.89285028050E+02 0.  0.
         23    2    1    2    0    0 -0.12612235387E+01 -0.43791426911E+02  0.15778100329E+03  0.18843735791E+03  0.93244373022E+02 0.  0.
        -11    1    4    4    0    0  0.27936593334E+02 -0.23382224458E+02  0.11983466094E+02  0.38350816514E+02  0.00000000000E+00 0.  1.
         11    1    4    4    0    0 -0.29197816873E+02 -0.20409202453E+02  0.14579753720E+03  0.15008654139E+03  0.00000000000E+00 0. -1.
        -11    1    3    3    0    0 -0.56155072335E+02 -0.13097002539E+02  0.25318789028E+02  0.62975905729E+02  0.00000000000E+00 0. -1.
         11    1    3    3    0    0  0.18965742258E+02  0.37362381456E+02  0.23704522000E+02  0.48140952324E+02  0.00000000000E+00 0.  1.
         21    1    1    2  502  503  0.57973322459E+02  0.28085662892E+02  0.16763917420E+03  0.17959009801E+03  0.00000000000E+00 0. -1.
         21    1    1    2  503  501 -0.19522768842E+02 -0.85596148979E+01 -0.34579654998E+02  0.40622137440E+02  0.00000000000E+00 0.  1.
<scales pt_clust_5="13000.00000" pt_clust_6="13000.00000" pt_clust_7="13000.00000" pt_clust_8="13000.00000" pt_clust_9="61.98689" pt_clust_10="21.31679"></scales>
<clustering>
<clus scale="   21.317">  2 10  1 -1</clus>
<clus scale="   61.987">  1  9  2 -1</clus>
<clus scale="   89.285">  7  8 -1 -1</clus>
<clus scale="   93.244">  5  6 -1 -1</clus>
<clus scale="   98.395">  2  7  1 -1</clus>
<clus scale="   61.987">  1  5  2 -1</clus>
</clustering>
</event>
<event>
10    2  0.1898324E-006  0.1477108E+03  0.7546771E-02  0.1205099E+00
          2   -1    0    0  502    0  0.00000000000E+00  0.00000000000E+00  0.31586999034E+03  0.31586999034E+03  0.00000000000E+00 0. -1.
         -2   -1    0    0    0  501 -0.00000000000E+00 -0.00000000000E+00 -0.17167443894E+03  0.17167443894E+03  0.00000000000E+00 0.  1.
         23    2    1    2    0    0 -0.97993120190E+02  0.45424240115E+02  0.83797260278E+01  0.14048431452E+03  0.89440536802E+02 0.  0.
         23    2    1    2    0    0  0.10329623040E+03 -0.54114475086E+02  0.83249162324E+02  0.17362291590E+03  0.98061237342E+02 0.  0.
        -13    1    4    4    0    0  0.52438129916E+02 -0.40616690557E+02 -0.94821591106E+01  0.67002868314E+02  0.00000000000E+00 0.  1.
         13    1    4    4    0    0  0.50858100479E+02 -0.13497784530E+02  0.92731321435E+02  0.10662004758E+03  0.00000000000E+00 0. -1.
        -13    1    3    3    0    0 -0.33931787163E+02 -0.25968866534E+02 -0.71237443489E+01  0.43318540403E+02  0.00000000000E+00 0.  1.
         13    1    3    3    0    0 -0.64061333027E+02  0.71393106649E+02  0.15503470377E+02  0.97165774117E+02  0.00000000000E+00 0. -1.
         21    1    1    2  502  503 -0.19246056993E+02 -0.11964478661E+02  0.10921942394E+03  0.11154569479E+03  0.00000000000E+00 0. -1.
         21    1    1    2  503  501  0.13942946787E+02  0.20654713632E+02 -0.56652760887E+02  0.61891504074E+02  0.00000000000E+00 0.  1.
<scales pt_clust_5="13000.00000" pt_clust_6="13000.00000" pt_clust_7="13000.00000" pt_clust_8="13000.00000" pt_clust_9="22.66185" pt_clust_10="24.65694"></scales>
<clustering>
<clus scale="   22.662">  1  9  2 -1</clus>
<clus scale="   24.657">  2 10  1 -1</clus>
<clus scale="   89.441">  7  8 -1 -1</clus>
<clus scale="   98.061">  5  6 -1 -1</clus>
<clus scale="  142.134">  2  7  1 -1</clus>
<clus scale="   22.662">  1  5  2 -1</clus>
</clustering>
</event>
<event>
10    2  0.1898324E-006  0.1009254E+03  0.7546771E-02  0.1278907E+00
          1   -1    0    0  502    0  0.00000000000E+00  0.00000000000E+00  0.10518139405E+03  0.10518139405E+03  0.00000000000E+00 0. -1.
         -1   -1    0    0    0  501 -0.00000000000E+00 -0.00000000000E+00 -0.39909405479E+03  0.39909405479E+03  0.00000000000E+00 0.  1.
         23    2    1    2    0    0  0.20415004479E+02  0.60830016118E+01 -0.11092425496E+03  0.14590223653E+03  0.92355275808E+02 0.  0.
         23    2    1    2    0    0 -0.58522578188E+02 -0.20925448298E+02  0.22593073294E+02  0.11266372597E+03  0.91213494857E+02 0.  0.
        -11    1    4    4    0    0  0.90456740213E+01 -0.18691107746E+02  0.38019827354E+02  0.43320768683E+02  0.00000000000E+00 0.  1.
         11    1    4    4    0    0 -0.67568252210E+02 -0.22343405521E+01 -0.15426754060E+02  0.69342957286E+02  0.00000000000E+00 0. -1.
        -13    1    3    3    0    0 -0.21843905289E+02 -0.28962843529E+02 -0.25443487032E+02  0.44309971067E+02  0.00000000000E+00 0. -1.
         13    1    3    3    0    0  0.42258909769E+02  0.35045845141E+02 -0.85480767925E+02  0.10159226546E+03  0.00000000000E+00 0.  1.
         21    1    1    2  502  503  0.28623035263E+02 -0.12461678144E+02  0.63151973431E+01  0.31850483313E+02  0.00000000000E+00 0.  1.
         21    1    1    2  503  501  0.94845384462E+01  0.27304124830E+02 -0.21189667642E+03  0.21385900303E+03  0.00000000000E+00 0.  1.
<scales pt_clust_5="13000.00000" pt_clust_6="13000.00000" pt_clust_7="13000.00000" pt_clust_8="13000.00000" pt_clust_9="31.12985" pt_clust_10="28.90453"></scales>
<clustering>
<clus scale="   28.905">  2 10  1 -1</clus>
<clus scale="   31.130">  1  9  2 -1</clus>
<clus scale="   91.213">  5  6 -1 -1</clus>
<clus scale="   92.355">  7  8 -1 -1</clus>
<clus scale="   99.882">  1  5  2 -1</clus>
<clus scale="   31.130">  1  5  2 -1</clus>
</clustering>
</event>
<event>
10    2  0.1898324E-006  0.1467512E+03  0.7546771E-02  0.1225367E+00
          1   -1    0    0  502    0  0.00000000000E+00  0.00000000000E+00  0.10237521409E+04  0.10237521409E+04  0.00000000000E+00 0. -1.
         -1   -1    0    0    0  501 -0.00000000000E+00 -0.00000000000E+00 -0.86718163704E+02  0.86718163704E+02  0.00000000000E+00 0.  1.
         23    2    1    2    0    0 -0.11090537174E+01 -0.18633036903E+02  0.34960471250E+02  0.98058954253E+02  0.89693388245E+02 0.  0.
         23    2    1    2    0    0 -0.64338641970E+01  0.14614893211E+03  0.34014510518E+03  0.38092546511E+03  0.89468499629E+02 0.  0.
        -11    1    4    4    0    0 -0.32030091658E+02  0.11209918827E+02  0.74968725890E+02  0.82291548249E+02  0.00000000000E+00 0. -1.
         11    1    4    4    0    0  0.25596227461E+02  0.13493901328E+03  0.26517637930E+03  0.29863391687E+03  0.00000000000E+00 0.  1.
        -13    1    3    3    0    0 -0.22831160363E+02  0.29937479434E+02  0.20741426454E+02  0.42985129170E+02  0.00000000000E+00 0.  1.
         13    1    3    3    0    0  0.21722106646E+02 -0.48570516337E+02  0.14219044796E+02  0.55073825083E+02  0.00000000000E+00 0. -1.
         21    1    1    2  502  503 -0.38193204411E+01 -0.10897189305E+03  0.58771973057E+03  0.59774906305E+03  0.00000000000E+00 0. -1.
         21    1    1    2  503  501  0.11362238355E+02 -0.18544002163E+02 -0.25791329816E+02  0.33736822173E+02  0.00000000000E+00 0. -1.
<scales pt_clust_5="13000.00000" pt_clust_6="13000.00000" pt_clust_7="13000.00000" pt_clust_8="13000.00000" pt_clust_9="116.32413" pt_clust_10="21.74811"></scales>
<clustering>
<clus scale="   21.748">  2 10  1 -1</clus>
<clus scale="   89.468">  5  6 -1 -1</clus>
<clus scale="   89.693">  7  8 -1 -1</clus>
<clus scale="   94.379">  2  7  1 -1</clus>
<clus scale="  116.324">  1  9  2 -1</clus>
<clus scale="  116.324">  1  5  2 -1</clus>
</clustering>
</event>
<event>
10    2  0.1898324E-006  0.3673316E+03  0.7546771E-02  0.1072566E+00
          1   -1    0    0  502    0  0.00000000000E+00  0.00000000000E+00  0.43690566895E+03  0.43690566895E+03  0.00000000000E+00 0. -1.
         -1   -1    0    0    0  501 -0.00000000000E+00 -0.00000000000E+00 -0.64908840532E+03  0.64908840532E+03  0.00000000000E+00 0.  1.
         23    2    1    2    0    0  0.81664319033E+02  0.20257169582E+03 -0.15751456799E+03  0.28082858561E+03  0.79683765070E+02 0.  0.
         23    2    1    2    0    0 -0.23708743487E+03 -0.42246369228E+03 -0.31995288550E+02  0.49464941236E+03  0.94701212182E+02 0.  0.
        -11    1    4    4    0    0 -0.21621697379E+03 -0.35362699038E+03 -0.57226301208E+02  0.41842165052E+03  0.00000000000E+00 0. -1.
         11    1    4    4    0    0 -0.20870461086E+02 -0.68836701900E+02  0.25231012658E+02  0.76227761834E+02  0.00000000000E+00 0.  1.
        -11    1    3    3    0    0 -0.41145855742E+01  0.79040098008E+02 -0.76170564443E+02  0.10984635540E+03  0.00000000000E+00 0. -1.
         11    1    3    3    0    0  0.85778904607E+02  0.12353159781E+03 -0.81344003548E+02  0.17098223021E+03  0.00000000000E+00 0.  1.
         21    1    1    2  502  503  0.11568940141E+02 -0.23847605326E+02 -0.47188909501E+01  0.26922417937E+02  0.00000000000E+00 0. -1.
         21    1    1    2  503  501  0.14385417570E+03  0.24373960178E+03 -0.17953988879E+02  0.28359365836E+03  0.00000000000E+00 0.  1.
<scales pt_clust_5="13000.00000" pt_clust_6="13000.00000" pt_clust_7="13000.00000" pt_clust_8="13000.00000" pt_clust_9="26.50563" pt_clust_10="354.91432"></scales>
<clustering>
<clus scale="   26.506">  1  9  2 -1</clus>
<clus scale="   79.684">  7  8 -1 -1</clus>
<clus scale="   94.701">  5  6 -1 -1</clus>
<clus scale="  230.094">  2  7  1 -1</clus>
<clus scale="  354.914">  1 10  2 -1</clus>
<clus scale="   26.506">  1  5  2 -1</clus>
</clustering>
</event>
<event>
10    2  0.1898324E-006  0.1070602E+03  0.7546771E-02  0.1266523E+00
          1   -1    0    0  502    0  0.00000000000E+00  0.00000000000E+00  0.10731915713E+03  0.10731915713E+03  0.00000000000E+00 0. -1.
         -1   -1    0    0    0  501 -0.00000000000E+00 -0.00000000000E+00 -0.43394907834E+03  0.43394907834E+03  0.00000000000E+00 0.  1.
         23    2    1    2    0    0  0.34876988051E+02  0.42664115825E+02 -0.18648108104E+03  0.21433891230E+03  0.90162878532E+02 0.  0.
         23    2    1    2    0    0  0.20344615267E+02 -0.74321022814E+02  0.61111289887E+01  0.11952338786E+03  0.91164557503E+02 0.  0.
        -13    1    4    4    0    0  0.44312182288E+02 -0.10756083252E+02 -0.15618073088E+02  0.48199450547E+02  0.00000000000E+00 0.  1.
         13    1    4    4    0    0 -0.23967567021E+02 -0.63564939562E+02  0.21729202077E+02  0.71323937309E+02  0.00000000000E+00 0. -1.
        -13    1    3    3    0    0  0.49173707174E+02  0.85924022387E+01 -0.42090063419E+02  0.65295147538E+02  0.00000000000E+00 0. -1.
         13    1    3    3    0    0 -0.14296719123E+02  0.34071713586E+02 -0.14439101762E+03  0.14904376476E+03  0.00000000000E+00 0.  1.
         21    1    1    2  502  503 -0.12753826101E+02  0.19828100446E+02  0.22737175450E+02  0.32753515765E+02  0.00000000000E+00 0.  1.
         21    1    1    2  503  501 -0.42467777216E+02  0.11828806543E+02 -0.16899714461E+03  0.17465241954E+03  0.00000000000E+00 0.  1.
<scales pt_clust_5="13000.00000" pt_clust_6="13000.00000" pt_clust_7="13000.00000" pt_clust_8="13000.00000" pt_clust_9="23.57570" pt_clust_10="44.71349"></scales>
<clustering>
<clus scale="   23.576">  1  9  2 -1</clus>
<clus scale="   44.713">  2 10  1 -1</clus>
<clus scale="   90.163">  7  8 -1 -1</clus>
<clus scale="   91.165">  5  6 -1 -1</clus>
<clus scale="  106.209">  2  7  1 -1</clus>
<clus scale="   23.576">  1  5  2 -1</clus>
</clustering>
</event>
<event>
10    2  0.1898324E-006  0.3291796E+03  0.7546771E-02  0.1071881E+00
         -1   -1    0    0    0  501 -0.00000000000E+00  0.00000000000E+00  0.13331882829E+03  0.13331882829E+03  0.00000000000E+00 0.  1.
          1   -1    0    0  502    0  0.00000000000E+00 -0.00000000000E+00 -0.12500815349E+04  0.12500815349E+04  0.00000000000E+00 0. -1.
         23    2    1    2    0    0  0.30407355226E+03 -0.20204861052E+01 -0.33064770519E+03  0.45950050082E+03  0.96685044119E+02 0.  0.
         23    2    1    2    0    0 -0.30332048621E+03  0.29657057336E+01 -0.75889861263E+03  0.82433228849E+03  0.10763133754E+03 0.  0.
        -11    1    3    3    0    0  0.38711772852E+02  0.32511706884E+02 -0.40353359119E+02  0.64683893158E+02  0.00000000000E+00 0. -1.
         11    1    3    3    0    0  0.26536177941E+03 -0.34532192989E+02 -0.29029434607E+03  0.39481660766E+03  0.00000000000E+00 0.  1.
        -13    1    4    4    0    0 -0.19063705918E+03  0.81299513650E+01 -0.59894424465E+03  0.62860384396E+03  0.00000000000E+00 0. -1.
         13    1    4    4    0    0 -0.11268342703E+03 -0.51642456314E+01 -0.15995436798E+03  0.19572844453E+03  0.00000000000E+00 0.  1.
         21    1    1    2  502  503 -0.26104524985E+02  0.11450439652E+02 -0.53744814208E+02  0.60836369445E+02  0.00000000000E+00 0.  1.
         21    1    1    2  503  501  0.25351458931E+02 -0.12395659280E+02  0.26528425449E+02  0.38731204419E+02  0.00000000000E+00 0.  1.
<scales pt_clust_5="13000.00000" pt_clust_6="13000.00000" pt_clust_7="13000.00000" pt_clust_8="13000.00000" pt_clust_9="27.51254" pt_clust_10="28.21965"></scales>
<clustering>
<clus scale="   28.220">  1 10  2 -1</clus>
<clus scale="   27.513">  2  9  1 -1</clus>
<clus scale="   96.685">  5  6 -1 -1</clus>
<clus scale="  107.631">  7  8 -1 -1</clus>
<clus scale="  325.765">  1  5  2 -1</clus>
<clus scale="   27.513">  2  5  1 -1</clus>
</clustering>
</event>
<event>
10    2  0.1898324E-006  0.1082449E+03  0.7546771E-02  0.1264102E+00
         -2   -1    0    0    0  501 -0.00000000000E+00  0.00000000000E+00  0.30225895842E+03  0.30225895842E+03  0.00000000000E+00 0.  1.
          2   -1    0    0  502    0  0.00000000000E+00 -0.00000000000E+00 -0.81068612202E+02  0.81068612202E+02  0.00000000000E+00 0. -1.
         23    2    1    2    0    0 -0.76219383472E+01 -0.82385609728E+02  0.14972455016E+03  0.19316599694E+03  0.89722788725E+02 0.  0.
         23    2    1    2    0    0 -0.20946753057E+02  0.31554042286E+02  0.15471960961E+02  0.99179774448E+02  0.90348337203E+02 0.  0.
        -13    1    3    3    0    0  0.35419802375E+02 -0.57656840351E+02  0.59126008692E+02  0.89859660268E+02  0.00000000000E+00 0. -1.
         13    1    3    3    0    0 -0.43041740722E+02 -0.24728769377E+02  0.90598541473E+02  0.10330633667E+03  0.00000000000E+00 0.  1.
        -13    1    4    4    0    0 -0.15590223011E+02 -0.25306141114E+02 -0.16223441890E+02  0.33862307930E+02  0.00000000000E+00 0. -1.
         13    1    4    4    0    0 -0.53565300452E+01  0.56860183399E+02  0.31695402851E+02  0.65317466517E+02  0.00000000000E+00 0.  1.
         21    1    1    2  502  503  0.17185502211E+02  0.33589636070E+02  0.77755082420E+01  0.38523546903E+02  0.00000000000E+00 0. -1.
         21    1    1    2  503  501  0.11383189193E+02  0.17241931372E+02  0.48218326853E+02  0.52458252337E+02  0.00000000000E+00 0.  1.
<scales pt_clust_5="13000.00000" pt_clust_6="13000.00000" pt_clust_7="13000.00000" pt_clust_8="13000.00000" pt_clust_9="39.61819" pt_clust_10="20.66062"></scales>
<clustering>
<clus scale="   20.661">  1 10  2 -1</clus>
<clus scale="   39.618">  2  9  1 -1</clus>
<clus scale="   89.723">  5  6 -1 -1</clus>
<clus scale="   90.348">  7  8 -1 -1</clus>
<clus scale="  107.723">  1  5  2 -1</clus>
<clus scale="   39.618">  2  5  1 -1</clus>
</clustering>
</event>
<event>
10    2  0.1898324E-006  0.1105525E+03  0.7546771E-02  0.1263396E+00
          2   -1    0    0  502    0  0.00000000000E+00  0.00000000000E+00  0.35320684765E+03  0.35320684765E+03  0.00000000000E+00 0. -1.
         -2   -1    0    0    0  501 -0.00000000000E+00 -0.00000000000E+00 -0.41183929728E+03  0.41183929728E+03  0.00000000000E+00 0.  1.
         23    2    1    2    0    0 -0.33447786026E+02 -0.33187340074E+02  0.18432232433E+02  0.97325598711E+02  0.83140670196E+02 0.  0.
         23    2    1    2    0    0 -0.10112775140E+01  0.57486557785E+02  0.16566012873E+03  0.19842456927E+03  0.92861749019E+02 0.  0.
        -11    1    3    3    0    0 -0.18411012859E+02 -0.58078216443E+02  0.27526908262E+02  0.66856378141E+02  0.00000000000E+00 0.  1.
         11    1    3    3    0    0 -0.15036773167E+02  0.24890876369E+02 -0.90946758292E+01  0.30469220570E+02  0.00000000000E+00 0. -1.
        -13    1    4    4    0    0  0.43110413195E+01 -0.25593535307E+02  0.40812905677E+02  0.48366387053E+02  0.00000000000E+00 0.  1.
         13    1    4    4    0    0 -0.53223188335E+01  0.83080093093E+02  0.12484722305E+03  0.15005818222E+03  0.00000000000E+00 0. -1.
         21    1    1    2  502  503  0.12308910119E+02  0.22338924183E+02  0.10994608326E+03  0.11286575223E+03  0.00000000000E+00 0. -1.
         21    1    1    2  503  501  0.22150153421E+02 -0.46638141895E+02 -0.35267089406E+03  0.35643022472E+03  0.00000000000E+00 0.  1.
<scales pt_clust_5="13000.00000" pt_clust_6="13000.00000" pt_clust_7="13000.00000" pt_clust_8="13000.00000" pt_clust_9="25.50562" pt_clust_10="51.51530"></scales>
<clustering>
<clus scale="   25.506">  1  9  2 -1</clus>
<clus scale="   51.515">  2 10  1 -1</clus>
<clus scale="   83.141">  5  6 -1 -1</clus>
<clus scale="   92.862">  7  8 -1 -1</clus>
<clus scale="  102.523">  2  5  1 -1</clus>
<clus scale="   25.506">  1  5  2 -1</clus>
</clustering>
</event>
<event>
10    2  0.1898324E-006  0.1106497E+03  0.7546771E-02  0.1261317E+00
          2   -1    0    0  502    0  0.00000000000E+00  0.00000000000E+00  0.33253807331E+03  0.33253807331E+03  0.00000000000E+00 0. -1.
         -2   -1    0    0    0  501 -0.00000000000E+00 -0.00000000000E+00 -0.32024338905E+03  0.32024338905E+03  0.00000000000E+00 0.  1.
         23    2    1    2    0    0  0.18099773628E+02  0.63115251430E+02 -0.11442979284E+03  0.16220191667E+03  0.94361790538E+02 0.  0.
         23    2    1    2    0    0 -0.32160919145E+02 -0.56029461230E+02 -0.12336366953E+02  0.11103522693E+03  0.89459546299E+02 0.  0.
        -13    1    4    4    0    0 -0.14575731253E+01 -0.74295005747E+02 -0.44052813666E+01  0.74439766941E+02  0.00000000000E+00 0.  1.
         13    1    4    4    0    0 -0.30703346020E+02  0.18265544516E+02 -0.79310855865E+01  0.36595459990E+02  0.00000000000E+00 0. -1.
        -13    1    3    3    0    0  0.19129171484E+02 -0.21007272084E+02 -0.44537877962E+02  0.52828526910E+02  0.00000000000E+00 0.  1.
         13    1    3    3    0    0 -0.10293978563E+01  0.84122523514E+02 -0.69891914880E+02  0.10937338976E+03  0.00000000000E+00 0. -1.
         21    1    1    2  502  503  0.31231925658E+02  0.65566436254E+01  0.25730862866E+03  0.25928006699E+03  0.00000000000E+00 0. -1.
         21    1    1    2  503  501 -0.17170780140E+02 -0.13642433825E+02 -0.11824778460E+03  0.12026425177E+03  0.00000000000E+00 0.  1.
<scales pt_clust_5="13000.00000" pt_clust_6="13000.00000" pt_clust_7="13000.00000" pt_clust_8="13000.00000" pt_clust_9="31.81661" pt_clust_10="21.93061"></scales>
<clustering>
<clus scale="   21.931">  2 10  1 -1</clus>
<clus scale="   31.817">  1  9  2 -1</clus>
<clus scale="   89.460">  5  6 -1 -1</clus>
<clus scale="   94.362">  7  8 -1 -1</clus>
<clus scale="  106.500">  1  5  2 -1</clus>
<clus scale="   31.817">  1  5  2 -1</clus>
</clustering>
</event>
<event>
10    2  0.1898324E-006  0.1140406E+03  0.7546771E-02  0.1255018E+00
          1   -1    0    0  502    0  0.00000000000E+00  0.00000000000E+00  0.55681958941E+02  0.55681958941E+02  0.00000000000E+00 0. -1.
         -1   -1    0    0    0  501 -0.00000000000E+00 -0.00000000000E+00 -0.74412257506E+03  0.74412257506E+03  0.00000000000E+00 0.  1.
         23    2    1    2    0    0 -0.83415060249E+02 -0.71172573970E+02 -0.54083286372E+03  0.56006112285E+03  0.95627753743E+02 0.  0.
         23    2    1    2    0    0  0.20915468554E+02  0.28913008834E+02 -0.53621479862E+02  0.11144188517E+03  0.90942903860E+02 0.  0.
        -11    1    3    3    0    0 -0.10504808862E+03 -0.55781553449E+02 -0.44372831284E+03  0.45939253177E+03  0.00000000000E+00 0.  1.
         11    1    3    3    0    0  0.21633028367E+02 -0.15391020521E+02 -0.97104550874E+02  0.10066859108E+03  0.00000000000E+00 0. -1.
        -13    1    4    4    0    0 -0.28750536113E+02 -0.30183391402E+01 -0.42435393177E+02  0.51346531451E+02  0.00000000000E+00 0.  1.
         13    1    4    4    0    0  0.49666004667E+02  0.31931347974E+02 -0.11186086686E+02  0.60095353717E+02  0.00000000000E+00 0. -1.
         21    1    1    2  502  503  0.30628141228E+02  0.76902608043E+01 -0.11985890165E+02  0.33776984907E+02  0.00000000000E+00 0. -1.
         21    1    1    2  503  501  0.31871450466E+02  0.34569304332E+02 -0.82000382370E+02  0.94524541076E+02  0.00000000000E+00 0. -1.
<scales pt_clust_5="13000.00000" pt_clust_6="13000.00000" pt_clust_7="13000.00000" pt_clust_8="13000.00000" pt_clust_9="31.57884" pt_clust_10="50.77046"></scales>
<clustering>
<clus scale="   31.579">  1  9  2 -1</clus>
<clus scale="   50.770">  2 10  1 -1</clus>
<clus scale="   90.943">  7  8 -1 -1</clus>
<clus scale="   95.628">  5  6 -1 -1</clus>
<clus scale="  110.142">  1  7  2 -1</clus>
<clus scale="   31.579">  1  5  2 -1</clus>
</clustering>
</event>
<event>
10    2  0.1898324E-006  0.1419412E+03  0.7546771E-02  0.1234126E+00
          1   -1    0    0  502    0  0.00000000000E+00  0.00000000000E+00  0.59001132080E+03  0.59001132080E+03  0.00000000000E+00 0. -1.
         -1   -1    0    0    0  501 -0.00000000000E+00 -0.00000000000E+00 -0.73299115925E+02  0.73299115925E+02  0.00000000000E+00 0.  1.
         23    2    1    2    0    0  0.93437368293E+02  0.67958271503E+02  0.91746650018E+02  0.17358836766E+03  0.91469148564E+02 0.  0.
         23    2    1    2    0    0 -0.27987377095E+02 -0.40426053442E+02  0.25387235508E+03  0.27093968693E+03  0.80867683311E+02 0.  0.
        -11    1    3    3    0    0  0.56133617562E+02  0.61282296409E+02  0.10280021124E+02  0.83738770639E+02  0.00000000000E+00 0.  1.
         11    1    3    3    0    0  0.37303750731E+02  0.66759750940E+01  0.81466628894E+02  0.89849597024E+02  0.00000000000E+00 0. -1.
        -13    1    4    4    0    0  0.15485866412E+02 -0.41160702899E+02  0.17932928713E+03  0.18464292227E+03  0.00000000000E+00 0. -1.
         13    1    4    4    0    0 -0.43473243507E+02  0.73464945682E+00  0.74543067954E+02  0.86296764660E+02  0.00000000000E+00 0.  1.
         21    1    1    2  502  503  0.18572183619E+02  0.29085338053E+02  0.52184630123E+02  0.62562916453E+02  0.00000000000E+00 0.  1.
         21    1    1    2  503  501 -0.84022174817E+02 -0.56617556114E+02  0.11890856966E+03  0.15621946569E+03  0.00000000000E+00 0. -1.
<scales pt_clust_5="13000.00000" pt_clust_6="13000.00000" pt_clust_7="13000.00000" pt_clust_8="13000.00000" pt_clust_9="34.50917" pt_clust_10="108.53899"></scales>
<clustering>
<clus scale="   34.509">  1  9  2 -1</clus>
<clus scale="   80.868">  7  8 -1 -1</clus>
<clus scale="   87.037">  1  7  2 -1</clus>
<clus scale="   91.469">  5  6 -1 -1</clus>
<clus scale="  108.539">  1 10  2 -1</clus>
<clus scale="   34.509">  1  5  2 -1</clus>
</clustering>
</event>
<event>
10    2  0.1898324E-006  0.9354437E+02  0.7546771E-02  0.1295562E+00
         -2   -1    0    0    0  501 -0.00000000000E+00  0.00000000000E+00  0.15469891743E+03  0.15469891743E+03  0.00000000000E+00 0.  1.
          2   -1    0    0  502    0  0.00000000000E+00 -0.00000000000E+00 -0.26472902227E+03  0.26472902227E+03  0.00000000000E+00 0. -1.
         23    2    1    2    0    0 -0.20735951022E+02  0.21192945303E+01 -0.57140131122E+02  0.10987308934E+03  0.91502077033E+02 0.  0.
         23    2    1    2    0    0 -0.24897134835E+02  0.18662194994E+02 -0.14145483807E+03  0.17231533085E+03  0.93353935037E+02 0.  0.
        -11    1    3    3    0    0  0.24628295006E+02 -0.29385426598E+02 -0.19317903577E+02  0.42932943178E+02  0.00000000000E+00 0.  1.
         11    1    3    3    0    0 -0.45364246029E+02  0.31504721128E+02 -0.37822227546E+02  0.66940146158E+02  0.00000000000E+00 0. -1.
        -13    1    4    4    0    0 -0.59417206671E+02  0.12059501353E+02 -0.10765896655E+03  0.12355682539E+03  0.00000000000E+00 0. -1.
         13    1    4    4    0    0  0.34520071836E+02  0.66026936409E+01 -0.33795871520E+02  0.48758505460E+02  0.00000000000E+00 0.  1.
         21    1    1    2  502  503  0.93214217858E+01 -0.24106712842E+02 -0.13284032874E+02  0.29060076351E+02  0.00000000000E+00 0.  1.
         21    1    1    2  503  501  0.36311664072E+02  0.33252233173E+01  0.10184889722E+03  0.10817944316E+03  0.00000000000E+00 0.  1.
<scales pt_clust_5="13000.00000" pt_clust_6="13000.00000" pt_clust_7="13000.00000" pt_clust_8="13000.00000" pt_clust_9="25.84613" pt_clust_10="36.55709"></scales>
<clustering>
<clus scale="   25.846">  2  9  1 -1</clus>
<clus scale="   36.557">  1 10  2 -1</clus>
<clus scale="   91.502">  5  6 -1 -1</clus>
<clus scale="   91.696">  1  5  2 -1</clus>
<clus scale="   93.354">  7  8 -1 -1</clus>
<clus scale="   25.846">  2  5  1 -1</clus>
</clustering>
</event>
<event>
10    2  0.1898324E-006  0.1208927E+03  0.7546771E-02  0.1241785E+00
          1   -1    0    0  502    0  0.00000000000E+00  0.00000000000E+00  0.72357684179E+03  0.72357684179E+03  0.00000000000E+00 0. -1.
         -1   -1    0    0    0  501 -0.00000000000E+00 -0.00000000000E+00 -0.77566775388E+02  0.77566775388E+02  0.00000000000E+00 0.  1.
         23    2    1    2    0    0 -0.20471492411E+02 -0.14107910154E+03  0.19224758578E+03  0.25609103090E+03  0.91110301140E+02 0.  0.
         23    2    1    2    0    0 -0.59767555445E+02  0.22385280867E+02  0.26841117072E+03  0.29070457135E+03  0.91604201615E+02 0.  0.
        -11    1    4    4    0    0 -0.72346480393E+02 -0.11843806269E+01  0.12173435190E+03  0.14161450637E+03  0.00000000000E+00 0. -1.
         11    1    4    4    0    0  0.12578924948E+02  0.23569661494E+02  0.14667681883E+03  0.14909006498E+03  0.00000000000E+00 0.  1.
        -13    1    3    3    0    0 -0.23376412580E+02  0.28968597621E+01  0.15916197530E+02  0.28428397869E+02  0.00000000000E+00 0.  1.
         13    1    3    3    0    0  0.29049201689E+01 -0.14397596131E+03  0.17633138825E+03  0.22766263303E+03  0.00000000000E+00 0. -1.
         21    1    1    2  502  503  0.46281578934E+02  0.54529549795E+02  0.16362015666E+03  0.17856934791E+03  0.00000000000E+00 0.  1.
         21    1    1    2  503  501  0.33957468922E+02  0.64164270882E+02  0.21731153243E+02  0.75778667016E+02  0.00000000000E+00 0.  1.
<scales pt_clust_5="13000.00000" pt_clust_6="13000.00000" pt_clust_7="13000.00000" pt_clust_8="13000.00000" pt_clust_9="71.52242" pt_clust_10="78.77122"></scales>
<clustering>
<clus scale="   71.522">  1  9  2 -1</clus>
<clus scale="   78.771">  2 10  1 -1</clus>
<clus scale="   91.110">  7  8 -1 -1</clus>
<clus scale="   91.604">  5  6 -1 -1</clus>
<clus scale="  120.519">  2  7  1 -1</clus>
<clus scale="   71.522">  1  5  2 -1</clus>
</clustering>
</event>
<event>
10    2  0.1898324E-006  0.1111818E+03  0.7546771E-02  0.1259501E+00
          2   -1    0    0  502    0  0.00000000000E+00  0.00000000000E+00  0.78207793632E+03  0.78207793632E+03  0.00000000000E+00 0. -1.
         -2   -1    0    0    0  501 -0.00000000000E+00 -0.00000000000E+00 -0.53145438207E+02  0.53145438207E+02  0.00000000000E+00 0.  1.
         23    2    1    2    0    0 -0.71598656258E+02  0.29587711133E+02  0.12863233583E+03  0.17446036209E+03  0.88816326717E+02 0.  0.
         23    2    1    2    0    0  0.42105352854E+02  0.42781345032E+02  0.27203593556E+03  0.29329297228E+03  0.91728475040E+02 0.  0.
        -13    1    4    4    0    0  0.58473745273E+02  0.18424259409E+02  0.24768435536E+03  0.25515911137E+03  0.00000000000E+00 0.  1.
         13    1    4    4    0    0 -0.16368392418E+02  0.24357085623E+02  0.24351580195E+02  0.38133860917E+02  0.00000000000E+00 0. -1.
        -13    1    3    3    0    0 -0.53490177096E+02 -0.97608156454E+01  0.20734505657E+02  0.58192716835E+02  0.00000000000E+00 0.  1.
         13    1    3    3    0    0 -0.18108479162E+02  0.39348526779E+02  0.10789783017E+03  0.11626764525E+03  0.00000000000E+00 0. -1.
         21    1    1    2  502  503  0.36033661219E+02 -0.32854954425E+02  0.32347859747E+03  0.32713342201E+03  0.00000000000E+00 0. -1.
         21    1    1    2  503  501 -0.65403578151E+01 -0.39514101740E+02  0.47856292574E+01  0.40336618154E+02  0.00000000000E+00 0.  1.
<scales pt_clust_5="13000.00000" pt_clust_6="13000.00000" pt_clust_7="13000.00000" pt_clust_8="13000.00000" pt_clust_9="49.91944" pt_clust_10="40.05172"></scales>
<clustering>
<clus scale="   40.052">  2 10  1 -1</clus>
<clus scale="   49.919">  1  9  2 -1</clus>
<clus scale="   88.816">  7  8 -1 -1</clus>
<clus scale="   91.728">  5  6 -1 -1</clus>
<clus scale="  108.792">  2  7  1 -1</clus>
<clus scale="   49.919">  1  5  2 -1</clus>
</clustering>
</event>
<event>
10    2  0.1898324E-006  0.1330548E+03  0.7546771E-02  0.1224974E+00
          1   -1    0    0  503    0  0.00000000000E+00  0.00000000000E+00  0.30783464144E+03  0.30783464144E+03  0.00000000000E+00 0. -1.
         -1   -1    0    0    0  501 -0.00000000000E+00 -0.00000000000E+00 -0.19334339809E+03  0.19334339809E+03  0.00000000000E+00 0.  1.
         23    2    1    2    0    0 -0.56952236100E+02 -0.50087687642E+02 -0.47602108439E+02  0.13297250914E+03  0.98302562573E+02 0.  0.
         23    2    1    2    0    0  0.64861005329E+02  0.65757606337E+02  0.22376040498E+03  0.25857017200E+03  0.90877952247E+02 0.  0.
        -13    1    4    4    0    0 -0.20304327761E+02  0.11403675943E+02  0.18316894308E+02  0.29627996353E+02  0.00000000000E+00 0.  1.
         13    1    4    4    0    0  0.85165333090E+02  0.54353930394E+02  0.20544351067E+03  0.22894217564E+03  0.00000000000E+00 0. -1.
        -13    1    3    3    0    0 -0.16307069542E+02 -0.11877334128E+02  0.30757701450E+02  0.36783525953E+02  0.00000000000E+00 0. -1.
         13    1    3    3    0    0 -0.40645166558E+02 -0.38210353514E+02 -0.78359809890E+02  0.96188983185E+02  0.00000000000E+00 0.  1.
         21    1    1    2  502  501 -0.29971278602E+02  0.19120157231E+02 -0.92682210967E-01  0.35550900742E+02  0.00000000000E+00 0. -1.
         21    1    1    2  503  502  0.22062509374E+02 -0.34790075926E+02 -0.61574370982E+02  0.74084457646E+02  0.00000000000E+00 0.  1.
<scales pt_clust_5="13000.00000" pt_clust_6="13000.00000" pt_clust_7="13000.00000" pt_clust_8="13000.00000" pt_clust_9="35.55078" pt_clust_10="29.33703"></scales>
<clustering>
<clus scale="   35.551">  2  9  1 -1</clus>
<clus scale="   29.337">  2 10  1 -1</clus>
<clus scale="   90.878">  5  6 -1 -1</clus>
<clus scale="   98.303">  7  8 -1 -1</clus>
<clus scale="  127.667">  1  5  2 -1</clus>
<clus scale="  127.667">  1  5  2 -1</clus>
</clustering>
</event>
<event>
10    2  0.1898324E-006  0.2202630E+03  0.7546771E-02  0.1133788E+00
          1   -1    0    0  502    0  0.00000000000E+00  0.00000000000E+00  0.43562428863E+03  0.43562428863E+03  0.00000000000E+00 0. -1.
         -1   -1    0    0    0  501 -0.00000000000E+00 -0.00000000000E+00 -0.69061070076E+03  0.69061070076E+03  0.00000000000E+00 0.  1.
         23    2    1    2    0    0  0.11275506310E+03 -0.10799200619E+03 -0.54777110747E+03  0.57694971916E+03  0.91879348099E+02 0.  0.
         23    2    1    2    0    0 -0.18689873424E+03  0.55451592814E+02  0.20452496036E+03  0.29671518026E+03  0.90572748551E+02 0.  0.
        -11    1    4    4    0    0 -0.22003771788E+02 -0.20209144917E+02  0.50737827119E+02  0.58880409407E+02  0.00000000000E+00 0.  1.
         11    1    4    4    0    0 -0.16489496246E+03  0.75660737731E+02  0.15378713324E+03  0.23783477085E+03  0.00000000000E+00 0. -1.
        -11    1    3    3    0    0  0.21439081928E+02 -0.43059852265E+02 -0.62261466940E+02  0.78678303086E+02  0.00000000000E+00 0. -1.
         11    1    3    3    0    0  0.91315981167E+02 -0.64932153921E+02 -0.48550964053E+03  0.49827141608E+03  0.00000000000E+00 0.  1.
         21    1    1    2  502  503  0.81476080525E-01  0.33254860925E+02  0.15037182358E+03  0.15400512245E+03  0.00000000000E+00 0.  1.
         21    1    1    2  503  501  0.74062195067E+02  0.19285552447E+02 -0.62112088602E+02  0.98564967518E+02  0.00000000000E+00 0. -1.
<scales pt_clust_5="13000.00000" pt_clust_6="13000.00000" pt_clust_7="13000.00000" pt_clust_8="13000.00000" pt_clust_9="33.25496" pt_clust_10="77.10365"></scales>
<clustering>
<clus scale="   33.255">  1  9  2 -1</clus>
<clus scale="   77.104">  2 10  1 -1</clus>
<clus scale="   90.573">  5  6 -1 -1</clus>
<clus scale="   91.879">  7  8 -1 -1</clus>
<clus scale="  219.721">  1  5  2 -1</clus>
<clus scale="   33.255">  1  5  2 -1</clus>
</clustering>
</event>
<event>
10    2  0.1898324E-006  0.9832632E+02  0.7546771E-02  0.1283968E+00
          1   -1    0    0  502    0  0.00000000000E+00  0.00000000000E+00  0.20859702969E+03  0.20859702969E+03  0.00000000000E+00 0. -1.
         -1   -1    0    0    0  501 -0.00000000000E+00 -0.00000000000E+00 -0.24617141758E+03  0.24617141758E+03  0.00000000000E+00 0.  1.
         23    2    1    2    0    0 -0.40357684352E+01  0.21988038216E+02 -0.12826409901E+03  0.15807353681E+03  0.89642638804E+02 0.  0.
         23    2    1    2    0    0  0.24777149381E+02 -0.47794329919E+02 -0.43701835689E+02  0.11314861136E+03  0.89412262623E+02 0.  0.
        -13    1    3    3    0    0  0.15322506550E+02 -0.25227299694E+02 -0.88762514336E+02  0.93541326739E+02  0.00000000000E+00 0.  1.
         13    1    3    3    0    0 -0.19358274985E+02  0.47215337910E+02 -0.39501584677E+02  0.64532210068E+02  0.00000000000E+00 0. -1.
        -13    1    4    4    0    0  0.48700681431E+02 -0.28691556784E+02  0.37828232655E+01  0.56650432959E+02  0.00000000000E+00 0.  1.
         13    1    4    4    0    0 -0.23923532050E+02 -0.19102773135E+02 -0.47484658954E+02  0.56498178406E+02  0.00000000000E+00 0. -1.
         21    1    1    2  502  503 -0.30556303775E+02 -0.23240748651E+01  0.14775045420E+03  0.15089494935E+03  0.00000000000E+00 0. -1.
         21    1    1    2  503  501  0.98149228290E+01  0.28130366568E+02 -0.13358907395E+02  0.32651349745E+02  0.00000000000E+00 0.  1.
<scales pt_clust_5="13000.00000" pt_clust_6="13000.00000" pt_clust_7="13000.00000" pt_clust_8="13000.00000" pt_clust_9="30.56119" pt_clust_10="29.79346"></scales>
<clustering>
<clus scale="   29.793">  2 10  1 -1</clus>
<clus scale="   30.561">  1  9  2 -1</clus>
<clus scale="   89.412">  7  8 -1 -1</clus>
<clus scale="   89.643">  5  6 -1 -1</clus>
<clus scale="   98.116">  1  7  2 -1</clus>
<clus scale="   30.561">  1  5  2 -1</clus>
</clustering>
</event>
<event>
10    2  0.1898324E-006  0.1213373E+03  0.7546771E-02  0.1241941E+00
          2   -1    0    0  502    0  0.00000000000E+00  0.00000000000E+00  0.32467650662E+03  0.32467650662E+03  0.00000000000E+00 0. -1.
         -2   -1    0    0    0  501 -0.00000000000E+00 -0.00000000000E+00 -0.36681365159E+03  0.36681365159E+03  0.00000000000E+00 0.  1.
         23    2    1    2    0    0 -0.49789457957E+02  0.13366622894E+02 -0.29663551165E+03  0.31437538770E+03  0.90452202212E+02 0.  0.
         23    2    1    2    0    0  0.22826167634E+02 -0.60419897594E+02  0.23128648266E+03  0.25778022773E+03  0.93731589104E+02 0.  0.
        -11    1    3    3    0    0 -0.13941126115E+02  0.41828861834E+02 -0.66888324386E+02  0.80112774380E+02  0.00000000000E+00 0.  1.
         11    1    3    3    0    0 -0.35848331841E+02 -0.28462238939E+02 -0.22974718727E+03  0.23426261332E+03  0.00000000000E+00 0. -1.
        -11    1    4    4    0    0 -0.63329937875E+01  0.23809808627E+02  0.46765053311E+02  0.52858149877E+02  0.00000000000E+00 0.  1.
         11    1    4    4    0    0  0.29159161422E+02 -0.84229706222E+02  0.18452142934E+03  0.20492207786E+03  0.00000000000E+00 0. -1.
         21    1    1    2  502  503  0.29867687442E+02 -0.11089020414E+01  0.54267934599E+02  0.61954153553E+02  0.00000000000E+00 0. -1.
         21    1    1    2  503  501 -0.29043971197E+01  0.48162176742E+02 -0.31056050575E+02  0.57380389232E+02  0.00000000000E+00 0.  1.
<scales pt_clust_5="13000.00000" pt_clust_6="13000.00000" pt_clust_7="13000.00000" pt_clust_8="13000.00000" pt_clust_9="29.88827" pt_clust_10="48.12866"></scales>
<clustering>
<clus scale="   29.888">  1  9  2 -1</clus>
<clus scale="   48.129">  2 10  1 -1</clus>
<clus scale="   90.452">  5  6 -1 -1</clus>
<clus scale="   93.732">  7  8 -1 -1</clus>
<clus scale="  118.822">  2  5  1 -1</clus>
<clus scale="   29.888">  1  5  2 -1</clus>
</clustering>
</event>
<event>
10    2  0.1898324E-006  0.1307305E+03  0.7546771E-02  0.1227332E+00
         -2   -1    0    0    0  501 -0.00000000000E+00  0.00000000000E+00  0.90863734827E+02  0.90863734827E+02  0.00000000000E+00 0.  1.
          2   -1    0    0  502    0  0.00000000000E+00 -0.00000000000E+00 -0.96715796896E+03  0.96715796896E+03  0.00000000000E+00 0. -1.
         23    2    1    2    0    0  0.10633265927E+03 -0.19509039213E+02 -0.24196670345E+02  0.14043786695E+03  0.86313837699E+02 0.  0.
         23    2    1    2    0    0 -0.19206941270E+02  0.78097063807E+02 -0.33589956871E+03  0.35694815132E+03  0.90085539931E+02 0.  0.
        -11    1    3    3    0    0 -0.83551598025E-01 -0.28430983968E+02  0.68151107899E+01  0.29236510827E+02  0.00000000000E+00 0. -1.
         11    1    3    3    0    0  0.10641621087E+03  0.89219447549E+01 -0.31011781135E+02  0.11120135612E+03  0.00000000000E+00 0.  1.
        -11    1    4    4    0    0  0.83535619332E+01  0.77882120709E+02 -0.30771318548E+03  0.31752607962E+03  0.00000000000E+00 0. -1.
         11    1    4    4    0    0 -0.27560503203E+02  0.21494309784E+00 -0.28186383227E+02  0.39422071695E+02  0.00000000000E+00 0.  1.
         21    1    1    2  502  503 -0.39202955921E+02  0.41026374471E+02 -0.38463038991E+03  0.38879373966E+03  0.00000000000E+00 0. -1.
         21    1    1    2  503  501 -0.47922762080E+02 -0.99614399065E+02 -0.13156760517E+03  0.17184194586E+03  0.00000000000E+00 0.  1.
<scales pt_clust_5="13000.00000" pt_clust_6="13000.00000" pt_clust_7="13000.00000" pt_clust_8="13000.00000" pt_clust_9="56.74535" pt_clust_10="106.23257"></scales>
<clustering>
<clus scale="   56.745">  2  9  1 -1</clus>
<clus scale="   86.314">  5  6 -1 -1</clus>
<clus scale="   90.086">  7  8 -1 -1</clus>
<clus scale="  106.233">  2 10  1 -1</clus>
<clus scale="  128.161">  1  5  2 -1</clus>
<clus scale="   56.745">  2  5  1 -1</clus>
</clustering>
</event>
<event>
10    2  0.1898324E-006  0.1235252E+03  0.7546771E-02  0.1237511E+00
         -1   -1    0    0    0  501 -0.00000000000E+00  0.00000000000E+00  0.35046109832E+02  0.35046109832E+02  0.00000000000E+00 0.  1.
          1   -1    0    0  502    0  0.00000000000E+00 -0.00000000000E+00 -0.65283991636E+03  0.65283991636E+03  0.00000000000E+00 0. -1.
         23    2    1    2    0    0  0.44290813173E+02 -0.83993073052E+02 -0.23475328596E+03  0.26872648362E+03  0.89935005846E+02 0.  0.
         23    2    1    2    0    0 -0.18567926063E+02  0.69630087214E+02 -0.29947596390E+03  0.32100020031E+03  0.90344666262E+02 0.  0.
        -11    1    4    4    0    0  0.33290461648E+02  0.46880344958E+02 -0.12560981830E+03  0.13814430149E+03  0.00000000000E+00 0.  1.
         11    1    4    4    0    0 -0.51858387711E+02  0.22749742256E+02 -0.17386614560E+03  0.18285589882E+03  0.00000000000E+00 0. -1.
        -13    1    3    3    0    0 -0.22475683548E+02 -0.39833457143E+02 -0.12326588053E+03  0.13147751885E+03  0.00000000000E+00 0. -1.
         13    1    3    3    0    0  0.66766496720E+02 -0.44159615909E+02 -0.11148740543E+03  0.13724896477E+03  0.00000000000E+00 0.  1.
         21    1    1    2  502  503 -0.75839626131E+01  0.23155327198E+02 -0.69317698952E+02  0.73475363589E+02  0.00000000000E+00 0.  1.
         21    1    1    2  503  501 -0.18138924496E+02 -0.87923413597E+01 -0.14246857718E+02  0.24683978677E+02  0.00000000000E+00 0.  1.
<scales pt_clust_5="13000.00000" pt_clust_6="13000.00000" pt_clust_7="13000.00000" pt_clust_8="13000.00000" pt_clust_9="24.21686" pt_clust_10="20.15753"></scales>
<clustering>
<clus scale="   20.158">  1 10  2 -1</clus>
<clus scale="   24.217">  2  9  1 -1</clus>
<clus scale="   89.935">  7  8 -1 -1</clus>
<clus scale="   90.345">  5  6 -1 -1</clus>
<clus scale="  123.226">  1  7  2 -1</clus>
<clus scale="   24.217">  2  5  1 -1</clus>
</clustering>
</event>
<event>
10    2  0.1898324E-006  0.1012940E+03  0.7546771E-02  0.1277678E+00
         -1   -1    0    0    0  501 -0.00000000000E+00  0.00000000000E+00  0.11760279080E+03  0.11760279080E+03  0.00000000000E+00 0.  1.
          1   -1    0    0  502    0  0.00000000000E+00 -0.00000000000E+00 -0.31375471926E+03  0.31375471926E+03  0.00000000000E+00 0. -1.
         23    2    1    2    0    0 -0.20886872488E+02 -0.51701075961E+02  0.44620915378E+02  0.11652573363E+03  0.92075826427E+02 0.  0.
         23    2    1    2    0    0  0.28979519214E+02 -0.31624087768E+02 -0.15217845822E+03  0.18287888584E+03  0.91904887121E+02 0.  0.
        -11    1    4    4    0    0  0.52062395822E+02 -0.48462776014E+02 -0.92242111231E+02  0.11648064561E+03  0.00000000000E+00 0.  1.
         11    1    4    4    0    0 -0.23082876607E+02  0.16838688246E+02 -0.59936346992E+02  0.66398240226E+02  0.00000000000E+00 0. -1.
        -13    1    3    3    0    0  0.20049571792E+01 -0.45809860950E+02  0.68820581335E+02  0.82697252849E+02  0.00000000000E+00 0.  1.
         13    1    3    3    0    0 -0.22891829667E+02 -0.58912150108E+01 -0.24199665957E+02  0.33828480786E+02  0.00000000000E+00 0. -1.
         21    1    1    2  502  503  0.12538063486E+02  0.70032228183E+02 -0.76911661300E+02  0.10477175032E+03  0.00000000000E+00 0. -1.
         21    1    1    2  503  501 -0.20630710212E+02  0.13292935546E+02 -0.11682724310E+02  0.27181140274E+02  0.00000000000E+00 0.  1.
<scales pt_clust_5="13000.00000" pt_clust_6="13000.00000" pt_clust_7="13000.00000" pt_clust_8="13000.00000" pt_clust_9="72.40093" pt_clust_10="24.54238"></scales>
<clustering>
<clus scale="   24.542">  1 10  2 -1</clus>
<clus scale="   72.401">  2  9  1 -1</clus>
<clus scale="   91.905">  5  6 -1 -1</clus>
<clus scale="   92.076">  7  8 -1 -1</clus>
<clus scale="  101.139">  2  5  1 -1</clus>
<clus scale="   72.401">  2  5  1 -1</clus>
</clustering>
</event>
<event>
10    2  0.1898324E-006  0.1060863E+03  0.7546771E-02  0.1270052E+00
         -1   -1    0    0    0  501 -0.00000000000E+00  0.00000000000E+00  0.15808747834E+03  0.15808747834E+03  0.00000000000E+00 0.  1.
          1   -1    0    0  502    0  0.00000000000E+00 -0.00000000000E+00 -0.24018575677E+03  0.24018575677E+03  0.00000000000E+00 0. -1.
         23    2    1    2    0    0 -0.25241766242E+02  0.63315222395E+02  0.49826895199E+02  0.12331951623E+03  0.89883365809E+02 0.  0.
         23    2    1    2    0    0 -0.12102251070E+02 -0.27979094273E+02  0.10690408002E+02  0.99925478500E+02  0.94559622635E+02 0.  0.
        -11    1    4    4    0    0 -0.27354996471E+02 -0.46116187718E+02  0.36517787651E+02  0.64873318218E+02  0.00000000000E+00 0.  1.
         11    1    4    4    0    0  0.15252745401E+02  0.18137093446E+02 -0.25827379649E+02  0.35052160283E+02  0.00000000000E+00 0. -1.
        -13    1    3    3    0    0 -0.39412291064E+02 -0.78781392374E+01  0.16562588099E+02  0.43470830327E+02  0.00000000000E+00 0.  1.
         13    1    3    3    0    0  0.14170524823E+02  0.71193361632E+02  0.33264307100E+02  0.79848685907E+02  0.00000000000E+00 0. -1.
         21    1    1    2  502  503  0.18281508235E+02 -0.12579607430E+02 -0.14362122230E+03  0.14532555027E+03  0.00000000000E+00 0. -1.
         21    1    1    2  503  501  0.19062509077E+02 -0.22756520693E+02  0.10056406629E+01  0.29702690105E+02  0.00000000000E+00 0. -1.
<scales pt_clust_5="13000.00000" pt_clust_6="13000.00000" pt_clust_7="13000.00000" pt_clust_8="13000.00000" pt_clust_9="22.19144" pt_clust_10="32.90324"></scales>
<clustering>
<clus scale="   22.191">  2  9  1 -1</clus>
<clus scale="   32.903">  2 10  1 -1</clus>
<clus scale="   89.883">  7  8 -1 -1</clus>
<clus scale="   94.560">  5  6 -1 -1</clus>
<clus scale="  101.940">  1  7  2 -1</clus>
<clus scale="   22.191">  2  5  1 -1</clus>
</clustering>
</event>
<event>
10    2  0.1898324E-006  0.1349897E+03  0.7546771E-02  0.1220326E+00
          1   -1    0    0  502    0  0.00000000000E+00  0.00000000000E+00  0.32675876838E+03  0.32675876838E+03  0.00000000000E+00 0. -1.
         -1   -1    0    0    0  501 -0.00000000000E+00 -0.00000000000E+00 -0.21005460386E+03  0.21005460386E+03  0.00000000000E+00 0.  1.
         23    2    1    2    0    0  0.30533788683E+02  0.63459762786E+02 -0.10868512541E+03  0.15973980790E+03  0.93514148647E+02 0.  0.
         23    2    1    2    0    0 -0.44477769072E+02 -0.10208176487E+03  0.11793748173E+03  0.18703798818E+03  0.93139684157E+02 0.  0.
        -11    1    4    4    0    0  0.33127282165E+01 -0.50812619600E+02  0.12704234301E+01  0.50936337270E+02  0.00000000000E+00 0.  1.
         11    1    4    4    0    0 -0.47790497288E+02 -0.51269145269E+02  0.11666705830E+03  0.13610165091E+03  0.00000000000E+00 0. -1.
        -13    1    3    3    0    0  0.50471705892E+02  0.66534743735E+02 -0.11156748440E+03  0.13936128872E+03  0.00000000000E+00 0.  1.
         13    1    3    3    0    0 -0.19937917208E+02 -0.30749809488E+01  0.28823589868E+01  0.20378519175E+02  0.00000000000E+00 0. -1.
         21    1    1    2  502  503 -0.26318537161E+02  0.25805380120E+02  0.13477058526E+03  0.13972005473E+03  0.00000000000E+00 0.  1.
         21    1    1    2  503  501  0.40262517549E+02  0.12816621962E+02 -0.27318777056E+02  0.50315521440E+02  0.00000000000E+00 0. -1.
<scales pt_clust_5="13000.00000" pt_clust_6="13000.00000" pt_clust_7="13000.00000" pt_clust_8="13000.00000" pt_clust_9="36.85896" pt_clust_10="41.25393"></scales>
<clustering>
<clus scale="   36.859">  1  9  2 -1</clus>
<clus scale="   41.254">  2 10  1 -1</clus>
<clus scale="   93.140">  5  6 -1 -1</clus>
<clus scale="   93.514">  7  8 -1 -1</clus>
<clus scale="  134.731">  1  5  2 -1</clus>
<clus scale="   36.859">  1  5  2 -1</clus>
</clustering>
</event>
<event>
10    2  0.1898324E-006  0.1062899E+03  0.7546771E-02  0.1268062E+00
          1   -1    0    0  502    0  0.00000000000E+00  0.00000000000E+00  0.18821426726E+03  0.18821426726E+03  0.00000000000E+00 0. -1.
         -1   -1    0    0    0  501 -0.00000000000E+00 -0.00000000000E+00 -0.10112712066E+03  0.10112712066E+03  0.00000000000E+00 0.  1.
         23    2    1    2    0    0 -0.26859625585E+02  0.51193794372E+02  0.36301945844E+01  0.10694977671E+03  0.89904573613E+02 0.  0.
         23    2    1    2    0    0 -0.96299942520E+01 -0.64495259709E+02  0.67489342296E+02  0.13073346941E+03  0.91016775305E+02 0.  0.
        -11    1    3    3    0    0 -0.26077794024E+01  0.42927302505E+02  0.42455603779E+02  0.60432045357E+02  0.00000000000E+00 0. -1.
         11    1    3    3    0    0 -0.24251846183E+02  0.82664918670E+01 -0.38825409194E+02  0.46517731352E+02  0.00000000000E+00 0.  1.
        -13    1    4    4    0    0  0.18910543642E+02 -0.75780509417E+02  0.33636210717E+02  0.85039337602E+02  0.00000000000E+00 0.  1.
         13    1    4    4    0    0 -0.28540537894E+02  0.11285249708E+02  0.33853131579E+02  0.45694131811E+02  0.00000000000E+00 0. -1.
         21    1    1    2  502  503  0.14120885183E+02  0.20737518492E+02  0.11780331028E+02  0.27716786803E+02  0.00000000000E+00 0.  1.
         21    1    1    2  503  501  0.22368734654E+02 -0.74360531550E+01  0.41872786885E+01  0.23941355002E+02  0.00000000000E+00 0.  1.
<scales pt_clust_5="13000.00000" pt_clust_6="13000.00000" pt_clust_7="13000.00000" pt_clust_8="13000.00000" pt_clust_9="25.72770" pt_clust_10="23.57234"></scales>
<clustering>
<clus scale="   23.572">  2 10  1 -1</clus>
<clus scale="   25.728">  1  9  2 -1</clus>
<clus scale="   89.905">  5  6 -1 -1</clus>
<clus scale="   91.017">  7  8 -1 -1</clus>
<clus scale="  105.339">  2  5  1 -1</clus>
<clus scale="   25.728">  1  5  2 -1</clus>
</clustering>
</event>
<event>
10    2  0.1898324E-006  0.1521001E+03  0.7546771E-02  0.1199608E+00
         -2   -1    0    0    0  501 -0.00000000000E+00  0.00000000000E+00  0.24677694229E+03  0.24677694229E+03  0.00000000000E+00 0.  1.
          2   -1    0    0  502    0  0.00000000000E+00 -0.00000000000E+00 -0.43740841031E+03  0.43740841031E+03  0.00000000000E+00 0. -1.
         23    2    1    2    0    0 -0.41329620547E+02  0.86774292017E+02 -0.68380437183E+02  0.14841557819E+03  0.90074326926E+02 0.  0.
         23    2    1    2    0    0  0.68156406213E+02 -0.10822385172E+03 -0.24239913852E+03  0.29132579106E+03  0.98770827627E+02 0.  0.
        -11    1    4    4    0    0  0.38969743382E+01 -0.95738671320E+02 -0.13496183366E+03  0.16551669444E+03  0.00000000000E+00 0.  1.
         11    1    4    4    0    0  0.64259431874E+02 -0.12485180400E+02 -0.10743730487E+03  0.12580909662E+03  0.00000000000E+00 0. -1.
        -11    1    3    3    0    0 -0.19970017003E+02 -0.15697661103E+02 -0.23219239870E+02  0.34414404591E+02  0.00000000000E+00 0. -1.
         11    1    3    3    0    0 -0.21359603544E+02  0.10247195312E+03 -0.45161197313E+02  0.11400117360E+03  0.00000000000E+00 0.  1.
         21    1    1    2  502  503 -0.28038711500E+02  0.44482084056E+02 -0.50107492474E+02  0.72633228942E+02  0.00000000000E+00 0. -1.
         21    1    1    2  503  501  0.12119258339E+01 -0.23032524354E+02  0.17025560016E+03  0.17181075440E+03  0.00000000000E+00 0.  1.
<scales pt_clust_5="13000.00000" pt_clust_6="13000.00000" pt_clust_7="13000.00000" pt_clust_8="13000.00000" pt_clust_9="49.61644" pt_clust_10="23.06439"></scales>
<clustering>
<clus scale="   23.064">  1 10  2 -1</clus>
<clus scale="   49.616">  1  9  2 -1</clus>
<clus scale="   90.074">  7  8 -1 -1</clus>
<clus scale="   98.771">  5  6 -1 -1</clus>
<clus scale="  146.602">  1  7  2 -1</clus>
<clus scale="  152.100">  2  5  1 -1</clus>
</clustering>
</event>
<event>
10    2  0.1898324E-006  0.1119000E+03  0.7546771E-02  0.1257301E+00
         -2   -1    0    0    0  501 -0.00000000000E+00  0.00000000000E+00  0.22607750792E+03  0.22607750792E+03  0.00000000000E+00 0.  1.
          2   -1    0    0  502    0  0.00000000000E+00 -0.00000000000E+00 -0.15060602815E+03  0.15060602815E+03  0.00000000000E+00 0. -1.
         23    2    1    2    0    0 -0.30203366758E+02  0.74165527710E+02  0.52543232454E+02  0.13288700537E+03  0.92116209518E+02 0.  0.
         23    2    1    2    0    0  0.37811748748E+02 -0.29706770382E+02  0.12156370169E+02  0.10511352326E+03  0.92676075051E+02 0.  0.
        -11    1    4    4    0    0  0.20890573883E+02 -0.60945498160E+02  0.22283182121E+02  0.68171181804E+02  0.00000000000E+00 0. -1.
         11    1    4    4    0    0  0.16921174866E+02  0.31238727778E+02 -0.10126811952E+02  0.36942341457E+02  0.00000000000E+00 0.  1.
        -11    1    3    3    0    0  0.29547758783E+02  0.44985149056E+02  0.12460913956E+02  0.55244982227E+02  0.00000000000E+00 0. -1.
         11    1    3    3    0    0 -0.59751125541E+02  0.29180378655E+02  0.40082318498E+02  0.77642023145E+02  0.00000000000E+00 0.  1.
         21    1    1    2  502  503  0.32669456193E+02 -0.12226697575E+02 -0.48732526418E+02  0.59930331491E+02  0.00000000000E+00 0. -1.
         21    1    1    2  503  501 -0.40277838184E+02 -0.32232059753E+02  0.59504403561E+02  0.78752675941E+02  0.00000000000E+00 0.  1.
<scales pt_clust_5="13000.00000" pt_clust_6="13000.00000" pt_clust_7="13000.00000" pt_clust_8="13000.00000" pt_clust_9="34.88245" pt_clust_10="49.89068"></scales>
<clustering>
<clus scale="   34.882">  2  9  1 -1</clus>
<clus scale="   49.891">  1 10  2 -1</clus>
<clus scale="   92.116">  7  8 -1 -1</clus>
<clus scale="   92.676">  5  6 -1 -1</clus>
<clus scale="  111.437">  1  7  2 -1</clus>
<clus scale="   34.882">  2  5  1 -1</clus>
</clustering>
</event>
<event>
10    2  0.1898324E-006  0.9617660E+02  0.7546771E-02  0.1290199E+00
         -2   -1    0    0    0  501 -0.00000000000E+00  0.00000000000E+00  0.32087155165E+03  0.32087155165E+03  0.00000000000E+00 0.  1.
          2   -1    0    0  502    0  0.00000000000E+00 -0.00000000000E+00 -0.97013315949E+02  0.97013315949E+02  0.00000000000E+00 0. -1.
         23    2    1    2    0    0  0.40430859209E+02 -0.14011708151E+02  0.11350157532E+03  0.15278732043E+03  0.92899813470E+02 0.  0.
         23    2    1    2    0    0 -0.36789476313E+01  0.50309032833E+01  0.54370500694E+02  0.10521427808E+03  0.89861272656E+02 0.  0.
        -13    1    4    4    0    0  0.41966241409E+02  0.20723107191E+01  0.14240908158E+02  0.44365114165E+02  0.00000000000E+00 0. -1.
         13    1    4    4    0    0 -0.45645189040E+02  0.29585925642E+01  0.40129592535E+02  0.60849163918E+02  0.00000000000E+00 0.  1.
        -13    1    3    3    0    0  0.68107571944E+02 -0.22167895579E+02  0.67092332476E+02  0.98139890094E+02  0.00000000000E+00 0. -1.
         13    1    3    3    0    0 -0.27676712735E+02  0.81561874272E+01  0.46409242845E+02  0.54647430338E+02  0.00000000000E+00 0.  1.
         21    1    1    2  502  503 -0.10096753982E+02  0.41292047993E+02 -0.37979960859E+02  0.57003991924E+02  0.00000000000E+00 0.  1.
         21    1    1    2  503  501 -0.26655157596E+02 -0.32311243125E+02  0.93966120541E+02  0.10287927716E+03  0.00000000000E+00 0. -1.
<scales pt_clust_5="13000.00000" pt_clust_6="13000.00000" pt_clust_7="13000.00000" pt_clust_8="13000.00000" pt_clust_9="41.46203" pt_clust_10="41.88692"></scales>
<clustering>
<clus scale="   41.887">  1 10  2 -1</clus>
<clus scale="   41.462">  2  9  1 -1</clus>
<clus scale="   89.861">  5  6 -1 -1</clus>
<clus scale="   92.900">  7  8 -1 -1</clus>
<clus scale="   93.245">  2  5  1 -1</clus>
<clus scale="   41.462">  2  5  1 -1</clus>
</clustering>
</event>
<event>
10    2  0.1898324E-006  0.1519619E+03  0.7546771E-02  0.1210931E+00
         -2   -1    0    0    0  501 -0.00000000000E+00  0.00000000000E+00  0.62077605167E+03  0.62077605167E+03  0.00000000000E+00 0.  1.
          2   -1    0    0  502    0  0.00000000000E+00 -0.00000000000E+00 -0.18353722357E+03  0.18353722357E+03  0.00000000000E+00 0. -1.
         23    2    1    2    0    0 -0.55109570749E+02 -0.28745327455E+02  0.11012125035E+03  0.15603280595E+03  0.91412187996E+02 0.  0.
         23    2    1    2    0    0 -0.57004528459E+02 -0.30030693367E+02 -0.82539917680E+02  0.13913281373E+03  0.91617373015E+02 0.  0.
        -11    1    4    4    0    0 -0.10765714685E+02  0.18745410193E+02  0.10759202166E+02  0.24146458275E+02  0.00000000000E+00 0.  1.
         11    1    4    4    0    0 -0.46238813774E+02 -0.48776103560E+02 -0.93299119846E+02  0.11498635546E+03  0.00000000000E+00 0. -1.
        -11    1    3    3    0    0  0.16924264568E+02 -0.22878375666E+02  0.64675242209E+02  0.70659307660E+02  0.00000000000E+00 0.  1.
         11    1    3    3    0    0 -0.72033835317E+02 -0.58669517891E+01  0.45446008146E+02  0.85373498289E+02  0.00000000000E+00 0. -1.
         21    1    1    2  502  503 -0.70510597073E+02  0.26399592739E+02  0.20468346736E+02  0.78023304304E+02  0.00000000000E+00 0. -1.
         21    1    1    2  503  501  0.18262469628E+03  0.32376428083E+02  0.38918914868E+03  0.43112435125E+03  0.00000000000E+00 0.  1.
<scales pt_clust_5="13000.00000" pt_clust_6="13000.00000" pt_clust_7="13000.00000" pt_clust_8="13000.00000" pt_clust_9="75.29066" pt_clust_10="121.23816"></scales>
<clustering>
<clus scale="   75.291">  2  9  1 -1</clus>
<clus scale="   91.412">  7  8 -1 -1</clus>
<clus scale="   91.617">  5  6 -1 -1</clus>
<clus scale="  115.204">  1  7  2 -1</clus>
<clus scale="  121.238">  1 10  2 -1</clus>
<clus scale="   75.291">  2  5  1 -1</clus>
</clustering>
</event>
<event>
10    2  0.1898324E-006  0.1461783E+03  0.7546771E-02  0.1210022E+00
         -2   -1    0    0    0  501 -0.00000000000E+00  0.00000000000E+00  0.48361642579E+03  0.48361642579E+03  0.00000000000E+00 0.  1.
          2   -1    0    0  502    0  0.00000000000E+00 -0.00000000000E+00 -0.18018270961E+03  0.18018270961E+03  0.00000000000E+00 0. -1.
         23    2    1    2    0    0  0.70726079219E+02 -0.15743821526E+02  0.22015779857E+03  0.24881023998E+03  0.90482225053E+02 0.  0.
         23    2    1    2    0    0 -0.12075385190E+03  0.76835211532E+02 -0.27462501386E+02  0.18270381366E+03  0.11018780360E+03 0.  0.
        -11    1    4    4    0    0 -0.20683605146E+02 -0.27976416288E+02 -0.12716924859E+02  0.37043374144E+02  0.00000000000E+00 0.  1.
         11    1    4    4    0    0 -0.10007024675E+03  0.10481162782E+03 -0.14745576528E+02  0.14566043951E+03  0.00000000000E+00 0. -1.
        -13    1    3    3    0    0 -0.10730222170E+02 -0.22456998623E+02  0.10297205929E+03  0.10593724298E+03  0.00000000000E+00 0.  1.
         13    1    3    3    0    0  0.81456301388E+02  0.67131770964E+01  0.11718573927E+03  0.14287299700E+03  0.00000000000E+00 0. -1.
         21    1    1    2  502  503  0.27398578237E+02 -0.53125864691E+02 -0.44930607647E+02  0.74778333039E+02  0.00000000000E+00 0. -1.
         21    1    1    2  503  501  0.22629194444E+02 -0.79655253149E+01  0.15566902665E+03  0.15750674873E+03  0.00000000000E+00 0.  1.
<scales pt_clust_5="13000.00000" pt_clust_6="13000.00000" pt_clust_7="13000.00000" pt_clust_8="13000.00000" pt_clust_9="60.57598" pt_clust_10="23.99021"></scales>
<clustering>
<clus scale="   23.990">  1 10  2 -1</clus>
<clus scale="   60.576">  2  9  1 -1</clus>
<clus scale="   90.482">  7  8 -1 -1</clus>
<clus scale="  110.188">  5  6 -1 -1</clus>
<clus scale="  131.961">  1  7  2 -1</clus>
<clus scale="   60.576">  2  5  1 -1</clus>
</clustering>
</event>
<event>
10    2  0.1898324E-006  0.1075100E+03  0.7546771E-02  0.1265253E+00
         -2   -1    0    0    0  501 -0.00000000000E+00  0.00000000000E+00  0.43109001053E+02  0.43109001053E+02  0.00000000000E+00 0.  1.
          2   -1    0    0  502    0  0.00000000000E+00 -0.00000000000E+00 -0.81297917700E+03  0.81297917700E+03  0.00000000000E+00 0. -1.
         23    2    1    2    0    0 -0.24423887316E+02  0.57239747856E+02 -0.11742928350E+03  0.16043273384E+03  0.89867182319E+02 0.  0.
         23    2    1    2    0    0  0.24377682842E+02 -0.65873190255E+02 -0.48361626156E+03  0.49688397164E+03  0.89863475406E+02 0.  0.
        -11    1    4    4    0    0 -0.14728373821E+02  0.14778865124E+02 -0.51435686671E+02  0.55506483523E+02  0.00000000000E+00 0.  1.
         11    1    4    4    0    0  0.39106056664E+02 -0.80652055380E+02 -0.43218057489E+03  0.44137748811E+03  0.00000000000E+00 0. -1.
        -11    1    3    3    0    0 -0.41310580262E+02  0.73107677404E+02 -0.10393367599E+03  0.13361701068E+03  0.00000000000E+00 0.  1.
         11    1    3    3    0    0  0.16886692946E+02 -0.15867929548E+02 -0.13495607508E+02  0.26815723163E+02  0.00000000000E+00 0. -1.
         21    1    1    2  502  503 -0.30448063703E+02  0.10295644652E+02 -0.16487368111E+03  0.16797742588E+03  0.00000000000E+00 0. -1.
         21    1    1    2  503  501  0.30494268176E+02 -0.16622022532E+01 -0.39509497825E+01  0.30794046699E+02  0.00000000000E+00 0. -1.
<scales pt_clust_5="13000.00000" pt_clust_6="13000.00000" pt_clust_7="13000.00000" pt_clust_8="13000.00000" pt_clust_9="30.60675" pt_clust_10="30.53954"></scales>
<clustering>
<clus scale="   30.540">  1 10  2 -1</clus>
<clus scale="   30.607">  2  9  1 -1</clus>
<clus scale="   89.863">  5  6 -1 -1</clus>
<clus scale="   89.867">  7  8 -1 -1</clus>
<clus scale="  107.507">  2  5  1 -1</clus>
<clus scale="   30.607">  2  5  1 -1</clus>
</clustering>
</event>
<event>
10    2  0.1898324E-006  0.1858478E+03  0.7546771E-02  0.1162752E+00
         -2   -1    0    0    0  501 -0.00000000000E+00  0.00000000000E+00  0.24657118019E+03  0.24657118019E+03  0.00000000000E+00 0.  1.
          2   -1    0    0  502    0  0.00000000000E+00 -0.00000000000E+00 -0.50430428022E+03  0.50430428022E+03  0.00000000000E+00 0. -1.
         23    2    1    2    0    0  0.16040768745E+03  0.11537080210E+03  0.10169228193E+03  0.24057752524E+03  0.92169285972E+02 0.  0.
         23    2    1    2    0    0 -0.10876031274E+03 -0.53930054694E+02 -0.29253261006E+03  0.32868009770E+03  0.87852275156E+02 0.  0.
        -11    1    4    4    0    0 -0.37977577519E+02 -0.38021543620E+02 -0.43030584464E+02  0.68844501398E+02  0.00000000000E+00 0.  1.
         11    1    4    4    0    0 -0.70782735219E+02 -0.15908511073E+02 -0.24950202559E+03  0.25983559630E+03  0.00000000000E+00 0. -1.
        -11    1    3    3    0    0  0.28475940211E+02  0.27694236269E+02 -0.16420645941E+02  0.42982409268E+02  0.00000000000E+00 0. -1.
         11    1    3    3    0    0  0.13193174723E+03  0.87676565834E+02  0.11811292788E+03  0.19759511597E+03  0.00000000000E+00 0.  1.
         21    1    1    2  502  503 -0.46716200525E+02 -0.57675968052E+01 -0.10425502690E+03  0.11438871971E+03  0.00000000000E+00 0.  1.
         21    1    1    2  503  501 -0.49311741835E+01 -0.55673150604E+02  0.37362254989E+02  0.67229117761E+02  0.00000000000E+00 0. -1.
<scales pt_clust_5="13000.00000" pt_clust_6="13000.00000" pt_clust_7="13000.00000" pt_clust_8="13000.00000" pt_clust_9="47.07089" pt_clust_10="56.29105"></scales>
<clustering>
<clus scale="   47.071">  2  9  1 -1</clus>
<clus scale="   56.291">  1 10  2 -1</clus>
<clus scale="   87.852">  5  6 -1 -1</clus>
<clus scale="   92.169">  7  8 -1 -1</clus>
<clus scale="  183.745">  2  5  1 -1</clus>
<clus scale="   47.071">  2  5  1 -1</clus>
</clustering>
</event>
<event>
10    2  0.1898324E-006  0.1222985E+03  0.7546771E-02  0.1243396E+00
         -2   -1    0    0    0  501 -0.00000000000E+00  0.00000000000E+00  0.32409932486E+03  0.32409932486E+03  0.00000000000E+00 0.  1.
          2   -1    0    0  502    0  0.00000000000E+00 -0.00000000000E+00 -0.98907537941E+02  0.98907537941E+02  0.00000000000E+00 0. -1.
         23    2    1    2    0    0  0.19920135631E+02 -0.36066871155E+02  0.10300412654E+03  0.14370718314E+03  0.91346994496E+02 0.  0.
         23    2    1    2    0    0 -0.91261453550E+02  0.31582542168E+02  0.47264210476E+02  0.14887900921E+03  0.10298030840E+03 0.  0.
        -11    1    3    3    0    0 -0.36651335836E+02 -0.15832578456E+02  0.36683442334E+02  0.54218685899E+02  0.00000000000E+00 0.  1.
         11    1    3    3    0    0  0.56571471467E+02 -0.20234292699E+02  0.66320684206E+02  0.89488497242E+02  0.00000000000E+00 0. -1.
        -13    1    4    4    0    0 -0.58048952038E+02  0.56978022449E+02  0.64347045294E+02  0.10371459932E+03  0.00000000000E+00 0.  1.
         13    1    4    4    0    0 -0.33212501511E+02 -0.25395480281E+02 -0.17082834818E+02  0.45164409890E+02  0.00000000000E+00 0. -1.
         21    1    1    2  502  503  0.20308807569E+02  0.62302521795E+01 -0.15690810643E+02  0.26409567314E+02  0.00000000000E+00 0.  1.
         21    1    1    2  503  501  0.51032510350E+02 -0.17459231930E+01  0.90614260548E+02  0.10401110313E+03  0.00000000000E+00 0.  1.
<scales pt_clust_5="13000.00000" pt_clust_6="13000.00000" pt_clust_7="13000.00000" pt_clust_8="13000.00000" pt_clust_9="21.24297" pt_clust_10="52.79364"></scales>
<clustering>
<clus scale="   21.243">  2  9  1 -1</clus>
<clus scale="   52.794">  1 10  2 -1</clus>
<clus scale="   91.347">  5  6 -1 -1</clus>
<clus scale="  102.980">  7  8 -1 -1</clus>
<clus scale="  112.678">  1  5  2 -1</clus>
<clus scale="   21.243">  2  5  1 -1</clus>
</clustering>
</event>
<event>
10    2  0.1898324E-006  0.1695168E+03  0.7546771E-02  0.1192558E+00
          2   -1    0    0  502    0  0.00000000000E+00  0.00000000000E+00  0.14614381203E+04  0.14614381203E+04  0.00000000000E+00 0. -1.
         -2   -1    0    0    0  501 -0.00000000000E+00 -0.00000000000E+00 -0.82630441536E+02  0.82630441536E+02  0.00000000000E+00 0.  1.
         23    2    1    2    0    0 -0.17784156621E+03  0.68066264782E+02  0.67371048602E+03  0.70416612138E+03  0.75521311263E+02 0.  0.
         23    2    1    2    0    0  0.97699524068E+02 -0.12511033790E+02  0.40656124380E+03  0.42738532720E+03  0.87546844480E+02 0.  0.
        -11    1    3    3    0    0 -0.10585961816E+03  0.38291909151E+02  0.26214515222E+03  0.28529390091E+03  0.00000000000E+00 0.  1.
         11    1    3    3    0    0 -0.71981948056E+02  0.29774355631E+02  0.41156533380E+03  0.41887222047E+03  0.00000000000E+00 0. -1.
        -13    1    4    4    0    0  0.45188297334E+02  0.27170992189E+02  0.27798762706E+03  0.28294410372E+03  0.00000000000E+00 0.  1.
         13    1    4    4    0    0  0.52511226734E+02 -0.39682025980E+02  0.12857361673E+03  0.14444122348E+03  0.00000000000E+00 0. -1.
         21    1    1    2  502  503 -0.30521567481E+02  0.42147703939E+02  0.25261249537E+03  0.25791678474E+03  0.00000000000E+00 0.  1.
         21    1    1    2  503  501  0.11066360963E+03 -0.97702934931E+02  0.45923453574E+02  0.15460032852E+03  0.00000000000E+00 0.  1.
<scales pt_clust_5="13000.00000" pt_clust_6="13000.00000" pt_clust_7="13000.00000" pt_clust_8="13000.00000" pt_clust_9="52.03840" pt_clust_10="151.76459"></scales>
<clustering>
<clus scale="   52.038">  1  9  2 -1</clus>
<clus scale="   75.521">  5  6 -1 -1</clus>
<clus scale="   87.547">  7  8 -1 -1</clus>
<clus scale="  123.546">  1  7  2 -1</clus>
<clus scale="  151.765">  2 10  1 -1</clus>
<clus scale="   52.038">  1  5  2 -1</clus>
</clustering>
</event>
<event>
10    2  0.1898324E-006  0.9602149E+02  0.7546771E-02  0.1289060E+00
          4   -1    0    0  502    0  0.00000000000E+00  0.00000000000E+00  0.10149129712E+03  0.10149129712E+03  0.00000000000E+00 0. -1.
         -4   -1    0    0    0  501 -0.00000000000E+00 -0.00000000000E+00 -0.25255212087E+03  0.25255212087E+03  0.00000000000E+00 0.  1.
         23    2    1    2    0    0 -0.13625396664E+02 -0.48389413796E+02 -0.14806088544E+03  0.18112542585E+03  0.91417762438E+02 0.  0.
         23    2    1    2    0    0  0.30309635859E+02  0.10009429064E+02  0.23852381432E+02  0.10001435553E+03  0.91733704365E+02 0.  0.
        -11    1    4    4    0    0  0.47005448903E+02  0.39942088375E+02  0.22677070968E+02  0.65720104976E+02  0.00000000000E+00 0. -1.
         11    1    4    4    0    0 -0.16695813044E+02 -0.29932659310E+02  0.11753104642E+01  0.34294250557E+02  0.00000000000E+00 0.  1.
        -13    1    3    3    0    0  0.20914361215E+02 -0.27658876193E+02 -0.13406981817E+03  0.13848155141E+03  0.00000000000E+00 0.  1.
         13    1    3    3    0    0 -0.34539757878E+02 -0.20730537603E+02 -0.13991067273E+02  0.42643874438E+02  0.00000000000E+00 0. -1.
         21    1    1    2  502  503 -0.22907150703E+02  0.11685874187E+02  0.94662308032E+01  0.27402677505E+02  0.00000000000E+00 0. -1.
         21    1    1    2  503  501  0.62229115076E+01  0.26694110545E+02 -0.36318550548E+02  0.45500959103E+02  0.00000000000E+00 0. -1.
<scales pt_clust_5="13000.00000" pt_clust_6="13000.00000" pt_clust_7="13000.00000" pt_clust_8="13000.00000" pt_clust_9="25.71570" pt_clust_10="27.78576"></scales>
<clustering>
<clus scale="   25.716">  1  9  2 -1</clus>
<clus scale="   27.786">  2 10  1 -1</clus>
<clus scale="   91.418">  7  8 -1 -1</clus>
<clus scale="   91.734">  5  6 -1 -1</clus>
<clus scale="   95.720">  2  7  1 -1</clus>
<clus scale="   25.716">  1  5  2 -1</clus>
</clustering>
</event>
<event>
10    2  0.1898324E-006  0.1550872E+03  0.7546771E-02  0.1194775E+00
          2   -1    0    0  502    0  0.00000000000E+00  0.00000000000E+00  0.18885125008E+03  0.18885125008E+03  0.00000000000E+00 0. -1.
         -2   -1    0    0    0  501 -0.00000000000E+00 -0.00000000000E+00 -0.27360211535E+03  0.27360211535E+03  0.00000000000E+00 0.  1.
         23    2    1    2    0    0  0.70404910373E+02  0.78045540864E+02 -0.78603825967E+02  0.16068665323E+03  0.92702110096E+02 0.  0.
         23    2    1    2    0    0 -0.12519018521E+03 -0.73438029822E+02  0.78671351821E+02  0.18818319586E+03  0.90321685711E+02 0.  0.
        -11    1    3    3    0    0 -0.17254922690E+02  0.20035379491E+02  0.43295296149E+01  0.26793536815E+02  0.00000000000E+00 0. -1.
         11    1    3    3    0    0  0.87659833063E+02  0.58010161373E+02 -0.82933355582E+02  0.13389311641E+03  0.00000000000E+00 0.  1.
        -13    1    4    4    0    0 -0.67941256965E+02 -0.62080531863E+02  0.22973743593E+01  0.92061309806E+02  0.00000000000E+00 0.  1.
         13    1    4    4    0    0 -0.57248928243E+02 -0.11357497959E+02  0.76373977462E+02  0.96121886052E+02  0.00000000000E+00 0. -1.
         21    1    1    2  502  503  0.24592101772E+02 -0.63568025331E+01 -0.20737476240E+01  0.25484913915E+02  0.00000000000E+00 0.  1.
         21    1    1    2  503  501  0.30193173062E+02  0.17492914915E+01 -0.82744643509E+02  0.88098602427E+02  0.00000000000E+00 0.  1.
<scales pt_clust_5="13000.00000" pt_clust_6="13000.00000" pt_clust_7="13000.00000" pt_clust_8="13000.00000" pt_clust_9="25.40040" pt_clust_10="30.60948"></scales>
<clustering>
<clus scale="   25.400">  1  9  2 -1</clus>
<clus scale="   30.609">  2 10  1 -1</clus>
<clus scale="   90.322">  7  8 -1 -1</clus>
<clus scale="   92.702">  5  6 -1 -1</clus>
<clus scale="  153.676">  1  7  2 -1</clus>
<clus scale="   25.400">  1  5  2 -1</clus>
</clustering>
</event>
<event>
10    2  0.3416599E-006  0.6044453E+03  0.7546771E-02  0.9896604E-01
         -1   -1    0    0    0  501 -0.00000000000E+00  0.00000000000E+00  0.53221462516E+03  0.53221462516E+03  0.00000000000E+00 0.  1.
          1   -1    0    0  502    0  0.00000000000E+00 -0.00000000000E+00 -0.11675242290E+04  0.11675242290E+04  0.00000000000E+00 0. -1.
         23    2    1    2    0    0  0.54476943729E+03  0.14927378777E+03 -0.10681411446E+03  0.58270114506E+03  0.95262615364E+02 0.  0.
         23    2    1    2    0    0 -0.61157081045E+03 -0.16428832822E+03 -0.59923283311E+03  0.87651445095E+03  0.90488029392E+02 0.  0.
        -11    1    4    4    0    0 -0.55338385848E+03 -0.11984342542E+03 -0.53830385511E+03  0.78125999633E+03  0.00000000000E+00 0. -1.
         11    1    4    4    0    0 -0.58186951970E+02 -0.44444902800E+02 -0.60928978001E+02  0.95254454619E+02  0.00000000000E+00 0.  1.
        -11    1    3    3    0    0  0.47813638316E+03  0.13795966661E+03 -0.12421564337E+03  0.51291012524E+03  0.00000000000E+00 0.  1.
         11    1    3    3    0    0  0.66633054121E+02  0.11314121169E+02  0.17401528901E+02  0.69791019820E+02  0.00000000000E+00 0. -1.
         21    1    1    2  502  503  0.34023820464E+02  0.20052870298E+02 -0.78377438904E+02  0.87765374124E+02  0.00000000000E+00 0. -1.
         21    1    1    2  503  501  0.32777552696E+02 -0.50383298509E+01  0.14911478264E+03  0.15275788402E+03  0.00000000000E+00 0. -1.
<scales pt_clust_5="13000.00000" pt_clust_6="13000.00000" pt_clust_7="13000.00000" pt_clust_8="13000.00000" pt_clust_9="39.81050" pt_clust_10="33.16252"></scales>
<clustering>
<clus scale="   33.163">  1 10  2 -1</clus>
<clus scale="   39.811">  2  9  1 -1</clus>
<clus scale="   90.488">  5  6 -1 -1</clus>
<clus scale="   95.263">  7  8 -1 -1</clus>
<clus scale="  603.711">  2  5  1 -1</clus>
<clus scale="   39.811">  2  5  1 -1</clus>
</clustering>
</event>
<event>
10    2  0.1898324E-006  0.1857790E+03  0.7546771E-02  0.1162533E+00
         -2   -1    0    0    0  501 -0.00000000000E+00  0.00000000000E+00  0.67327590145E+03  0.67327590145E+03  0.00000000000E+00 0.  1.
          2   -1    0    0  502    0  0.00000000000E+00 -0.00000000000E+00 -0.14857626305E+03  0.14857626305E+03  0.00000000000E+00 0. -1.
         23    2    1    2    0    0 -0.13957416985E+03 -0.75960109157E+01  0.41149455152E+03  0.44384500301E+03  0.90177450030E+02 0.  0.
         23    2    1    2    0    0  0.20169721916E+03 -0.25745291511E+02  0.45757355270E+01  0.22322389405E+03  0.91996637265E+02 0.  0.
        -11    1    3    3    0    0 -0.17994884436E+02  0.33286033928E+02  0.84109897717E+02  0.92229338144E+02  0.00000000000E+00 0. -1.
         11    1    3    3    0    0 -0.12157928541E+03 -0.40882044844E+02  0.32738465380E+03  0.35161566486E+03  0.00000000000E+00 0.  1.
        -11    1    4    4    0    0  0.55743076812E+02  0.14515311453E+02 -0.34124125657E+02  0.66951033083E+02  0.00000000000E+00 0.  1.
         11    1    4    4    0    0  0.14595414235E+03 -0.40260602964E+02  0.38699861184E+02  0.15627286097E+03  0.00000000000E+00 0. -1.
         21    1    1    2  502  503 -0.42152446558E+02  0.24936718943E+02  0.53637210437E+01  0.49269039019E+02  0.00000000000E+00 0. -1.
         21    1    1    2  503  501 -0.19970602751E+02  0.84045834842E+01  0.10326563031E+03  0.10551422843E+03  0.00000000000E+00 0.  1.
<scales pt_clust_5="13000.00000" pt_clust_6="13000.00000" pt_clust_7="13000.00000" pt_clust_8="13000.00000" pt_clust_9="50.00721" pt_clust_10="21.66707"></scales>
<clustering>
<clus scale="   21.667">  1 10  2 -1</clus>
<clus scale="   50.007">  2  9  1 -1</clus>
<clus scale="   90.177">  5  6 -1 -1</clus>
<clus scale="   91.997">  7  8 -1 -1</clus>
<clus scale="  184.885">  1  5  2 -1</clus>
<clus scale="   50.007">  2  5  1 -1</clus>
</clustering>
</event>
<event>
10    2  0.1898324E-006  0.1577441E+03  0.7546771E-02  0.1207887E+00
          1   -1    0    0  502    0  0.00000000000E+00  0.00000000000E+00  0.18627945141E+03  0.18627945141E+03  0.00000000000E+00 0. -1.
         -1   -1    0    0    0  501 -0.00000000000E+00 -0.00000000000E+00 -0.77417084414E+03  0.77417084414E+03  0.00000000000E+00 0.  1.
         23    2    1    2    0    0 -0.38260556834E+02 -0.34181602253E+02 -0.24753303360E+03  0.27054477784E+03  0.96382684920E+02 0.  0.
         23    2    1    2    0    0 -0.77818987473E+02 -0.85635835632E+01 -0.11916149750E+03  0.16898847642E+03  0.90711150922E+02 0.  0.
        -11    1    4    4    0    0 -0.86306655665E+02 -0.31374046659E+02 -0.10922479932E+03  0.14269977716E+03  0.00000000000E+00 0.  1.
         11    1    4    4    0    0  0.84876681922E+01  0.22810463096E+02 -0.99366981841E+01  0.26288699260E+02  0.00000000000E+00 0. -1.
        -13    1    3    3    0    0 -0.56616441650E+02  0.10692818556E+02 -0.10200336865E+03  0.11715137665E+03  0.00000000000E+00 0.  1.
         13    1    3    3    0    0  0.18355884816E+02 -0.44874420809E+02 -0.14552966495E+03  0.15339340120E+03  0.00000000000E+00 0. -1.
         21    1    1    2  502  503  0.13657295387E+03 -0.42204085029E+02  0.10873964693E+03  0.17960419632E+03  0.00000000000E+00 0. -1.
         21    1    1    2  503  501 -0.20493409566E+02  0.84949270845E+02 -0.32993650856E+03  0.34131284496E+03  0.00000000000E+00 0. -1.
<scales pt_clust_5="13000.00000" pt_clust_6="13000.00000" pt_clust_7="13000.00000" pt_clust_8="13000.00000" pt_clust_9="129.05306" pt_clust_10="87.38626"></scales>
<clustering>
<clus scale="   87.386">  2 10  1 -1</clus>
<clus scale="   90.711">  5  6 -1 -1</clus>
<clus scale="   96.383">  7  8 -1 -1</clus>
<clus scale="  109.919">  2  7  1 -1</clus>
<clus scale="  129.053">  1  9  2 -1</clus>
<clus scale="  129.053">  1  5  2 -1</clus>
</clustering>
</event>
<event>
10    2  0.1898324E-006  0.1940127E+03  0.7546771E-02  0.1155323E+00
          2   -1    0    0  502    0  0.00000000000E+00  0.00000000000E+00  0.90315033255E+03  0.90315033255E+03  0.00000000000E+00 0. -1.
         -2   -1    0    0    0  501 -0.00000000000E+00 -0.00000000000E+00 -0.15165868332E+03  0.15165868332E+03  0.00000000000E+00 0.  1.
         23    2    1    2    0    0 -0.18136717474E+03  0.38214162301E+02  0.11732203349E+03  0.23642317103E+03  0.88187765490E+02 0.  0.
         23    2    1    2    0    0  0.20724004535E+03  0.85161710010E+02  0.53562289172E+03  0.58789928265E+03  0.92372783665E+02 0.  0.
        -11    1    3    3    0    0 -0.94727819044E+02  0.62464556696E+02  0.49707564230E+02  0.12387906395E+03  0.00000000000E+00 0. -1.
         11    1    3    3    0    0 -0.86639355701E+02 -0.24250394395E+02  0.67614469257E+02  0.11254410708E+03  0.00000000000E+00 0.  1.
        -13    1    4    4    0    0  0.70990201905E+02  0.20050294433E+02  0.84478597573E+02  0.11215282663E+03  0.00000000000E+00 0.  1.
         13    1    4    4    0    0  0.13624984345E+03  0.65111415576E+02  0.45114429414E+03  0.47574645602E+03  0.00000000000E+00 0. -1.
         21    1    1    2  502  503 -0.74180095031E+02 -0.32699586417E+02  0.98726186971E+02  0.12774509558E+03  0.00000000000E+00 0.  1.
         21    1    1    2  503  501  0.48307224425E+02 -0.90676285893E+02 -0.17946294727E+00  0.10274146661E+03  0.00000000000E+00 0.  1.
<scales pt_clust_5="13000.00000" pt_clust_6="13000.00000" pt_clust_7="13000.00000" pt_clust_8="13000.00000" pt_clust_9="81.06756" pt_clust_10="102.48506"></scales>
<clustering>
<clus scale="   81.068">  1  9  2 -1</clus>
<clus scale="   88.188">  5  6 -1 -1</clus>
<clus scale="   92.373">  7  8 -1 -1</clus>
<clus scale="  102.485">  2 10  1 -1</clus>
<clus scale="  192.055">  2  5  1 -1</clus>
<clus scale="   81.068">  1  5  2 -1</clus>
</clustering>
</event>
<event>
10    2  0.1898324E-006  0.1494732E+03  0.7546771E-02  0.1203375E+00
         -1   -1    0    0    0  501 -0.00000000000E+00  0.00000000000E+00  0.26877943830E+03  0.26877943830E+03  0.00000000000E+00 0.  1.
          1   -1    0    0  502    0  0.00000000000E+00 -0.00000000000E+00 -0.31895791502E+03  0.31895791502E+03  0.00000000000E+00 0. -1.
         23    2    1    2    0    0 -0.13015270336E+03 -0.49526453707E+02  0.10810651726E+03  0.19798211728E+03  0.90096081382E+02 0.  0.
         23    2    1    2    0    0  0.11708054365E+03  0.34597981811E+02 -0.21246445420E+03  0.26502673919E+03  0.10096115163E+03 0.  0.
        -11    1    3    3    0    0 -0.30321776553E+02 -0.13650176325E+02 -0.14132539431E+02  0.36131234657E+02  0.00000000000E+00 0. -1.
         11    1    3    3    0    0 -0.99830926807E+02 -0.35876277382E+02  0.12223905669E+03  0.16185088262E+03  0.00000000000E+00 0.  1.
        -11    1    4    4    0    0  0.33450031973E+02 -0.35836108296E+02 -0.62352232904E+02  0.79315397275E+02  0.00000000000E+00 0. -1.
         11    1    4    4    0    0  0.83630511680E+02  0.70434090107E+02 -0.15011222129E+03  0.18571134191E+03  0.00000000000E+00 0.  1.
         21    1    1    2  502  503 -0.19243007705E+02 -0.72397935711E+01 -0.27381735736E+02  0.34241311429E+02  0.00000000000E+00 0. -1.
         21    1    1    2  503  501  0.32315167413E+02  0.22168265467E+02  0.81561195954E+02  0.90487185414E+02  0.00000000000E+00 0.  1.
<scales pt_clust_5="13000.00000" pt_clust_6="13000.00000" pt_clust_7="13000.00000" pt_clust_8="13000.00000" pt_clust_9="20.55986" pt_clust_10="38.87890"></scales>
<clustering>
<clus scale="   20.560">  2  9  1 -1</clus>
<clus scale="   38.879">  1 10  2 -1</clus>
<clus scale="   90.096">  5  6 -1 -1</clus>
<clus scale="  100.961">  7  8 -1 -1</clus>
<clus scale="  142.360">  1  5  2 -1</clus>
<clus scale="   20.560">  2  5  1 -1</clus>
</clustering>
</event>
<event>
10    2  0.1898324E-006  0.1354570E+03  0.7546771E-02  0.1219807E+00
          1   -1    0    0  502    0  0.00000000000E+00  0.00000000000E+00  0.81070404522E+03  0.81070404522E+03  0.00000000000E+00 0. -1.
         -1   -1    0    0    0  501 -0.00000000000E+00 -0.00000000000E+00 -0.14646908237E+03  0.14646908237E+03  0.00000000000E+00 0.  1.
         23    2    1    2    0    0 -0.13680341943E+03  0.33087406802E+02  0.19010953218E+03  0.25399140173E+03  0.92520515961E+02 0.  0.
         23    2    1    2    0    0  0.59272498097E+02 -0.50043785529E+02  0.51266985411E+03  0.52652700124E+03  0.91557054467E+02 0.  0.
        -11    1    4    4    0    0  0.56558453527E+01  0.22912749116E+02  0.52877838451E+02  0.57905513192E+02  0.00000000000E+00 0.  1.
         11    1    4    4    0    0  0.53616652745E+02 -0.72956534645E+02  0.45979201565E+03  0.46862148805E+03  0.00000000000E+00 0. -1.
        -13    1    3    3    0    0 -0.10784015044E+03 -0.17402151625E+02  0.11056909321E+03  0.15542798108E+03  0.00000000000E+00 0.  1.
         13    1    3    3    0    0 -0.28963268988E+02  0.50489558427E+02  0.79540438965E+02  0.98563420655E+02  0.00000000000E+00 0. -1.
         21    1    1    2  502  503  0.22747695213E+02  0.27111202695E+01  0.59325137090E+02  0.63594651515E+02  0.00000000000E+00 0. -1.
         21    1    1    2  503  501  0.54783226115E+02  0.14245258457E+02 -0.97869560523E+02  0.11306007310E+03  0.00000000000E+00 0.  1.
<scales pt_clust_5="13000.00000" pt_clust_6="13000.00000" pt_clust_7="13000.00000" pt_clust_8="13000.00000" pt_clust_9="22.90868" pt_clust_10="56.83513"></scales>
<clustering>
<clus scale="   22.909">  1  9  2 -1</clus>
<clus scale="   56.835">  2 10  1 -1</clus>
<clus scale="   91.557">  5  6 -1 -1</clus>
<clus scale="   92.521">  7  8 -1 -1</clus>
<clus scale="  134.801">  1  5  2 -1</clus>
<clus scale="   22.909">  1  5  2 -1</clus>
</clustering>
</event>
<event>
10    2  0.1898324E-006  0.1192987E+03  0.7546771E-02  0.1244657E+00
         -2   -1    0    0    0  501 -0.00000000000E+00  0.00000000000E+00  0.14567752964E+03  0.14567752964E+03  0.00000000000E+00 0.  1.
          2   -1    0    0  503    0  0.00000000000E+00 -0.00000000000E+00 -0.20367176466E+03  0.20367176466E+03  0.00000000000E+00 0. -1.
         23    2    1    2    0    0 -0.27146254817E+02 -0.67582104959E+02  0.99481289715E+01  0.11784529174E+03  0.92110191914E+02 0.  0.
         23    2    1    2    0    0  0.43756305016E+02  0.64250791745E+02 -0.92022641473E+02  0.15089231020E+03  0.90871030944E+02 0.  0.
        -11    1    3    3    0    0  0.17487567218E+02 -0.13038803625E+02 -0.29800628993E+02  0.36931055976E+02  0.00000000000E+00 0. -1.
         11    1    3    3    0    0 -0.44633822035E+02 -0.54543301334E+02  0.39748757964E+02  0.80914235766E+02  0.00000000000E+00 0.  1.
        -11    1    4    4    0    0  0.47071265091E+02  0.85243796059E+02 -0.82402784369E+02  0.12756342593E+03  0.00000000000E+00 0. -1.
         11    1    4    4    0    0 -0.33149600754E+01 -0.20993004313E+02 -0.96198571041E+01  0.23328884266E+02  0.00000000000E+00 0.  1.
         21    1    1    2  502  501 -0.13476134396E+02 -0.35374883239E+02  0.86844956325E+01  0.38838241809E+02  0.00000000000E+00 0.  1.
         21    1    1    2  503  502 -0.31339158023E+01  0.38706196452E+02  0.15395781856E+02  0.41773450552E+02  0.00000000000E+00 0. -1.
<scales pt_clust_5="13000.00000" pt_clust_6="13000.00000" pt_clust_7="13000.00000" pt_clust_8="13000.00000" pt_clust_9="37.85484" pt_clust_10="31.05653"></scales>
<clustering>
<clus scale="   37.855">  1  9  2 -1</clus>
<clus scale="   31.057">  1 10  2 -1</clus>
<clus scale="   90.871">  7  8 -1 -1</clus>
<clus scale="   92.110">  5  6 -1 -1</clus>
<clus scale="  118.345">  2  7  1 -1</clus>
<clus scale="  118.345">  2  5  1 -1</clus>
</clustering>
</event>
<event>
10    2  0.1898324E-006  0.1794755E+03  0.7546771E-02  0.1171141E+00
          1   -1    0    0  502    0  0.00000000000E+00  0.00000000000E+00  0.31846801224E+03  0.31846801224E+03  0.00000000000E+00 0. -1.
         -1   -1    0    0    0  501 -0.00000000000E+00 -0.00000000000E+00 -0.11261458052E+04  0.11261458052E+04  0.00000000000E+00 0.  1.
         23    2    1    2    0    0  0.12057504216E+03  0.98838160919E+01 -0.90037844992E+03  0.91520777625E+03  0.11085075562E+03 0.  0.
         23    2    1    2    0    0 -0.18632418002E+03 -0.52277627895E+02  0.65574790214E+02  0.22388748200E+03  0.91519948896E+02 0.  0.
        -11    1    3    3    0    0 -0.14450641033E+02  0.23425029143E+02 -0.11978895084E+03  0.12291031592E+03  0.00000000000E+00 0. -1.
         11    1    3    3    0    0  0.13502568320E+03 -0.13541213051E+02 -0.78058949907E+03  0.79229746032E+03  0.00000000000E+00 0.  1.
        -11    1    4    4    0    0 -0.51824878783E+02 -0.37560364161E+02 -0.15897621416E+02  0.65949475991E+02  0.00000000000E+00 0.  1.
         11    1    4    4    0    0 -0.13449930124E+03 -0.14717263734E+02  0.81472411630E+02  0.15793800601E+03  0.00000000000E+00 0. -1.
         21    1    1    2  502  503  0.46583709950E+02  0.61029639474E+02  0.15601676657E+03  0.17388470427E+03  0.00000000000E+00 0. -1.
         21    1    1    2  503  501  0.19165427904E+02 -0.18635827671E+02 -0.12889089984E+03  0.13163385492E+03  0.00000000000E+00 0.  1.
<scales pt_clust_5="13000.00000" pt_clust_6="13000.00000" pt_clust_7="13000.00000" pt_clust_8="13000.00000" pt_clust_9="76.74848" pt_clust_10="26.73215"></scales>
<clustering>
<clus scale="   26.732">  2 10  1 -1</clus>
<clus scale="   76.748">  1  9  2 -1</clus>
<clus scale="   91.520">  7  8 -1 -1</clus>
<clus scale="  110.851">  5  6 -1 -1</clus>
<clus scale="  168.224">  1  7  2 -1</clus>
<clus scale="   76.748">  1  5  2 -1</clus>
</clustering>
</event>
<event>
10    2  0.1898324E-006  0.1556672E+03  0.7546771E-02  0.1195946E+00
         -1   -1    0    0    0  501 -0.00000000000E+00  0.00000000000E+00  0.84655226439E+02  0.84655226439E+02  0.00000000000E+00 0.  1.
          1   -1    0    0  502    0  0.00000000000E+00 -0.00000000000E+00 -0.85446891003E+03  0.85446891003E+03  0.00000000000E+00 0. -1.
         23    2    1    2    0    0 -0.80386113568E+02  0.99459369775E+02 -0.25625762141E+03  0.29705231406E+03  0.78854392838E+02 0.  0.
         23    2    1    2    0    0  0.45339302295E+02 -0.11141925580E+03 -0.38173925062E+03  0.41073842801E+03  0.92256695575E+02 0.  0.
        -11    1    4    4    0    0  0.37733745193E+02 -0.47981216071E+02 -0.30421361036E+03  0.31027722016E+03  0.00000000000E+00 0.  1.
         11    1    4    4    0    0  0.76055571025E+01 -0.63438039729E+02 -0.77525640261E+02  0.10046120784E+03  0.00000000000E+00 0. -1.
        -11    1    3    3    0    0  0.14709582320E+02  0.26011810930E+02 -0.57369649124E+02  0.64685877597E+02  0.00000000000E+00 0. -1.
         11    1    3    3    0    0 -0.95095695888E+02  0.73447558845E+02 -0.19888797228E+03  0.23236643647E+03  0.00000000000E+00 0.  1.
         21    1    1    2  502  503  0.16794366217E+02 -0.22014723562E+02 -0.17283058090E+03  0.17503459225E+03  0.00000000000E+00 0.  1.
         21    1    1    2  503  501  0.18252445056E+02  0.33974609587E+02  0.41013769345E+02  0.56298802145E+02  0.00000000000E+00 0.  1.
<scales pt_clust_5="13000.00000" pt_clust_6="13000.00000" pt_clust_7="13000.00000" pt_clust_8="13000.00000" pt_clust_9="27.68933" pt_clust_10="38.43967"></scales>
<clustering>
<clus scale="   27.689">  2  9  1 -1</clus>
<clus scale="   38.440">  1 10  2 -1</clus>
<clus scale="   78.854">  7  8 -1 -1</clus>
<clus scale="   92.257">  5  6 -1 -1</clus>
<clus scale="  148.118">  1  7  2 -1</clus>
<clus scale="   27.689">  2  5  1 -1</clus>
</clustering>
</event>
<event>
10    2  0.1898324E-006  0.1394651E+03  0.7546771E-02  0.1214571E+00
          1   -1    0    0  502    0  0.00000000000E+00  0.00000000000E+00  0.81304209217E+03  0.81304209217E+03  0.00000000000E+00 0. -1.
         -1   -1    0    0    0  501 -0.00000000000E+00 -0.00000000000E+00 -0.11049371256E+03  0.11049371256E+03  0.00000000000E+00 0.  1.
         23    2    1    2    0    0  0.44197322168E+02 -0.89272478989E+02  0.52472044567E+02  0.14642266853E+03  0.93612518435E+02 0.  0.
         23    2    1    2    0    0 -0.49939071165E+02  0.54699780846E+02  0.46483908676E+03  0.47947864867E+03  0.91314955532E+02 0.  0.
        -11    1    3    3    0    0  0.25823331678E+02 -0.92672675501E+01  0.57986652734E+02  0.64149657849E+02  0.00000000000E+00 0. -1.
         11    1    3    3    0    0  0.18373990489E+02 -0.80005211439E+02 -0.55146081670E+01  0.82273010684E+02  0.00000000000E+00 0.  1.
        -13    1    4    4    0    0  0.18316064337E+02  0.15494924932E+02  0.34633267425E+02  0.42131153841E+02  0.00000000000E+00 0.  1.
         13    1    4    4    0    0 -0.68255135502E+02  0.39204855914E+02  0.43020581933E+03  0.43734749483E+03  0.00000000000E+00 0. -1.
         21    1    1    2  502  503  0.46886901972E+02  0.68808105405E+02  0.21903784702E+03  0.23432992846E+03  0.00000000000E+00 0. -1.
         21    1    1    2  503  501 -0.41145152974E+02 -0.34235407262E+02 -0.33800598736E+02  0.63304559067E+02  0.00000000000E+00 0.  1.
<scales pt_clust_5="13000.00000" pt_clust_6="13000.00000" pt_clust_7="13000.00000" pt_clust_8="13000.00000" pt_clust_9="76.93339" pt_clust_10="53.52557"></scales>
<clustering>
<clus scale="   53.526">  2 10  1 -1</clus>
<clus scale="   76.933">  1  9  2 -1</clus>
<clus scale="   91.315">  7  8 -1 -1</clus>
<clus scale="   93.613">  5  6 -1 -1</clus>
<clus scale="  137.933">  1  7  2 -1</clus>
<clus scale="   76.933">  1  5  2 -1</clus>
</clustering>
</event>
<event>
10    2  0.1898324E-006  0.1035257E+03  0.7546771E-02  0.1276084E+00
         -1   -1    0    0    0  501 -0.00000000000E+00  0.00000000000E+00  0.56844756083E+02  0.56844756083E+02  0.00000000000E+00 0.  1.
          1   -1    0    0  502    0  0.00000000000E+00 -0.00000000000E+00 -0.35651984284E+03  0.35651984284E+03  0.00000000000E+00 0. -1.
         23    2    1    2    0    0 -0.31393168911E+02  0.34210596073E+02 -0.76263368681E+02  0.13131924091E+03  0.96295096924E+02 0.  0.
         23    2    1    2    0    0 -0.13970339407E+02 -0.35355867560E+02 -0.11193048562E+03  0.14855491156E+03  0.89971775480E+02 0.  0.
        -13    1    4    4    0    0  0.20606496441E+02  0.15770961136E+02 -0.68037212638E+02  0.72817671030E+02  0.00000000000E+00 0. -1.
         13    1    4    4    0    0 -0.34576835848E+02 -0.51126828696E+02 -0.43893272980E+02  0.75737240527E+02  0.00000000000E+00 0.  1.
        -13    1    3    3    0    0 -0.65172204036E+02  0.15605954987E+02 -0.58093495938E+02  0.88689437253E+02  0.00000000000E+00 0.  1.
         13    1    3    3    0    0  0.33779035125E+02  0.18604641087E+02 -0.18169872743E+02  0.42629803653E+02  0.00000000000E+00 0. -1.
         21    1    1    2  502  503  0.37102234157E+02 -0.18013640988E+02 -0.10303191475E+03  0.11098036988E+03  0.00000000000E+00 0. -1.
         21    1    1    2  503  501  0.82612741607E+01  0.19158912475E+02 -0.84493177064E+01  0.22510076581E+02  0.00000000000E+00 0.  1.
<scales pt_clust_5="13000.00000" pt_clust_6="13000.00000" pt_clust_7="13000.00000" pt_clust_8="13000.00000" pt_clust_9="41.20288" pt_clust_10="20.86415"></scales>
<clustering>
<clus scale="   20.864">  1 10  2 -1</clus>
<clus scale="   41.203">  2  9  1 -1</clus>
<clus scale="   89.972">  5  6 -1 -1</clus>
<clus scale="   96.295">  7  8 -1 -1</clus>
<clus scale="   97.672">  2  5  1 -1</clus>
<clus scale="   41.203">  2  5  1 -1</clus>
</clustering>
</event>
<event>
10    2  0.1898324E-006  0.4274025E+03  0.7546771E-02  0.1034700E+00
         -2   -1    0    0    0  501 -0.00000000000E+00  0.00000000000E+00  0.33691505645E+03  0.33691505645E+03  0.00000000000E+00 0.  1.
          2   -1    0    0  502    0  0.00000000000E+00 -0.00000000000E+00 -0.13354071044E+04  0.13354071044E+04  0.00000000000E+00 0. -1.
         23    2    1    2    0    0  0.98706038439E+02  0.32939686536E+03 -0.11431882559E+02  0.35607227811E+03  0.91714788166E+02 0.  0.
         23    2    1    2    0    0 -0.12672495891E+03 -0.40139056568E+03 -0.96743376512E+03  0.10589308266E+04  0.90734801234E+02 0.  0.
        -11    1    3    3    0    0  0.68889606510E+02  0.23615485280E+03  0.33665566800E+02  0.24829068202E+03  0.00000000000E+00 0.  1.
         11    1    3    3    0    0  0.29816431929E+02  0.93242012555E+02 -0.45097449359E+02  0.10778159610E+03  0.00000000000E+00 0. -1.
        -11    1    4    4    0    0 -0.89475277700E+02 -0.24873569994E+03 -0.49664628741E+03  0.56261248523E+03  0.00000000000E+00 0.  1.
         11    1    4    4    0    0 -0.37249681212E+02 -0.15265486574E+03 -0.47078747771E+03  0.49631834134E+03  0.00000000000E+00 0. -1.
         21    1    1    2  502  503 -0.78610376444E+01 -0.22439342914E+02 -0.11557498410E+03  0.11799532607E+03  0.00000000000E+00 0. -1.
         21    1    1    2  503  501  0.35879958118E+02  0.94433043231E+02  0.95948583791E+02  0.13932373014E+03  0.00000000000E+00 0.  1.
<scales pt_clust_5="13000.00000" pt_clust_6="13000.00000" pt_clust_7="13000.00000" pt_clust_8="13000.00000" pt_clust_9="23.77646" pt_clust_10="100.59666"></scales>
<clustering>
<clus scale="   23.776">  2  9  1 -1</clus>
<clus scale="   90.735">  7  8 -1 -1</clus>
<clus scale="   91.715">  5  6 -1 -1</clus>
<clus scale="  100.597">  1 10  2 -1</clus>
<clus scale="  427.193">  2  7  1 -1</clus>
<clus scale="   23.776">  2  5  1 -1</clus>
</clustering>
</event>
<event>
10    2  0.1898324E-006  0.1831870E+03  0.7546771E-02  0.1165740E+00
         -1   -1    0    0    0  501 -0.00000000000E+00  0.00000000000E+00  0.10532464924E+03  0.10532464924E+03  0.00000000000E+00 0.  1.
          1   -1    0    0  502    0  0.00000000000E+00 -0.00000000000E+00 -0.10899903822E+04  0.10899903822E+04  0.00000000000E+00 0. -1.
         23    2    1    2    0    0 -0.71781903628E+02  0.91864807927E+02 -0.45594406514E+02  0.14963631926E+03  0.81978006276E+02 0.  0.
         23    2    1    2    0    0  0.11764546364E+03 -0.95830145257E+02 -0.45538786276E+03  0.48848203810E+03  0.90624081444E+02 0.  0.
        -13    1    3    3    0    0  0.88494420638E+01  0.51518445724E+02 -0.14241927925E+02  0.54178366399E+02  0.00000000000E+00 0.  1.
         13    1    3    3    0    0 -0.80631345692E+02  0.40346362203E+02 -0.31352478589E+02  0.95457952863E+02  0.00000000000E+00 0. -1.
        -13    1    4    4    0    0  0.11770195849E+03 -0.57449032032E+02 -0.28249331981E+03  0.31137857674E+03  0.00000000000E+00 0.  1.
         13    1    4    4    0    0 -0.56494840746E-01 -0.38381113225E+02 -0.17289454295E+03  0.17710346136E+03  0.00000000000E+00 0. -1.
         21    1    1    2  502  503 -0.42147990902E+02 -0.10932832546E+03 -0.39859446073E+03  0.41545960094E+03  0.00000000000E+00 0. -1.
         21    1    1    2  503  501 -0.37155691145E+01  0.11329366279E+03 -0.85089002967E+02  0.14173707316E+03  0.00000000000E+00 0. -1.
<scales pt_clust_5="13000.00000" pt_clust_6="13000.00000" pt_clust_7="13000.00000" pt_clust_8="13000.00000" pt_clust_9="105.85196" pt_clust_10="113.35457"></scales>
<clustering>
<clus scale="   81.978">  5  6 -1 -1</clus>
<clus scale="   90.624">  7  8 -1 -1</clus>
<clus scale="  113.355">  1 10  2 -1</clus>
<clus scale="  105.852">  2  9  1 -1</clus>
<clus scale="  179.067">  1  5  2 -1</clus>
<clus scale="  105.852">  2  5  1 -1</clus>
</clustering>
</event>
<event>
10    2  0.1898324E-006  0.9430689E+02  0.7546771E-02  0.1296367E+00
          1   -1    0    0  502    0  0.00000000000E+00  0.00000000000E+00  0.53254673613E+03  0.53254673613E+03  0.00000000000E+00 0. -1.
         -1   -1    0    0    0  501 -0.00000000000E+00 -0.00000000000E+00 -0.44776140055E+02  0.44776140055E+02  0.00000000000E+00 0.  1.
         23    2    1    2    0    0 -0.47580269164E+02 -0.24891140017E+02  0.13140636576E+03  0.17029793285E+03  0.94076044272E+02 0.  0.
         23    2    1    2    0    0 -0.27537940186E+02 -0.10189658349E+02  0.23153187197E+03  0.24939632686E+03  0.87916738040E+02 0.  0.
        -11    1    4    4    0    0 -0.73838889745E+01 -0.45817901225E+02  0.16388064118E+03  0.17032517853E+03  0.00000000000E+00 0. -1.
         11    1    4    4    0    0 -0.20154051212E+02  0.35628242876E+02  0.67651230796E+02  0.79071148334E+02  0.00000000000E+00 0.  1.
        -13    1    3    3    0    0  0.73104660294E+01  0.29822543485E+02  0.40883722206E+02  0.51130282171E+02  0.00000000000E+00 0.  1.
         13    1    3    3    0    0 -0.54890735193E+02 -0.54713683502E+02  0.90522643551E+02  0.11916765068E+03  0.00000000000E+00 0. -1.
         21    1    1    2  502  503  0.62414622413E+01  0.21596086498E+02  0.51137045238E+02  0.55860041162E+02  0.00000000000E+00 0. -1.
         21    1    1    2  503  501  0.68876747109E+02  0.13484711868E+02  0.73695313108E+02  0.10176857531E+03  0.00000000000E+00 0.  1.
<scales pt_clust_5="13000.00000" pt_clust_6="13000.00000" pt_clust_7="13000.00000" pt_clust_8="13000.00000" pt_clust_9="22.47992" pt_clust_10="72.15898"></scales>
<clustering>
<clus scale="   22.480">  1  9  2 -1</clus>
<clus scale="   72.159">  2 10  1 -1</clus>
<clus scale="   87.917">  5  6 -1 -1</clus>
<clus scale="   88.164">  1  5  2 -1</clus>
<clus scale="   94.076">  7  8 -1 -1</clus>
<clus scale="   22.480">  1  5  2 -1</clus>
</clustering>
</event>
<event>
10    2  0.1898324E-006  0.9889254E+02  0.7546771E-02  0.1283294E+00
         -1   -1    0    0    0  501 -0.00000000000E+00  0.00000000000E+00  0.44665346355E+02  0.44665346355E+02  0.00000000000E+00 0.  1.
          1   -1    0    0  502    0  0.00000000000E+00 -0.00000000000E+00 -0.67471738768E+03  0.67471738768E+03  0.00000000000E+00 0. -1.
         23    2    1    2    0    0  0.39792924342E+02 -0.95185485433E+01 -0.18700097933E+03  0.21185466933E+03  0.90768689821E+02 0.  0.
         23    2    1    2    0    0 -0.27991340971E+02 -0.28252961400E+02 -0.28522148492E+03  0.30155176291E+03  0.89445096329E+02 0.  0.
        -13    1    4    4    0    0 -0.53955347149E+02 -0.38778222058E+02 -0.16026287725E+03  0.17349097906E+03  0.00000000000E+00 0. -1.
         13    1    4    4    0    0  0.25964006178E+02  0.10525260658E+02 -0.12495860768E+03  0.12806078385E+03  0.00000000000E+00 0.  1.
        -13    1    3    3    0    0  0.65213506632E+02  0.82408407142E+01 -0.14865427869E+03  0.16253863379E+03  0.00000000000E+00 0.  1.
         13    1    3    3    0    0 -0.25420582290E+02 -0.17759389257E+02 -0.38346700639E+02  0.49316035533E+02  0.00000000000E+00 0. -1.
         21    1    1    2  502  503 -0.33394951909E+02 -0.19745877117E+00 -0.15881227208E+03  0.16228554947E+03  0.00000000000E+00 0. -1.
         21    1    1    2  503  501  0.21593368538E+02  0.37968968714E+02  0.98269499794E+00  0.43690752334E+02  0.00000000000E+00 0.  1.
<scales pt_clust_5="13000.00000" pt_clust_6="13000.00000" pt_clust_7="13000.00000" pt_clust_8="13000.00000" pt_clust_9="33.39554" pt_clust_10="43.00372"></scales>
<clustering>
<clus scale="   33.396">  2  9  1 -1</clus>
<clus scale="   43.004">  1 10  2 -1</clus>
<clus scale="   89.445">  5  6 -1 -1</clus>
<clus scale="   90.769">  7  8 -1 -1</clus>
<clus scale="   97.679">  2  5  1 -1</clus>
<clus scale="   33.396">  2  5  1 -1</clus>
</clustering>
</event>
<event>
10    2  0.1898324E-006  0.9625604E+02  0.7546771E-02  0.1290973E+00
         -1   -1    0    0    0  501 -0.00000000000E+00  0.00000000000E+00  0.62687146276E+03  0.62687146276E+03  0.00000000000E+00 0.  1.
          1   -1    0    0  502    0  0.00000000000E+00 -0.00000000000E+00 -0.15006468435E+03  0.15006468435E+03  0.00000000000E+00 0. -1.
         23    2    1    2    0    0  0.29114035991E+02 -0.87093325872E+01 -0.62396178801E+01  0.99990120380E+02  0.95055835048E+02 0.  0.
         23    2    1    2    0    0  0.57931848505E+01  0.11959680646E+02 -0.10339160501E+02  0.91970782826E+02  0.90416434910E+02 0.  0.
        -11    1    4    4    0    0 -0.13104311080E+02 -0.36310519591E+02  0.21062376378E+01  0.38660225540E+02  0.00000000000E+00 0.  1.
         11    1    4    4    0    0  0.18897495930E+02  0.48270200237E+02 -0.12445398139E+02  0.53310557286E+02  0.00000000000E+00 0. -1.
        -13    1    3    3    0    0 -0.24203146159E+02 -0.28728361377E+02  0.13193479260E+02  0.39814305550E+02  0.00000000000E+00 0.  1.
         13    1    3    3    0    0  0.53317182150E+02  0.20019028790E+02 -0.19433097140E+02  0.60175814831E+02  0.00000000000E+00 0. -1.
         21    1    1    2  502  503  0.33168606392E+02  0.44225840851E+02 -0.24509928817E+02  0.60471630204E+02  0.00000000000E+00 0. -1.
         21    1    1    2  503  501 -0.68075827233E+02 -0.47476188910E+02  0.51789548561E+03  0.52450361370E+03  0.00000000000E+00 0.  1.
<scales pt_clust_5="13000.00000" pt_clust_6="13000.00000" pt_clust_7="13000.00000" pt_clust_8="13000.00000" pt_clust_9="55.28184" pt_clust_10="81.38492"></scales>
<clustering>
<clus scale="   55.282">  2  9  1 -1</clus>
<clus scale="   81.385">  1 10  2 -1</clus>
<clus scale="   90.416">  5  6 -1 -1</clus>
<clus scale="   91.677">  2  5  1 -1</clus>
<clus scale="   95.056">  7  8 -1 -1</clus>
<clus scale="   55.282">  2  5  1 -1</clus>
</clustering>
</event>
<event>
10    2  0.1898324E-006  0.1397305E+03  0.7546771E-02  0.1216564E+00
         -2   -1    0    0    0  501 -0.00000000000E+00  0.00000000000E+00  0.76431054466E+02  0.76431054466E+02  0.00000000000E+00 0.  1.
          2   -1    0    0  502    0  0.00000000000E+00 -0.00000000000E+00 -0.52827741965E+03  0.52827741965E+03  0.00000000000E+00 0. -1.
         23    2    1    2    0    0  0.90170340603E+02  0.68594744312E+02 -0.74997322925E+02  0.15721387291E+03  0.79092819634E+02 0.  0.
         23    2    1    2    0    0 -0.53949620630E+02 -0.45028099395E+02 -0.24748880823E+03  0.27327654610E+03  0.92148082713E+02 0.  0.
        -11    1    4    4    0    0 -0.17315430039E+02 -0.67139812005E+02 -0.18477023697E+03  0.19735151113E+03  0.00000000000E+00 0. -1.
         11    1    4    4    0    0 -0.36634190592E+02  0.22111712610E+02 -0.62718571253E+02  0.75925034968E+02  0.00000000000E+00 0.  1.
        -11    1    3    3    0    0  0.33574238817E+02 -0.43793206445E+01  0.59890043470E+01  0.34384242533E+02  0.00000000000E+00 0. -1.
         11    1    3    3    0    0  0.56596101786E+02  0.72974064956E+02 -0.80986327272E+02  0.12282963038E+03  0.00000000000E+00 0.  1.
         21    1    1    2  502  503 -0.54630157365E+02 -0.32419272763E+02 -0.13809192351E+03  0.15200277194E+03  0.00000000000E+00 0. -1.
         21    1    1    2  503  501  0.18409437393E+02  0.88526278464E+01  0.87316894788E+01  0.22215283164E+02  0.00000000000E+00 0. -1.
<scales pt_clust_5="13000.00000" pt_clust_6="13000.00000" pt_clust_7="13000.00000" pt_clust_8="13000.00000" pt_clust_9="61.20370" pt_clust_10="20.42734"></scales>
<clustering>
<clus scale="   20.427">  1 10  2 -1</clus>
<clus scale="   61.204">  2  9  1 -1</clus>
<clus scale="   79.093">  7  8 -1 -1</clus>
<clus scale="   92.148">  5  6 -1 -1</clus>
<clus scale="  131.488">  1  7  2 -1</clus>
<clus scale="   61.204">  2  5  1 -1</clus>
</clustering>
</event>
<event>
10    2  0.1898324E-006  0.1303197E+03  0.7546771E-02  0.1248556E+00
         -2   -1    0    0    0  501 -0.00000000000E+00  0.00000000000E+00  0.10448834530E+03  0.10448834530E+03  0.00000000000E+00 0.  1.
          2   -1    0    0  502    0  0.00000000000E+00 -0.00000000000E+00 -0.51121203959E+03  0.51121203959E+03  0.00000000000E+00 0. -1.
         23    2    1    2    0    0  0.26003611393E+02 -0.92028416855E+02 -0.38714279974E+02  0.13890017514E+03  0.93000246587E+02 0.  0.
         23    2    1    2    0    0 -0.33248321264E+02 -0.14903319076E+02 -0.42396282400E+02  0.99571165347E+02  0.82397890876E+02 0.  0.
        -11    1    3    3    0    0  0.54048785544E+02 -0.66483565668E+02 -0.50149607211E+02  0.99278994889E+02  0.00000000000E+00 0.  1.
         11    1    3    3    0    0 -0.28045174151E+02 -0.25544851187E+02  0.11435327237E+02  0.39621180249E+02  0.00000000000E+00 0. -1.
        -11    1    4    4    0    0 -0.57072433883E+02 -0.25046305685E+02 -0.20352318120E+02  0.65565211741E+02  0.00000000000E+00 0.  1.
         11    1    4    4    0    0  0.23824112619E+02  0.10142986609E+02 -0.22043964281E+02  0.34005953606E+02  0.00000000000E+00 0. -1.
         21    1    1    2  502  503  0.66490406610E+02  0.37958839336E+02 -0.24156951601E+03  0.25341207296E+03  0.00000000000E+00 0. -1.
         21    1    1    2  503  501 -0.59245696738E+02  0.68972896594E+02 -0.84043615904E+02  0.12381697146E+03  0.00000000000E+00 0. -1.
<scales pt_clust_5="13000.00000" pt_clust_6="13000.00000" pt_clust_7="13000.00000" pt_clust_8="13000.00000" pt_clust_9="76.56270" pt_clust_10="91.29176"></scales>
<clustering>
<clus scale="   76.563">  2  9  1 -1</clus>
<clus scale="   82.398">  7  8 -1 -1</clus>
<clus scale="   83.947">  2  7  1 -1</clus>
<clus scale="   91.292">  2 10  1 -1</clus>
<clus scale="   93.000">  5  6 -1 -1</clus>
<clus scale="   76.563">  2  5  1 -1</clus>
</clustering>
</event>
<event>
10    2  0.1898324E-006  0.1019094E+03  0.7546771E-02  0.1277666E+00
         -1   -1    0    0    0  501 -0.00000000000E+00  0.00000000000E+00  0.89979394249E+02  0.89979394249E+02  0.00000000000E+00 0.  1.
          1   -1    0    0  502    0  0.00000000000E+00 -0.00000000000E+00 -0.78028774496E+03  0.78028774496E+03  0.00000000000E+00 0. -1.
         23    2    1    2    0    0 -0.18642319934E+02  0.17865319112E+02 -0.74030298595E+02  0.12251394518E+03  0.94140724097E+02 0.  0.
         23    2    1    2    0    0  0.36797467935E+02  0.75030102909E+02 -0.36125152756E+03  0.38187921049E+03  0.91353682162E+02 0.  0.
        -11    1    3    3    0    0 -0.25665825505E+02 -0.34271953721E+02 -0.46229936387E+02  0.63011970522E+02  0.00000000000E+00 0. -1.
         11    1    3    3    0    0  0.70235055712E+01  0.52137272833E+02 -0.27800362208E+02  0.59501974655E+02  0.00000000000E+00 0.  1.
        -13    1    4    4    0    0 -0.15916251490E+02  0.68451941905E+02 -0.19019361157E+03  0.20276243561E+03  0.00000000000E+00 0.  1.
         13    1    4    4    0    0  0.52713719425E+02  0.65781610039E+01 -0.17105791599E+03  0.17911677488E+03  0.00000000000E+00 0. -1.
         21    1    1    2  502  503  0.47175935607E+01 -0.56622955732E+02 -0.29906024144E+03  0.30440999132E+03  0.00000000000E+00 0. -1.
         21    1    1    2  503  501 -0.22872741562E+02 -0.36272466289E+02  0.44033716890E+02  0.61463992226E+02  0.00000000000E+00 0. -1.
<scales pt_clust_5="13000.00000" pt_clust_6="13000.00000" pt_clust_7="13000.00000" pt_clust_8="13000.00000" pt_clust_9="59.30873" pt_clust_10="42.88186"></scales>
<clustering>
<clus scale="   42.882">  1 10  2 -1</clus>
<clus scale="   59.309">  2  9  1 -1</clus>
<clus scale="   91.354">  7  8 -1 -1</clus>
<clus scale="   94.141">  5  6 -1 -1</clus>
<clus scale="   99.341">  2  7  1 -1</clus>
<clus scale="   59.309">  2  5  1 -1</clus>
</clustering>
</event>
<event>
10    2  0.1898324E-006  0.1601517E+03  0.7546771E-02  0.1188927E+00
          1   -1    0    0  502    0  0.00000000000E+00  0.00000000000E+00  0.18765163315E+03  0.18765163315E+03  0.00000000000E+00 0. -1.
         -1   -1    0    0    0  501 -0.00000000000E+00 -0.00000000000E+00 -0.61677568529E+03  0.61677568529E+03  0.00000000000E+00 0.  1.
         23    2    1    2    0    0  0.12648815948E+02  0.11863365668E+03 -0.47393070900E+03  0.49705155689E+03  0.90642132747E+02 0.  0.
         23    2    1    2    0    0  0.22532221398E+01 -0.11877854581E+03  0.94815261529E+02  0.17824625166E+03  0.93104094732E+02 0.  0.
        -11    1    4    4    0    0  0.36386768884E+02 -0.24200478721E+02  0.54645981924E+02  0.69970304134E+02  0.00000000000E+00 0.  1.
         11    1    4    4    0    0 -0.34133546744E+02 -0.94578067094E+02  0.40169279605E+02  0.10827594753E+03  0.00000000000E+00 0. -1.
        -13    1    3    3    0    0  0.16489700805E+02  0.49011132794E+02 -0.69353900955E+02  0.86509912427E+02  0.00000000000E+00 0. -1.
         13    1    3    3    0    0 -0.38408848570E+01  0.69622523888E+02 -0.40457680804E+03  0.41054164446E+03  0.00000000000E+00 0.  1.
         21    1    1    2  502  503 -0.34844440843E+02 -0.10695644315E+02  0.29218763287E+02  0.46714751342E+02  0.00000000000E+00 0.  1.
         21    1    1    2  503  501  0.19942402755E+02  0.10840533448E+02 -0.79227367958E+02  0.82414758548E+02  0.00000000000E+00 0.  1.
<scales pt_clust_5="13000.00000" pt_clust_6="13000.00000" pt_clust_7="13000.00000" pt_clust_8="13000.00000" pt_clust_9="36.08601" pt_clust_10="22.69838"></scales>
<clustering>
<clus scale="   22.698">  2 10  1 -1</clus>
<clus scale="   36.086">  1  9  2 -1</clus>
<clus scale="   90.642">  7  8 -1 -1</clus>
<clus scale="   93.104">  5  6 -1 -1</clus>
<clus scale="  158.733">  2  7  1 -1</clus>
<clus scale="   36.086">  1  5  2 -1</clus>
</clustering>
</event>
<event>
10    2  0.1898324E-006  0.2349931E+03  0.7546771E-02  0.1123243E+00
          2   -1    0    0  502    0  0.00000000000E+00  0.00000000000E+00  0.93208111925E+03  0.93208111925E+03  0.00000000000E+00 0. -1.
         -2   -1    0    0    0  501 -0.00000000000E+00 -0.00000000000E+00 -0.15469477917E+03  0.15469477917E+03  0.00000000000E+00 0.  1.
         23    2    1    2    0    0 -0.18725484024E+03 -0.86173759930E+02  0.38315610921E+00  0.22564650880E+03  0.91792744971E+02 0.  0.
         23    2    1    2    0    0  0.16011256836E+03  0.14276833006E+03  0.43338094779E+03  0.49201128354E+03  0.90759168163E+02 0.  0.
        -13    1    3    3    0    0 -0.20407408725E+02  0.19390946336E+02  0.17213873315E+01  0.28203444914E+02  0.00000000000E+00 0.  1.
         13    1    3    3    0    0 -0.16684743151E+03 -0.10556470627E+03 -0.13382312222E+01  0.19744306388E+03  0.00000000000E+00 0. -1.
        -13    1    4    4    0    0  0.11939157651E+03  0.49431177224E+02  0.27290630232E+03  0.30195304216E+03  0.00000000000E+00 0. -1.
         13    1    4    4    0    0  0.40720991848E+02  0.93337152837E+02  0.16047464547E+03  0.19005824138E+03  0.00000000000E+00 0.  1.
         21    1    1    2  502  503  0.32186653159E+02 -0.29764074901E+02  0.33851751905E+03  0.34134438842E+03  0.00000000000E+00 0. -1.
         21    1    1    2  503  501 -0.50443812795E+01 -0.26830495229E+02  0.51047171297E+01  0.27773717679E+02  0.00000000000E+00 0.  1.
<scales pt_clust_5="13000.00000" pt_clust_6="13000.00000" pt_clust_7="13000.00000" pt_clust_8="13000.00000" pt_clust_9="43.98294" pt_clust_10="27.30057"></scales>
<clustering>
<clus scale="   27.301">  2 10  1 -1</clus>
<clus scale="   43.983">  1  9  2 -1</clus>
<clus scale="   90.759">  7  8 -1 -1</clus>
<clus scale="   91.793">  5  6 -1 -1</clus>
<clus scale="  234.591">  1  7  2 -1</clus>
<clus scale="   43.983">  1  5  2 -1</clus>
</clustering>
</event>
<event>
10    2  0.1898324E-006  0.2145693E+03  0.7546771E-02  0.1138010E+00
          1   -1    0    0  502    0  0.00000000000E+00  0.00000000000E+00  0.25193869212E+03  0.25193869212E+03  0.00000000000E+00 0. -1.
         -1   -1    0    0    0  501 -0.00000000000E+00 -0.00000000000E+00 -0.48527538840E+03  0.48527538840E+03  0.00000000000E+00 0.  1.
         23    2    1    2    0    0  0.10328883940E+03 -0.18793428387E+03 -0.23588102662E+03  0.33149331150E+03  0.90884968232E+02 0.  0.
         23    2    1    2    0    0 -0.11518539090E+03  0.14353627493E+03 -0.73598540137E+02  0.21799242200E+03  0.90739266253E+02 0.  0.
        -11    1    4    4    0    0  0.51216598118E+01  0.24163920947E+02  0.12734369298E+02  0.27790117599E+02  0.00000000000E+00 0. -1.
         11    1    4    4    0    0 -0.12030705072E+03  0.11937235398E+03 -0.86332909435E+02  0.19020230440E+03  0.00000000000E+00 0.  1.
        -13    1    3    3    0    0  0.11956650733E+03 -0.17115818193E+03 -0.20347266119E+03  0.29153455502E+03  0.00000000000E+00 0.  1.
         13    1    3    3    0    0 -0.16277667933E+02 -0.16776101937E+02 -0.32408365431E+02  0.39958756480E+02  0.00000000000E+00 0. -1.
         21    1    1    2  502  503  0.52749514230E+02  0.35500446719E+02  0.11451222906E+03  0.13098031750E+03  0.00000000000E+00 0. -1.
         21    1    1    2  503  501 -0.40852962723E+02  0.88975622271E+01 -0.38369358581E+02  0.56748029524E+02  0.00000000000E+00 0. -1.
<scales pt_clust_5="13000.00000" pt_clust_6="13000.00000" pt_clust_7="13000.00000" pt_clust_8="13000.00000" pt_clust_9="63.04141" pt_clust_10="41.81066"></scales>
<clustering>
<clus scale="   41.811">  2 10  1 -1</clus>
<clus scale="   63.041">  1  9  2 -1</clus>
<clus scale="   90.739">  5  6 -1 -1</clus>
<clus scale="   90.885">  7  8 -1 -1</clus>
<clus scale="  214.508">  1  5  2 -1</clus>
<clus scale="   63.041">  1  5  2 -1</clus>
</clustering>
</event>
<event>
10    2  0.1898324E-006  0.2665454E+03  0.7546771E-02  0.1124849E+00
          2   -1    0    0  502    0  0.00000000000E+00  0.00000000000E+00  0.15993675759E+04  0.15993675759E+04  0.00000000000E+00 0. -1.
         -2   -1    0    0    0  501 -0.00000000000E+00 -0.00000000000E+00 -0.37808718747E+03  0.37808718747E+03  0.00000000000E+00 0.  1.
         23    2    1    2    0    0 -0.41045552235E+02  0.66162018634E+02 -0.11227266966E+03  0.16393450725E+03  0.90593709739E+02 0.  0.
         23    2    1    2    0    0 -0.20275403138E+03 -0.99553701055E+02  0.78053884525E+03  0.81782207350E+03  0.92584654961E+02 0.  0.
        -11    1    3    3    0    0 -0.62857899566E+02  0.23649996462E+02 -0.86921812532E+02  0.10984461464E+03  0.00000000000E+00 0.  1.
         11    1    3    3    0    0  0.21812347331E+02  0.42512022172E+02 -0.25350857132E+02  0.54089892610E+02  0.00000000000E+00 0. -1.
        -13    1    4    4    0    0 -0.36718194506E+02  0.17136258592E+02  0.10895278417E+03  0.11624365077E+03  0.00000000000E+00 0.  1.
         13    1    4    4    0    0 -0.16603583687E+03 -0.11668995965E+03  0.67158606108E+03  0.70157842273E+03  0.00000000000E+00 0. -1.
         21    1    1    2  502  503  0.30645682084E+03  0.14905867148E+01  0.73730038517E+03  0.79845467177E+03  0.00000000000E+00 0. -1.
         21    1    1    2  503  501 -0.62657237233E+02  0.31901095706E+02 -0.18428617230E+03  0.19724351088E+03  0.00000000000E+00 0.  1.
<scales pt_clust_5="13000.00000" pt_clust_6="13000.00000" pt_clust_7="13000.00000" pt_clust_8="13000.00000" pt_clust_9="249.94906" pt_clust_10="70.31080"></scales>
<clustering>
<clus scale="   70.311">  2 10  1 -1</clus>
<clus scale="   90.594">  5  6 -1 -1</clus>
<clus scale="   92.585">  7  8 -1 -1</clus>
<clus scale="  154.469">  2  5  1 -1</clus>
<clus scale="  249.949">  2  9  1 -1</clus>
<clus scale="  266.545">  1  5  2 -1</clus>
</clustering>
</event>
<event>
10    2  0.1898324E-006  0.1001052E+03  0.7546771E-02  0.1280557E+00
          1   -1    0    0  502    0  0.00000000000E+00  0.00000000000E+00  0.30692212396E+03  0.30692212396E+03  0.00000000000E+00 0. -1.
         -1   -1    0    0    0  501 -0.00000000000E+00 -0.00000000000E+00 -0.16832384371E+03  0.16832384371E+03  0.00000000000E+00 0.  1.
         23    2    1    2    0    0 -0.18857719204E+02  0.42111113453E+02 -0.22403357249E+02  0.10336710155E+03  0.89743455565E+02 0.  0.
         23    2    1    2    0    0  0.43823281178E+02 -0.30253646310E+02  0.16901583942E+02  0.10657065664E+03  0.90751739534E+02 0.  0.
        -13    1    4    4    0    0  0.11679266096E+02  0.23068164189E+02  0.33325395484E+02  0.42179704121E+02  0.00000000000E+00 0. -1.
         13    1    4    4    0    0  0.32144015082E+02 -0.53321810500E+02 -0.16423811542E+02  0.64390952517E+02  0.00000000000E+00 0.  1.
        -13    1    3    3    0    0  0.16662043346E+02  0.11292745829E+02 -0.46396205819E+02  0.50574279147E+02  0.00000000000E+00 0.  1.
         13    1    3    3    0    0 -0.35519762550E+02  0.30818367624E+02  0.23992848570E+02  0.52792822402E+02  0.00000000000E+00 0. -1.
         21    1    1    2  502  503 -0.21308219636E+02  0.20376089425E+02  0.19919879979E+03  0.20136878379E+03  0.00000000000E+00 0. -1.
         21    1    1    2  503  501 -0.36573423375E+01 -0.32233556567E+02 -0.55098746237E+02  0.63939425700E+02  0.00000000000E+00 0. -1.
<scales pt_clust_5="13000.00000" pt_clust_6="13000.00000" pt_clust_7="13000.00000" pt_clust_8="13000.00000" pt_clust_9="29.48263" pt_clust_10="31.71565"></scales>
<clustering>
<clus scale="   29.483">  1  9  2 -1</clus>
<clus scale="   31.716">  2 10  1 -1</clus>
<clus scale="   89.743">  7  8 -1 -1</clus>
<clus scale="   90.752">  5  6 -1 -1</clus>
<clus scale="   99.192">  2  7  1 -1</clus>
<clus scale="   29.483">  1  5  2 -1</clus>
</clustering>
</event>
<event>
10    2  0.1898324E-006  0.1353005E+03  0.7546771E-02  0.1219918E+00
          3   -1    0    0  502    0  0.00000000000E+00  0.00000000000E+00  0.65169697713E+03  0.65169697713E+03  0.00000000000E+00 0. -1.
         -3   -1    0    0    0  501 -0.00000000000E+00 -0.00000000000E+00 -0.17561329178E+03  0.17561329178E+03  0.00000000000E+00 0.  1.
         23    2    1    2    0    0  0.18950313723E+02  0.17093668023E+03  0.99605297962E+02  0.21797502941E+03  0.89517791670E+02 0.  0.
         23    2    1    2    0    0  0.34392936054E+02 -0.45436381283E+02  0.13956135378E+03  0.17505565488E+03  0.88993101095E+02 0.  0.
        -11    1    4    4    0    0  0.56282607557E+02 -0.50242527960E+02  0.13078786248E+03  0.15098843830E+03  0.00000000000E+00 0.  1.
         11    1    4    4    0    0 -0.21889671503E+02  0.48061466774E+01  0.87734913075E+01  0.24067216584E+02  0.00000000000E+00 0. -1.
        -13    1    3    3    0    0 -0.11483026787E+02  0.75352622732E+02  0.88885456676E+02  0.11709185311E+03  0.00000000000E+00 0. -1.
         13    1    3    3    0    0  0.30433340510E+02  0.95584057500E+02  0.10719841286E+02  0.10088317630E+03  0.00000000000E+00 0.  1.
         21    1    1    2  502  503 -0.71704669971E+02 -0.66509087501E+02  0.31779497099E+03  0.33250362705E+03  0.00000000000E+00 0. -1.
         21    1    1    2  503  501  0.18361420193E+02 -0.58991211449E+02 -0.80877937389E+02  0.10177595755E+03  0.00000000000E+00 0. -1.
<scales pt_clust_5="13000.00000" pt_clust_6="13000.00000" pt_clust_7="13000.00000" pt_clust_8="13000.00000" pt_clust_9="100.24468" pt_clust_10="61.78272"></scales>
<clustering>
<clus scale="   61.783">  2 10  1 -1</clus>
<clus scale="   88.993">  5  6 -1 -1</clus>
<clus scale="   89.518">  7  8 -1 -1</clus>
<clus scale="  100.245">  1  9  2 -1</clus>
<clus scale="  134.954">  1  5  2 -1</clus>
<clus scale="  100.245">  1  5  2 -1</clus>
</clustering>
</event>
<event>
10    2  0.1898324E-006  0.9719034E+02  0.7546771E-02  0.1287705E+00
          1   -1    0    0  502    0  0.00000000000E+00  0.00000000000E+00  0.17129832717E+03  0.17129832717E+03  0.00000000000E+00 0. -1.
         -1   -1    0    0    0  501 -0.00000000000E+00 -0.00000000000E+00 -0.14053069819E+03  0.14053069819E+03  0.00000000000E+00 0.  1.
         23    2    1    2    0    0 -0.49827611828E+02 -0.10674803344E+02 -0.59772884562E+02  0.11859729296E+03  0.88858189506E+02 0.  0.
         23    2    1    2    0    0  0.93334945399E+00  0.19813915934E+01  0.63105723350E+02  0.11119069997E+03  0.91521813714E+02 0.  0.
        -11    1    4    4    0    0 -0.27175102277E+02  0.16051739679E+02 -0.87569623766E+01  0.32754067237E+02  0.00000000000E+00 0.  1.
         11    1    4    4    0    0  0.28108451731E+02 -0.14070348086E+02  0.71862685727E+02  0.78436632729E+02  0.00000000000E+00 0. -1.
        -11    1    3    3    0    0  0.22465000569E+02  0.51138596906E+01  0.67431835667E+00  0.23049566520E+02  0.00000000000E+00 0. -1.
         11    1    3    3    0    0 -0.72292612397E+02 -0.15788663034E+02 -0.60447202919E+02  0.95547726443E+02  0.00000000000E+00 0.  1.
         21    1    1    2  502  503  0.32609889707E+02  0.23077290721E+02  0.40336824805E+02  0.56771697958E+02  0.00000000000E+00 0. -1.
         21    1    1    2  503  501  0.16284372668E+02 -0.14383878971E+02 -0.12902034612E+02  0.25269334470E+02  0.00000000000E+00 0.  1.
<scales pt_clust_5="13000.00000" pt_clust_6="13000.00000" pt_clust_7="13000.00000" pt_clust_8="13000.00000" pt_clust_9="40.31216" pt_clust_10="21.72733"></scales>
<clustering>
<clus scale="   21.727">  2 10  1 -1</clus>
<clus scale="   40.312">  1  9  2 -1</clus>
<clus scale="   88.858">  7  8 -1 -1</clus>
<clus scale="   91.522">  5  6 -1 -1</clus>
<clus scale="   94.686">  2  7  1 -1</clus>
<clus scale="   40.312">  1  5  2 -1</clus>
</clustering>
</event>
<event>
10    2  0.1898324E-006  0.1113611E+03  0.7546771E-02  0.1259856E+00
          2   -1    0    0  502    0  0.00000000000E+00  0.00000000000E+00  0.19471703961E+03  0.19471703961E+03  0.00000000000E+00 0. -1.
         -2   -1    0    0    0  501 -0.00000000000E+00 -0.00000000000E+00 -0.21472033079E+03  0.21472033079E+03  0.00000000000E+00 0.  1.
         23    2    1    2    0    0  0.14875574620E+02 -0.70206684707E+02 -0.88440897902E+02  0.14549807006E+03  0.90540790101E+02 0.  0.
         23    2    1    2    0    0 -0.46598265414E+02  0.74192087569E+01  0.38565306478E+02  0.11293210589E+03  0.95078571085E+02 0.  0.
        -11    1    3    3    0    0 -0.24188114005E+02 -0.25847259983E+02 -0.77752289053E+02  0.85431634426E+02  0.00000000000E+00 0.  1.
         11    1    3    3    0    0  0.39063688625E+02 -0.44359424724E+02 -0.10688608849E+02  0.60066435636E+02  0.00000000000E+00 0. -1.
        -13    1    4    4    0    0 -0.21126202005E+02 -0.41455038728E+02  0.15722416392E+01  0.46554361674E+02  0.00000000000E+00 0. -1.
         13    1    4    4    0    0 -0.25472063409E+02  0.48874247485E+02  0.36993064839E+02  0.66377744219E+02  0.00000000000E+00 0.  1.
         21    1    1    2  502  503  0.11681344601E+02  0.52811265076E+02  0.79735186463E+02  0.96349278622E+02  0.00000000000E+00 0. -1.
         21    1    1    2  503  501  0.20041346192E+02  0.99762108745E+01 -0.49862886219E+02  0.54657915828E+02  0.00000000000E+00 0.  1.
<scales pt_clust_5="13000.00000" pt_clust_6="13000.00000" pt_clust_7="13000.00000" pt_clust_8="13000.00000" pt_clust_9="54.81437" pt_clust_10="22.38706"></scales>
<clustering>
<clus scale="   22.387">  2 10  1 -1</clus>
<clus scale="   54.814">  1  9  2 -1</clus>
<clus scale="   90.541">  5  6 -1 -1</clus>
<clus scale="   95.079">  7  8 -1 -1</clus>
<clus scale="  107.513">  2  5  1 -1</clus>
<clus scale="   54.814">  1  5  2 -1</clus>
</clustering>
</event>
<event>
10    2  0.1898324E-006  0.1302452E+03  0.7546771E-02  0.1232894E+00
         -2   -1    0    0    0  501 -0.00000000000E+00  0.00000000000E+00  0.21022763379E+03  0.21022763379E+03  0.00000000000E+00 0.  1.
          2   -1    0    0  502    0  0.00000000000E+00 -0.00000000000E+00 -0.19500214334E+03  0.19500214334E+03  0.00000000000E+00 0. -1.
         23    2    1    2    0    0 -0.77936352183E+02 -0.12117118231E+02  0.49218143920E+02  0.14398422605E+03  0.10994604183E+03 0.  0.
         23    2    1    2    0    0  0.47633938057E+02  0.61174492725E+02  0.61996599491E+01  0.12051461456E+03  0.92054472586E+02 0.  0.
        -13    1    3    3    0    0 -0.97514325964E+02  0.69810644001E+01  0.13037747734E+02  0.98629416983E+02  0.00000000000E+00 0. -1.
         13    1    3    3    0    0  0.19577973782E+02 -0.19098182631E+02  0.36180396186E+02  0.45354809066E+02  0.00000000000E+00 0.  1.
        -13    1    4    4    0    0 -0.21074980369E+02  0.93112205977E+01 -0.20021784159E+02  0.30524178408E+02  0.00000000000E+00 0. -1.
         13    1    4    4    0    0  0.68708918426E+02  0.51863272127E+02  0.26221444108E+02  0.89990436148E+02  0.00000000000E+00 0.  1.
         21    1    1    2  502  503  0.76031483175E+01 -0.44424147591E+02 -0.81636250748E+02  0.93251220849E+02  0.00000000000E+00 0. -1.
         21    1    1    2  503  501  0.22699265808E+02 -0.46332269029E+01  0.41443937331E+02  0.47479715682E+02  0.00000000000E+00 0.  1.
<scales pt_clust_5="13000.00000" pt_clust_6="13000.00000" pt_clust_7="13000.00000" pt_clust_8="13000.00000" pt_clust_9="45.37055" pt_clust_10="23.16729"></scales>
<clustering>
<clus scale="   23.167">  1 10  2 -1</clus>
<clus scale="   45.371">  2  9  1 -1</clus>
<clus scale="   92.054">  7  8 -1 -1</clus>
<clus scale="  109.946">  5  6 -1 -1</clus>
<clus scale="  115.541">  2  7  1 -1</clus>
<clus scale="   45.371">  2  5  1 -1</clus>
</clustering>
</event>
<event>
10    2  0.1898324E-006  0.1209758E+03  0.7546771E-02  0.1244081E+00
         -1   -1    0    0    0  501 -0.00000000000E+00  0.00000000000E+00  0.30278649997E+03  0.30278649997E+03  0.00000000000E+00 0.  1.
          1   -1    0    0  502    0  0.00000000000E+00 -0.00000000000E+00 -0.19473496340E+03  0.19473496340E+03  0.00000000000E+00 0. -1.
         23    2    1    2    0    0  0.10815788182E+02 -0.10573678861E+03  0.16025939958E+03  0.21666980345E+03  0.99827244944E+02 0.  0.
         23    2    1    2    0    0 -0.22545946605E+02  0.24706780543E+02  0.51160043412E+02  0.11067576109E+03  0.92266079022E+02 0.  0.
        -13    1    4    4    0    0 -0.52549422041E+02  0.35593023433E+01  0.68145001612E+01  0.53108829797E+02  0.00000000000E+00 0.  1.
         13    1    4    4    0    0  0.30003475436E+02  0.21147478200E+02  0.44345543250E+02  0.57566931294E+02  0.00000000000E+00 0. -1.
        -13    1    3    3    0    0 -0.40131358054E+02 -0.24923444345E+02  0.74925289069E+02  0.88574843603E+02  0.00000000000E+00 0.  1.
         13    1    3    3    0    0  0.50947146237E+02 -0.80813344268E+02  0.85334110514E+02  0.12809495985E+03  0.00000000000E+00 0. -1.
         21    1    1    2  502  503 -0.25347633445E+02 -0.16903512659E+02 -0.23116958115E+02  0.38244280801E+02  0.00000000000E+00 0.  1.
         21    1    1    2  503  501  0.37077791867E+02  0.97933520728E+02 -0.80250948311E+02  0.13193161803E+03  0.00000000000E+00 0. -1.
<scales pt_clust_5="13000.00000" pt_clust_6="13000.00000" pt_clust_7="13000.00000" pt_clust_8="13000.00000" pt_clust_9="30.46689" pt_clust_10="89.42765"></scales>
<clustering>
<clus scale="   30.467">  2  9  1 -1</clus>
<clus scale="   89.428">  2 10  1 -1</clus>
<clus scale="   92.266">  5  6 -1 -1</clus>
<clus scale="   99.827">  7  8 -1 -1</clus>
<clus scale="  114.816">  2  5  1 -1</clus>
<clus scale="   30.467">  2  5  1 -1</clus>
</clustering>
</event>
<event>
10    2  0.1898324E-006  0.1524019E+03  0.7546771E-02  0.1198317E+00
          1   -1    0    0  502    0  0.00000000000E+00  0.00000000000E+00  0.93509207924E+02  0.93509207924E+02  0.00000000000E+00 0. -1.
         -1   -1    0    0    0  501 -0.00000000000E+00 -0.00000000000E+00 -0.38955901976E+03  0.38955901976E+03  0.00000000000E+00 0.  1.
         23    2    1    2    0    0 -0.10433262698E+03  0.56622857627E+01 -0.13912785202E+03  0.19834229325E+03  0.95214219284E+02 0.  0.
         23    2    1    2    0    0  0.13356694490E+03  0.27532565709E+02 -0.96532800444E+02  0.19031775557E+03  0.91126810428E+02 0.  0.
        -11    1    3    3    0    0 -0.31993760780E+02  0.44572349816E+02 -0.32586421346E+02  0.63813556186E+02  0.00000000000E+00 0.  1.
         11    1    3    3    0    0 -0.72338866201E+02 -0.38910064053E+02 -0.10654143067E+03  0.13452873707E+03  0.00000000000E+00 0. -1.
        -11    1    4    4    0    0  0.76403127411E+02 -0.16398890246E+02 -0.11742518950E+02  0.79020555748E+02  0.00000000000E+00 0. -1.
         11    1    4    4    0    0  0.57163817493E+02  0.43931455955E+02 -0.84790281494E+02  0.11129719982E+03  0.00000000000E+00 0.  1.
         21    1    1    2  502  503 -0.14022950385E+02 -0.17472260974E+02  0.70681892614E+01  0.23492176154E+02  0.00000000000E+00 0.  1.
         21    1    1    2  503  501 -0.15211367538E+02 -0.15722590498E+02 -0.67457348639E+02  0.70916002706E+02  0.00000000000E+00 0.  1.
<scales pt_clust_5="13000.00000" pt_clust_6="13000.00000" pt_clust_7="13000.00000" pt_clust_8="13000.00000" pt_clust_9="22.96205" pt_clust_10="21.87660"></scales>
<clustering>
<clus scale="   21.877">  2 10  1 -1</clus>
<clus scale="   22.962">  1  9  2 -1</clus>
<clus scale="   91.127">  7  8 -1 -1</clus>
<clus scale="   95.214">  5  6 -1 -1</clus>
<clus scale="  149.882">  1  7  2 -1</clus>
<clus scale="   22.962">  1  5  2 -1</clus>
</clustering>
</event>
<event>
10    2  0.1898324E-006  0.1414199E+03  0.7546771E-02  0.1211879E+00
         -2   -1    0    0    0  501 -0.00000000000E+00  0.00000000000E+00  0.13391906700E+03  0.13391906700E+03  0.00000000000E+00 0.  1.
          2   -1    0    0  502    0  0.00000000000E+00 -0.00000000000E+00 -0.43123211747E+03  0.43123211747E+03  0.00000000000E+00 0. -1.
         23    2    1    2    0    0 -0.73192490853E+02  0.45658871153E+01  0.42000489957E+02  0.12463705637E+03  0.91609860938E+02 0.  0.
         23    2    1    2    0    0  0.78490325031E+02 -0.78964048103E+02 -0.21704555404E+03  0.25984470142E+03  0.89523428833E+02 0.  0.
        -11    1    4    4    0    0  0.30415230483E+02 -0.85505745656E+02 -0.11213874256E+03  0.14426162472E+03  0.00000000000E+00 0. -1.
         11    1    4    4    0    0  0.48075094548E+02  0.65416975525E+01 -0.10490681149E+03  0.11558307670E+03  0.00000000000E+00 0.  1.
        -13    1    3    3    0    0 -0.40038792751E+02 -0.14232841383E+02 -0.23719786937E+02  0.48665254455E+02  0.00000000000E+00 0. -1.
         13    1    3    3    0    0 -0.33153698101E+02  0.18798728499E+02  0.65720276893E+02  0.75971801913E+02  0.00000000000E+00 0.  1.
         21    1    1    2  502  503  0.38968036287E+02  0.24350670942E+02 -0.10031858806E+03  0.11034166093E+03  0.00000000000E+00 0.  1.
         21    1    1    2  503  501 -0.44265870465E+02  0.50047490046E+02 -0.21949398333E+02  0.70327765748E+02  0.00000000000E+00 0. -1.
<scales pt_clust_5="13000.00000" pt_clust_6="13000.00000" pt_clust_7="13000.00000" pt_clust_8="13000.00000" pt_clust_9="45.95066" pt_clust_10="66.05446"></scales>
<clustering>
<clus scale="   45.951">  2  9  1 -1</clus>
<clus scale="   66.054">  1 10  2 -1</clus>
<clus scale="   89.523">  5  6 -1 -1</clus>
<clus scale="   91.610">  7  8 -1 -1</clus>
<clus scale="  140.077">  2  5  1 -1</clus>
<clus scale="   45.951">  2  5  1 -1</clus>
</clustering>
</event>
<event>
10    2  0.1898324E-006  0.1364896E+03  0.7546771E-02  0.1219506E+00
         -2   -1    0    0    0  501 -0.00000000000E+00  0.00000000000E+00  0.72054666237E+02  0.72054666237E+02  0.00000000000E+00 0.  1.
          2   -1    0    0  502    0  0.00000000000E+00 -0.00000000000E+00 -0.64747693440E+03  0.64747693440E+03  0.00000000000E+00 0. -1.
         23    2    1    2    0    0 -0.17800719329E+02 -0.12462233885E+03 -0.16333891310E+03  0.22439569342E+03  0.88466003340E+02 0.  0.
         23    2    1    2    0    0  0.34808820707E+02  0.67420654530E+02 -0.18753330614E+03  0.22315650377E+03  0.94195995713E+02 0.  0.
        -13    1    3    3    0    0  0.16052526127E+02 -0.17429687949E+02  0.27365494868E+01  0.23853014906E+02  0.00000000000E+00 0.  1.
         13    1    3    3    0    0 -0.33853245456E+02 -0.10719265090E+03 -0.16607546258E+03  0.20054267852E+03  0.00000000000E+00 0. -1.
        -13    1    4    4    0    0 -0.22690374591E+02  0.32679690998E+02 -0.12572381893E+03  0.13186847216E+03  0.00000000000E+00 0.  1.
         13    1    4    4    0    0  0.57499195298E+02  0.34740963532E+02 -0.61809487205E+02  0.91288031612E+02  0.00000000000E+00 0. -1.
         21    1    1    2  502  503 -0.54104172736E+01  0.31925531218E+02 -0.23862405182E+03  0.24081102604E+03  0.00000000000E+00 0. -1.
         21    1    1    2  503  501 -0.11597684104E+02  0.25276153101E+02  0.14074002889E+02  0.31168377395E+02  0.00000000000E+00 0. -1.
<scales pt_clust_5="13000.00000" pt_clust_6="13000.00000" pt_clust_7="13000.00000" pt_clust_8="13000.00000" pt_clust_9="32.97525" pt_clust_10="27.80989"></scales>
<clustering>
<clus scale="   27.810">  1 10  2 -1</clus>
<clus scale="   32.975">  2  9  1 -1</clus>
<clus scale="   88.466">  5  6 -1 -1</clus>
<clus scale="   94.196">  7  8 -1 -1</clus>
<clus scale="  132.600">  1  5  2 -1</clus>
<clus scale="   32.975">  2  5  1 -1</clus>
</clustering>
</event>
<event>
10    2  0.1898324E-006  0.1368054E+03  0.7546771E-02  0.1218103E+00
          2   -1    0    0  502    0  0.00000000000E+00  0.00000000000E+00  0.49798583191E+03  0.49798583191E+03  0.00000000000E+00 0. -1.
         -2   -1    0    0    0  501 -0.00000000000E+00 -0.00000000000E+00 -0.26042650762E+03  0.26042650762E+03  0.00000000000E+00 0.  1.
         23    2    1    2    0    0  0.38749686754E+02 -0.11186241247E+03 -0.20739302543E+03  0.25564808381E+03  0.91265208124E+02 0.  0.
         23    2    1    2    0    0 -0.28270116661E+02  0.53108992839E+02  0.26161450354E+03  0.28409809729E+03  0.93004385952E+02 0.  0.
        -13    1    3    3    0    0 -0.90800758239E+01 -0.20632622775E+02 -0.11527608154E+03  0.11745947333E+03  0.00000000000E+00 0. -1.
         13    1    3    3    0    0  0.47829762578E+02 -0.91229789696E+02 -0.92116943886E+02  0.13818861048E+03  0.00000000000E+00 0.  1.
        -13    1    4    4    0    0  0.25549039405E+02  0.29141126306E+02  0.17570298999E+03  0.17992637202E+03  0.00000000000E+00 0.  1.
         13    1    4    4    0    0 -0.53819156066E+02  0.23967866532E+02  0.85911513550E+02  0.10417172527E+03  0.00000000000E+00 0. -1.
         21    1    1    2  502  503 -0.17371283842E+02  0.39743040241E+02  0.19187541518E+03  0.19671666350E+03  0.00000000000E+00 0. -1.
         21    1    1    2  503  501  0.68917137487E+01  0.19010379392E+02 -0.85375690002E+01  0.21949494924E+02  0.00000000000E+00 0. -1.
<scales pt_clust_5="13000.00000" pt_clust_6="13000.00000" pt_clust_7="13000.00000" pt_clust_8="13000.00000" pt_clust_9="43.51856" pt_clust_10="20.22103"></scales>
<clustering>
<clus scale="   20.221">  2 10  1 -1</clus>
<clus scale="   43.519">  1  9  2 -1</clus>
<clus scale="   91.265">  5  6 -1 -1</clus>
<clus scale="   93.004">  7  8 -1 -1</clus>
<clus scale="  135.629">  2  5  1 -1</clus>
<clus scale="   43.519">  1  5  2 -1</clus>
</clustering>
</event>
<event>
10    2  0.1898324E-006  0.1153486E+03  0.7546771E-02  0.1251190E+00
          4   -1    0    0  502    0  0.00000000000E+00  0.00000000000E+00  0.20991976527E+03  0.20991976527E+03  0.00000000000E+00 0. -1.
         -4   -1    0    0    0  501 -0.00000000000E+00 -0.00000000000E+00 -0.16164432948E+03  0.16164432948E+03  0.00000000000E+00 0.  1.
         23    2    1    2    0    0 -0.71345722155E+02  0.54778519135E+02 -0.39637027918E+02  0.13289903973E+03  0.89443627775E+02 0.  0.
         23    2    1    2    0    0  0.70842105127E+02 -0.20975452500E+02  0.11425639259E+03  0.16317997548E+03  0.90081117244E+02 0.  0.
        -11    1    3    3    0    0 -0.74766842515E+01  0.46295539453E+02  0.14134164152E+02  0.48979101430E+02  0.00000000000E+00 0. -1.
         11    1    3    3    0    0 -0.63869037903E+02  0.84829796818E+01 -0.53771192070E+02  0.83919938296E+02  0.00000000000E+00 0.  1.
        -11    1    4    4    0    0  0.18727703346E+02  0.33139833141E+02  0.57775934906E+02  0.69188395468E+02  0.00000000000E+00 0.  1.
         11    1    4    4    0    0  0.52114401781E+02 -0.54115285641E+02  0.56480457680E+02  0.93991580010E+02  0.00000000000E+00 0. -1.
         21    1    1    2  502  503 -0.17130319065E+02 -0.14103234924E+02  0.14733005268E+02  0.26634761325E+02  0.00000000000E+00 0. -1.
         21    1    1    2  503  501  0.17633936092E+02 -0.19699831711E+02 -0.41076934148E+02  0.48850318224E+02  0.00000000000E+00 0.  1.
<scales pt_clust_5="13000.00000" pt_clust_6="13000.00000" pt_clust_7="13000.00000" pt_clust_8="13000.00000" pt_clust_9="22.18894" pt_clust_10="26.42444"></scales>
<clustering>
<clus scale="   22.189">  1  9  2 -1</clus>
<clus scale="   26.424">  2 10  1 -1</clus>
<clus scale="   89.444">  5  6 -1 -1</clus>
<clus scale="   90.081">  7  8 -1 -1</clus>
<clus scale="  114.851">  2  5  1 -1</clus>
<clus scale="   22.189">  1  5  2 -1</clus>
</clustering>
</event>
<event>
10    2  0.1898324E-006  0.9959478E+02  0.7546771E-02  0.1282020E+00
         -3   -1    0    0    0  501 -0.00000000000E+00  0.00000000000E+00  0.36832435521E+03  0.36832435521E+03  0.00000000000E+00 0.  1.
          3   -1    0    0  502    0  0.00000000000E+00 -0.00000000000E+00 -0.79709202928E+02  0.79709202928E+02  0.00000000000E+00 0. -1.
         23    2    1    2    0    0 -0.23777096705E+02  0.46230037914E+02  0.72041082472E+02  0.12752957962E+03  0.91494859858E+02 0.  0.
         23    2    1    2    0    0 -0.33585173717E+02 -0.25705740181E+02  0.36153124950E+02  0.10857785783E+03  0.93238156333E+02 0.  0.
        -13    1    4    4    0    0 -0.55407766590E+01 -0.37985466817E+02  0.58992139649E+02  0.70382302006E+02  0.00000000000E+00 0.  1.
         13    1    4    4    0    0 -0.28044397058E+02  0.12279726636E+02 -0.22839014699E+02  0.38195555828E+02  0.00000000000E+00 0. -1.
        -13    1    3    3    0    0  0.33981459807E+02  0.15146424630E+02  0.39665705990E+02  0.54383104190E+02  0.00000000000E+00 0.  1.
         13    1    3    3    0    0 -0.57758556511E+02  0.31083613284E+02  0.32375376482E+02  0.73146475427E+02  0.00000000000E+00 0. -1.
         21    1    1    2  502  503  0.33904878017E+02 -0.10434226380E+01  0.54957618679E+01  0.34363249012E+02  0.00000000000E+00 0. -1.
         21    1    1    2  503  501  0.23457392405E+02 -0.19480875095E+02  0.17492518299E+03  0.17756287168E+03  0.00000000000E+00 0.  1.
<scales pt_clust_5="13000.00000" pt_clust_6="13000.00000" pt_clust_7="13000.00000" pt_clust_8="13000.00000" pt_clust_9="36.46773" pt_clust_10="30.49186"></scales>
<clustering>
<clus scale="   30.492">  1 10  2 -1</clus>
<clus scale="   36.468">  2  9  1 -1</clus>
<clus scale="   91.495">  7  8 -1 -1</clus>
<clus scale="   93.238">  5  6 -1 -1</clus>
<clus scale="   97.965">  1  7  2 -1</clus>
<clus scale="   36.468">  2  5  1 -1</clus>
</clustering>
</event>
<event>
10    2  0.1898324E-006  0.9689266E+02  0.7546771E-02  0.1288457E+00
          1   -1    0    0  502    0  0.00000000000E+00  0.00000000000E+00  0.34556151955E+03  0.34556151955E+03  0.00000000000E+00 0. -1.
         -1   -1    0    0    0  501 -0.00000000000E+00 -0.00000000000E+00 -0.13054347262E+03  0.13054347262E+03  0.00000000000E+00 0.  1.
         23    2    1    2    0    0  0.44220617379E+02 -0.28658384665E+02 -0.56717087230E+02  0.11910052696E+03  0.90506030330E+02 0.  0.
         23    2    1    2    0    0  0.74487018188E+01  0.22914237243E+02  0.21791690057E+03  0.23611205927E+03  0.87638938553E+02 0.  0.
        -11    1    4    4    0    0  0.44440581044E+02 -0.35016552555E+01  0.91744231842E+02  0.10200113190E+03  0.00000000000E+00 0.  1.
         11    1    4    4    0    0 -0.36991879225E+02  0.26415892498E+02  0.12617266873E+03  0.13411092737E+03  0.00000000000E+00 0. -1.
        -11    1    3    3    0    0  0.68009448768E+02 -0.49131339658E+01 -0.50662907278E+02  0.84947949834E+02  0.00000000000E+00 0.  1.
         11    1    3    3    0    0 -0.23788831390E+02 -0.23745250700E+02 -0.60541799519E+01  0.34152577129E+02  0.00000000000E+00 0. -1.
         21    1    1    2  502  503 -0.23825313854E+02  0.92027090901E+01  0.79101966136E+02  0.83123140469E+02  0.00000000000E+00 0.  1.
         21    1    1    2  503  501 -0.27844005343E+02 -0.34585616674E+01 -0.25283732544E+02  0.37769265464E+02  0.00000000000E+00 0. -1.
<scales pt_clust_5="13000.00000" pt_clust_6="13000.00000" pt_clust_7="13000.00000" pt_clust_8="13000.00000" pt_clust_9="25.54086" pt_clust_10="28.59077"></scales>
<clustering>
<clus scale="   25.541">  1  9  2 -1</clus>
<clus scale="   28.591">  2 10  1 -1</clus>
<clus scale="   87.639">  5  6 -1 -1</clus>
<clus scale="   90.506">  7  8 -1 -1</clus>
<clus scale="   94.220">  1  5  2 -1</clus>
<clus scale="   25.541">  1  5  2 -1</clus>
</clustering>
</event>
<event>
10    2  0.1898324E-006  0.1007863E+03  0.7546771E-02  0.1279813E+00
         -1   -1    0    0    0  501 -0.00000000000E+00  0.00000000000E+00  0.11197586126E+03  0.11197586126E+03  0.00000000000E+00 0.  1.
          1   -1    0    0  502    0  0.00000000000E+00 -0.00000000000E+00 -0.36716058799E+03  0.36716058799E+03  0.00000000000E+00 0. -1.
         23    2    1    2    0    0 -0.22939223823E+02 -0.16675802572E+02  0.61171936732E+02  0.11496547243E+03  0.93116935228E+02 0.  0.
         23    2    1    2    0    0  0.23232925784E+02 -0.82386828387E+01 -0.22699745389E+03  0.24569513283E+03  0.90722706578E+02 0.  0.
        -11    1    3    3    0    0 -0.20190274071E+02 -0.55069010318E+02  0.33352496037E+02  0.67473195096E+02  0.00000000000E+00 0.  1.
         11    1    3    3    0    0 -0.27489497519E+01  0.38393207746E+02  0.27819440695E+02  0.47492277334E+02  0.00000000000E+00 0. -1.
        -13    1    4    4    0    0  0.58318160539E+02 -0.59618717840E+01 -0.15008710542E+03  0.16112942306E+03  0.00000000000E+00 0.  1.
         13    1    4    4    0    0 -0.35085234756E+02 -0.22768110547E+01 -0.76910348474E+02  0.84565709770E+02  0.00000000000E+00 0. -1.
         21    1    1    2  502  503  0.20500798444E+02  0.11549493029E+02 -0.90717480704E+02  0.93719447456E+02  0.00000000000E+00 0. -1.
         21    1    1    2  503  501 -0.20794500405E+02  0.13364992382E+02  0.13582711415E+01  0.24756396526E+02  0.00000000000E+00 0. -1.
<scales pt_clust_5="13000.00000" pt_clust_6="13000.00000" pt_clust_7="13000.00000" pt_clust_8="13000.00000" pt_clust_9="23.53027" pt_clust_10="24.26713"></scales>
<clustering>
<clus scale="   23.530">  2  9  1 -1</clus>
<clus scale="   24.267">  1 10  2 -1</clus>
<clus scale="   90.723">  7  8 -1 -1</clus>
<clus scale="   93.117">  5  6 -1 -1</clus>
<clus scale="   98.579">  2  7  1 -1</clus>
<clus scale="   23.530">  2  5  1 -1</clus>
</clustering>
</event>
<event>
10    2  0.1898324E-006  0.1315693E+03  0.7546771E-02  0.1225236E+00
          1   -1    0    0  502    0  0.00000000000E+00  0.00000000000E+00  0.57552641144E+03  0.57552641144E+03  0.00000000000E+00 0. -1.
         -1   -1    0    0    0  501 -0.00000000000E+00 -0.00000000000E+00 -0.10899153959E+03  0.10899153959E+03  0.00000000000E+00 0.  1.
         23    2    1    2    0    0  0.59740346857E+02 -0.47766492164E+02 -0.10116391446E+02  0.11990556240E+03  0.91784833727E+02 0.  0.
         23    2    1    2    0    0 -0.56620736823E+02  0.74010699012E+02  0.45170963297E+03  0.47019585794E+03  0.91427900008E+02 0.  0.
        -13    1    4    4    0    0  0.73762269062E+01  0.34470191308E+02  0.48091388377E+02  0.59627044604E+02  0.00000000000E+00 0.  1.
         13    1    4    4    0    0 -0.63996963729E+02  0.39540507704E+02  0.40361824460E+03  0.41056881334E+03  0.00000000000E+00 0. -1.
        -13    1    3    3    0    0 -0.17409651481E+01 -0.57224180160E+02 -0.36761088787E+01  0.57368558733E+02  0.00000000000E+00 0. -1.
         13    1    3    3    0    0  0.61481312005E+02  0.94576879958E+01 -0.64402825677E+01  0.62537003667E+02  0.00000000000E+00 0.  1.
         21    1    1    2  502  503 -0.24307882115E+02 -0.16511420792E+02  0.51364931501E+02  0.59176484668E+02  0.00000000000E+00 0. -1.
         21    1    1    2  503  501  0.21188272081E+02 -0.97327860560E+01 -0.26423301180E+02  0.35240046019E+02  0.00000000000E+00 0.  1.
<scales pt_clust_5="13000.00000" pt_clust_6="13000.00000" pt_clust_7="13000.00000" pt_clust_8="13000.00000" pt_clust_9="28.80007" pt_clust_10="23.31673"></scales>
<clustering>
<clus scale="   23.317">  2 10  1 -1</clus>
<clus scale="   28.800">  1  9  2 -1</clus>
<clus scale="   91.428">  5  6 -1 -1</clus>
<clus scale="   91.785">  7  8 -1 -1</clus>
<clus scale="  131.321">  1  5  2 -1</clus>
<clus scale="   28.800">  1  5  2 -1</clus>
</clustering>
</event>
<event>
10    2  0.1898324E-006  0.1387339E+03  0.7546771E-02  0.1215187E+00
         -1   -1    0    0    0  501 -0.00000000000E+00  0.00000000000E+00  0.14615896502E+03  0.14615896502E+03  0.00000000000E+00 0.  1.
          1   -1    0    0  502    0  0.00000000000E+00 -0.00000000000E+00 -0.51870733739E+03  0.51870733739E+03  0.00000000000E+00 0. -1.
         23    2    1    2    0    0  0.37795415752E+02 -0.49846151463E+02 -0.10640237962E+03  0.15181700707E+03  0.88395729415E+02 0.  0.
         23    2    1    2    0    0 -0.47943685872E+02  0.16283530019E+03 -0.23619472489E+03  0.30419209694E+03  0.89055891277E+02 0.  0.
        -13    1    3    3    0    0  0.21897307869E+02 -0.66847247569E+02 -0.38830112369E+02  0.80348143887E+02  0.00000000000E+00 0.  1.
         13    1    3    3    0    0  0.15898107884E+02  0.17001096106E+02 -0.67572267250E+02  0.71468863181E+02  0.00000000000E+00 0. -1.
        -13    1    4    4    0    0 -0.43327223645E+02  0.14238193142E+03 -0.24046340402E+03  0.28279411482E+03  0.00000000000E+00 0. -1.
         13    1    4    4    0    0 -0.46164622269E+01  0.20453368766E+02  0.42686791254E+01  0.21397982121E+02  0.00000000000E+00 0.  1.
         21    1    1    2  502  503  0.12465128778E+02 -0.53994439114E+02 -0.10177422294E+03  0.11588257567E+03  0.00000000000E+00 0.  1.
         21    1    1    2  503  501 -0.23168586585E+01 -0.58994709614E+02  0.71822955070E+02  0.92974622728E+02  0.00000000000E+00 0.  1.
<scales pt_clust_5="13000.00000" pt_clust_6="13000.00000" pt_clust_7="13000.00000" pt_clust_8="13000.00000" pt_clust_9="55.41461" pt_clust_10="60.42084"></scales>
<clustering>
<clus scale="   55.415">  2  9  1 -1</clus>
<clus scale="   60.421">  1 10  2 -1</clus>
<clus scale="   88.396">  5  6 -1 -1</clus>
<clus scale="   89.056">  7  8 -1 -1</clus>
<clus scale="  138.311">  1  5  2 -1</clus>
<clus scale="   55.415">  2  5  1 -1</clus>
</clustering>
</event>
<event>
10    2  0.1898324E-006  0.1177333E+03  0.7546771E-02  0.1246932E+00
          1   -1    0    0  502    0  0.00000000000E+00  0.00000000000E+00  0.64966673171E+03  0.64966673171E+03  0.00000000000E+00 0. -1.
         -1   -1    0    0    0  501 -0.00000000000E+00 -0.00000000000E+00 -0.15539252878E+03  0.15539252878E+03  0.00000000000E+00 0.  1.
         23    2    1    2    0    0  0.41594250584E+02  0.91369877519E+02  0.17011964360E+03  0.21731703288E+03  0.90595051966E+02 0.  0.
         23    2    1    2    0    0 -0.91400836909E+01 -0.65635454739E+02  0.38134736538E+03  0.39755694500E+03  0.90742258025E+02 0.  0.
        -11    1    3    3    0    0  0.29731319223E+02  0.10797787212E+03  0.15770863524E+03  0.19343005413E+03  0.00000000000E+00 0. -1.
         11    1    3    3    0    0  0.11862931361E+02 -0.16607994605E+02  0.12411008361E+02  0.23886978750E+02  0.00000000000E+00 0.  1.
        -11    1    4    4    0    0  0.96699676062E+00 -0.83063822884E+02  0.35384310429E+03  0.36346317036E+03  0.00000000000E+00 0.  1.
         11    1    4    4    0    0 -0.10107080452E+02  0.17428368145E+02  0.27504261091E+02  0.34093774646E+02  0.00000000000E+00 0. -1.
         21    1    1    2  502  503 -0.26669592522E+02  0.11085723823E+02  0.60333660774E+02  0.66890291226E+02  0.00000000000E+00 0.  1.
         21    1    1    2  503  501 -0.57845743712E+01 -0.36820146603E+02 -0.11752646682E+03  0.12329499138E+03  0.00000000000E+00 0.  1.
<scales pt_clust_5="13000.00000" pt_clust_6="13000.00000" pt_clust_7="13000.00000" pt_clust_8="13000.00000" pt_clust_9="28.88184" pt_clust_10="37.23850"></scales>
<clustering>
<clus scale="   28.882">  1  9  2 -1</clus>
<clus scale="   37.238">  2 10  1 -1</clus>
<clus scale="   90.595">  5  6 -1 -1</clus>
<clus scale="   90.742">  7  8 -1 -1</clus>
<clus scale="  117.620">  2  5  1 -1</clus>
<clus scale="   28.882">  1  5  2 -1</clus>
</clustering>
</event>
<event>
10    2  0.1898324E-006  0.9443032E+02  0.7546771E-02  0.1293763E+00
          1   -1    0    0  502    0  0.00000000000E+00  0.00000000000E+00  0.12522266038E+03  0.12522266038E+03  0.00000000000E+00 0. -1.
         -1   -1    0    0    0  501 -0.00000000000E+00 -0.00000000000E+00 -0.34419725861E+03  0.34419725861E+03  0.00000000000E+00 0.  1.
         23    2    1    2    0    0 -0.60586546686E+02  0.29884737113E+01 -0.98527009539E+02  0.14686627093E+03  0.90457002562E+02 0.  0.
         23    2    1    2    0    0 -0.19524130009E+01  0.48658553155E+02 -0.44853908317E+01  0.10076082615E+03  0.88097438351E+02 0.  0.
        -11    1    4    4    0    0  0.39392643870E+02  0.43375422448E+02  0.17278272813E+01  0.58619050238E+02  0.00000000000E+00 0.  1.
         11    1    4    4    0    0 -0.41345056871E+02  0.52831307064E+01 -0.62132181130E+01  0.42141775913E+02  0.00000000000E+00 0. -1.
        -13    1    3    3    0    0 -0.14335069326E+02 -0.41837043395E+02 -0.34990277544E+02  0.56392835850E+02  0.00000000000E+00 0.  1.
         13    1    3    3    0    0 -0.46251477360E+02  0.44825517106E+02 -0.63536731995E+02  0.90473435076E+02  0.00000000000E+00 0. -1.
         21    1    1    2  502  503 -0.13839722719E+02 -0.27601946256E+02  0.37572156686E+02  0.48632009213E+02  0.00000000000E+00 0.  1.
         21    1    1    2  503  501  0.76378682406E+02 -0.24045080610E+02 -0.15353435455E+03  0.17316081270E+03  0.00000000000E+00 0.  1.
<scales pt_clust_5="13000.00000" pt_clust_6="13000.00000" pt_clust_7="13000.00000" pt_clust_8="13000.00000" pt_clust_9="30.87726" pt_clust_10="79.57053"></scales>
<clustering>
<clus scale="   30.877">  1  9  2 -1</clus>
<clus scale="   79.571">  2 10  1 -1</clus>
<clus scale="   88.097">  5  6 -1 -1</clus>
<clus scale="   90.457">  7  8 -1 -1</clus>
<clus scale="   92.173">  1  5  2 -1</clus>
<clus scale="   30.877">  1  5  2 -1</clus>
</clustering>
</event>
<event>
10    2  0.1898324E-006  0.1441782E+03  0.7546771E-02  0.1212004E+00
         -2   -1    0    0    0  501 -0.00000000000E+00  0.00000000000E+00  0.11530044148E+03  0.11530044148E+03  0.00000000000E+00 0.  1.
          2   -1    0    0  502    0  0.00000000000E+00 -0.00000000000E+00 -0.63092204158E+03  0.63092204158E+03  0.00000000000E+00 0. -1.
         23    2    1    2    0    0 -0.26827299328E+02  0.11547202379E+03 -0.96215098484E+02  0.17718186703E+03  0.89903151015E+02 0.  0.
         23    2    1    2    0    0  0.96270164159E+02 -0.43976713917E+02 -0.18561812483E+03  0.23904889962E+03  0.10718391796E+03 0.  0.
        -11    1    3    3    0    0 -0.50179220870E+02  0.76271448289E+02 -0.28716332099E+02  0.95707448824E+02  0.00000000000E+00 0.  1.
         11    1    3    3    0    0  0.23351921542E+02  0.39200575501E+02 -0.67498766385E+02  0.81474418211E+02  0.00000000000E+00 0. -1.
        -13    1    4    4    0    0  0.48153293404E+02  0.27381329693E+02 -0.34848183475E+02  0.65443661060E+02  0.00000000000E+00 0. -1.
         13    1    4    4    0    0  0.48116870755E+02 -0.71358043609E+02 -0.15076994136E+03  0.17360523856E+03  0.00000000000E+00 0.  1.
         21    1    1    2  502  503 -0.10145967815E+03 -0.49128290932E+02 -0.25970758084E+03  0.28311778963E+03  0.00000000000E+00 0.  1.
         21    1    1    2  503  501  0.32016813323E+02 -0.22367018940E+02  0.25919204062E+02  0.46873926771E+02  0.00000000000E+00 0.  1.
<scales pt_clust_5="13000.00000" pt_clust_6="13000.00000" pt_clust_7="13000.00000" pt_clust_8="13000.00000" pt_clust_9="110.01574" pt_clust_10="39.05586"></scales>
<clustering>
<clus scale="   39.056">  1 10  2 -1</clus>
<clus scale="   89.903">  5  6 -1 -1</clus>
<clus scale="  107.184">  7  8 -1 -1</clus>
<clus scale="  110.016">  2  9  1 -1</clus>
<clus scale="  131.839">  1  5  2 -1</clus>
<clus scale="  110.016">  2  5  1 -1</clus>
</clustering>
</event>
<event>
10    2  0.1898324E-006  0.1235164E+03  0.7546771E-02  0.1242336E+00
         -2   -1    0    0    0  501 -0.00000000000E+00  0.00000000000E+00  0.25869667099E+03  0.25869667099E+03  0.00000000000E+00 0.  1.
          2   -1    0    0  502    0  0.00000000000E+00 -0.00000000000E+00 -0.23353485436E+03  0.23353485436E+03  0.00000000000E+00 0. -1.
         23    2    1    2    0    0  0.35431275861E+02  0.51245787757E+02  0.10774098825E+02  0.11042019959E+03  0.90526422660E+02 0.  0.
         23    2    1    2    0    0 -0.47004537108E+02  0.70233470939E+02 -0.12176110252E+03  0.17490020089E+03  0.92855518073E+02 0.  0.
        -11    1    4    4    0    0 -0.56570790377E+02  0.88089386799E+02 -0.10798959476E+03  0.15040527573E+03  0.00000000000E+00 0. -1.
         11    1    4    4    0    0  0.95662532696E+01 -0.17855915860E+02 -0.13771507757E+02  0.24494925163E+02  0.00000000000E+00 0.  1.
        -13    1    3    3    0    0  0.57705179275E+02  0.33643289761E+02 -0.18833664650E+02  0.69400760697E+02  0.00000000000E+00 0.  1.
         13    1    3    3    0    0 -0.22273903414E+02  0.17602497996E+02  0.29607763475E+02  0.41019438892E+02  0.00000000000E+00 0. -1.
         21    1    1    2  502  503  0.25709791031E+02 -0.14447511010E+01  0.12403929299E+01  0.25780210147E+02  0.00000000000E+00 0. -1.
         21    1    1    2  503  501 -0.14136529785E+02 -0.12003450759E+03  0.13490842739E+03  0.18113091472E+03  0.00000000000E+00 0.  1.
<scales pt_clust_5="13000.00000" pt_clust_6="13000.00000" pt_clust_7="13000.00000" pt_clust_8="13000.00000" pt_clust_9="25.75035" pt_clust_10="81.45025"></scales>
<clustering>
<clus scale="   25.750">  2  9  1 -1</clus>
<clus scale="   90.526">  7  8 -1 -1</clus>
<clus scale="   92.856">  5  6 -1 -1</clus>
<clus scale="  111.745">  1  7  2 -1</clus>
<clus scale="   81.450">  1 10  2 -1</clus>
<clus scale="   25.750">  2  5  1 -1</clus>
</clustering>
</event>
<event>
10    2  0.1898324E-006  0.1035872E+03  0.7546771E-02  0.1273556E+00
         -1   -1    0    0    0  501 -0.00000000000E+00  0.00000000000E+00  0.20184112094E+03  0.20184112094E+03  0.00000000000E+00 0.  1.
          1   -1    0    0  502    0  0.00000000000E+00 -0.00000000000E+00 -0.74623870910E+03  0.74623870910E+03  0.00000000000E+00 0. -1.
         23    2    1    2    0    0  0.11781448411E+02 -0.50237987624E+02  0.20834605181E+02  0.10550067100E+03  0.89630646996E+02 0.  0.
         23    2    1    2    0    0 -0.65876826645E+02  0.53195123130E+01  0.52427719750E+02  0.12412252391E+03  0.91047688842E+02 0.  0.
        -11    1    4    4    0    0 -0.16334439064E+02 -0.31547195159E+02  0.51247843241E+02  0.62356883011E+02  0.00000000000E+00 0. -1.
         11    1    4    4    0    0 -0.49542387581E+02  0.36866707472E+02  0.11798765088E+01  0.61765640899E+02  0.00000000000E+00 0.  1.
        -13    1    3    3    0    0 -0.16732642510E+02  0.19849231351E+02  0.14082292216E+02  0.29534458936E+02  0.00000000000E+00 0. -1.
         13    1    3    3    0    0  0.28514090921E+02 -0.70087218975E+02  0.67523129657E+01  0.75966212062E+02  0.00000000000E+00 0.  1.
         21    1    1    2  502  503  0.82459265897E+02  0.34986717953E+02 -0.66026807369E+03  0.66631638889E+03  0.00000000000E+00 0. -1.
         21    1    1    2  503  501 -0.28363887663E+02  0.99317573578E+01  0.42608160600E+02  0.52140246234E+02  0.00000000000E+00 0.  1.
<scales pt_clust_5="13000.00000" pt_clust_6="13000.00000" pt_clust_7="13000.00000" pt_clust_8="13000.00000" pt_clust_9="89.14018" pt_clust_10="30.05245"></scales>
<clustering>
<clus scale="   30.052">  1 10  2 -1</clus>
<clus scale="   89.140">  2  9  1 -1</clus>
<clus scale="   89.631">  7  8 -1 -1</clus>
<clus scale="   91.048">  5  6 -1 -1</clus>
<clus scale="  102.344">  1  7  2 -1</clus>
<clus scale="   89.140">  2  5  1 -1</clus>
</clustering>
</event>
<event>
10    2  0.1898324E-006  0.9236411E+02  0.7546771E-02  0.1299990E+00
         -1   -1    0    0    0  501 -0.00000000000E+00  0.00000000000E+00  0.77627528591E+02  0.77627528591E+02  0.00000000000E+00 0.  1.
          1   -1    0    0  502    0  0.00000000000E+00 -0.00000000000E+00 -0.29373312823E+03  0.29373312823E+03  0.00000000000E+00 0. -1.
         23    2    1    2    0    0 -0.25083867758E+02 -0.42091974472E+01 -0.48408886308E+01  0.93493426351E+02  0.89836901122E+02 0.  0.
         23    2    1    2    0    0  0.29538684156E+02 -0.17777521795E+01 -0.13912498249E+03  0.16575179027E+03  0.85101121957E+02 0.  0.
        -11    1    3    3    0    0 -0.53136453922E+02 -0.21737957118E+02  0.80877544500E+01  0.57977868943E+02  0.00000000000E+00 0.  1.
         11    1    3    3    0    0  0.28052586164E+02  0.17528759671E+02 -0.12928643081E+02  0.35515557408E+02  0.00000000000E+00 0. -1.
        -13    1    4    4    0    0  0.50042608124E+02  0.25277066879E+02 -0.90182738602E+02  0.10618907232E+03  0.00000000000E+00 0. -1.
         13    1    4    4    0    0 -0.20503923968E+02 -0.27054819058E+02 -0.48942243893E+02  0.59562717950E+02  0.00000000000E+00 0.  1.
         21    1    1    2  502  503 -0.23082758464E+02  0.26773531648E+02 -0.76113457447E+02  0.83921952669E+02  0.00000000000E+00 0. -1.
         21    1    1    2  503  501  0.18627942066E+02 -0.20786582021E+02  0.39737289332E+01  0.28193487535E+02  0.00000000000E+00 0. -1.
<scales pt_clust_5="13000.00000" pt_clust_6="13000.00000" pt_clust_7="13000.00000" pt_clust_8="13000.00000" pt_clust_9="33.57983" pt_clust_10="27.91204"></scales>
<clustering>
<clus scale="   27.912">  1 10  2 -1</clus>
<clus scale="   33.580">  2  9  1 -1</clus>
<clus scale="   85.101">  7  8 -1 -1</clus>
<clus scale="   87.765">  2  7  1 -1</clus>
<clus scale="   89.837">  5  6 -1 -1</clus>
<clus scale="   33.580">  2  5  1 -1</clus>
</clustering>
</event>
<event>
10    2  0.1898324E-006  0.2391055E+03  0.7546771E-02  0.1121238E+00
          1   -1    0    0  502    0  0.00000000000E+00  0.00000000000E+00  0.98549092676E+03  0.98549092676E+03  0.00000000000E+00 0. -1.
         -1   -1    0    0    0  501 -0.00000000000E+00 -0.00000000000E+00 -0.17231722494E+03  0.17231722494E+03  0.00000000000E+00 0.  1.
         23    2    1    2    0    0  0.19430946626E+03 -0.97598518741E+02 -0.31244044490E+01  0.24113996546E+03  0.10419732001E+03 0.  0.
         23    2    1    2    0    0 -0.22923163261E+03  0.42775327028E+02  0.67622381407E+03  0.72120833250E+03  0.92119173660E+02 0.  0.
        -11    1    4    4    0    0 -0.18281599871E+02  0.34996140146E+02  0.97804242976E+02  0.10547329834E+03  0.00000000000E+00 0.  1.
         11    1    4    4    0    0 -0.21095003274E+03  0.77791868818E+01  0.57841957110E+03  0.61573503416E+03  0.00000000000E+00 0. -1.
        -11    1    3    3    0    0  0.15225883571E+03 -0.45786644254E+02  0.37045791934E+02  0.16325305677E+03  0.00000000000E+00 0. -1.
         11    1    3    3    0    0  0.42050630554E+02 -0.51811874487E+02 -0.40170196383E+02  0.77886908690E+02  0.00000000000E+00 0.  1.
         21    1    1    2  502  503  0.18896957315E+02 -0.16871292677E+02  0.11511897171E+03  0.11787329282E+03  0.00000000000E+00 0. -1.
         21    1    1    2  503  501  0.16025209035E+02  0.71694484390E+02  0.24955320485E+02  0.77586560931E+02  0.00000000000E+00 0. -1.
<scales pt_clust_5="13000.00000" pt_clust_6="13000.00000" pt_clust_7="13000.00000" pt_clust_8="13000.00000" pt_clust_9="25.33250" pt_clust_10="72.74712"></scales>
<clustering>
<clus scale="   25.332">  1  9  2 -1</clus>
<clus scale="   72.747">  2 10  1 -1</clus>
<clus scale="   92.119">  5  6 -1 -1</clus>
<clus scale="  104.197">  7  8 -1 -1</clus>
<clus scale="  234.095">  1  5  2 -1</clus>
<clus scale="   25.332">  1  5  2 -1</clus>
</clustering>
</event>
<event>
10    2  0.1898324E-006  0.9136282E+02  0.7546771E-02  0.1303028E+00
          1   -1    0    0  502    0  0.00000000000E+00  0.00000000000E+00  0.13093041074E+03  0.13093041074E+03  0.00000000000E+00 0. -1.
         -1   -1    0    0    0  501 -0.00000000000E+00 -0.00000000000E+00 -0.13441829846E+03  0.13441829846E+03  0.00000000000E+00 0.  1.
         23    2    1    2    0    0 -0.14075845234E+02 -0.17750366872E+02 -0.31234811767E+02  0.92796135773E+02  0.84393746244E+02 0.  0.
         23    2    1    2    0    0 -0.25139750680E+02  0.63456642105E+00  0.20383831602E+02  0.95726505067E+02  0.90086921596E+02 0.  0.
        -11    1    3    3    0    0 -0.16485906215E+02  0.22659968423E+02  0.14637798996E+02  0.31615256319E+02  0.00000000000E+00 0. -1.
         11    1    3    3    0    0  0.24100609804E+01 -0.40410335295E+02 -0.45872610763E+02  0.61180879454E+02  0.00000000000E+00 0.  1.
        -13    1    4    4    0    0  0.51553860833E+01 -0.29875474791E+02  0.38556140771E+02  0.49047915255E+02  0.00000000000E+00 0.  1.
         13    1    4    4    0    0 -0.30295136764E+02  0.30510041212E+02 -0.18172309169E+02  0.46678589812E+02  0.00000000000E+00 0. -1.
         21    1    1    2  502  503  0.21395064399E+02  0.30886413570E+02  0.27542730714E+02  0.46586707751E+02  0.00000000000E+00 0. -1.
         21    1    1    2  503  501  0.17820531516E+02 -0.13770613118E+02 -0.20179638266E+02  0.30239360604E+02  0.00000000000E+00 0. -1.
<scales pt_clust_5="13000.00000" pt_clust_6="13000.00000" pt_clust_7="13000.00000" pt_clust_8="13000.00000" pt_clust_9="37.52190" pt_clust_10="22.52113"></scales>
<clustering>
<clus scale="   22.521">  2 10  1 -1</clus>
<clus scale="   37.522">  1  9  2 -1</clus>
<clus scale="   84.394">  5  6 -1 -1</clus>
<clus scale="   85.754">  2  5  1 -1</clus>
<clus scale="   90.087">  7  8 -1 -1</clus>
<clus scale="   37.522">  1  5  2 -1</clus>
</clustering>
</event>
<event>
10    2  0.1898324E-006  0.1369906E+03  0.7546771E-02  0.1219100E+00
          1   -1    0    0  502    0  0.00000000000E+00  0.00000000000E+00  0.65190069553E+03  0.65190069553E+03  0.00000000000E+00 0. -1.
         -1   -1    0    0    0  501 -0.00000000000E+00 -0.00000000000E+00 -0.10780128148E+03  0.10780128148E+03  0.00000000000E+00 0.  1.
         23    2    1    2    0    0  0.74172828868E+02 -0.14068528490E+02 -0.42702662776E+01  0.11482405996E+03  0.86410633235E+02 0.  0.
         23    2    1    2    0    0 -0.83001037266E+02 -0.23013496183E+02  0.32362138671E+03  0.34768628342E+03  0.93467409035E+02 0.  0.
        -13    1    4    4    0    0 -0.43155454068E+02  0.19663512779E+02  0.54234243672E+02  0.72044431688E+02  0.00000000000E+00 0.  1.
         13    1    4    4    0    0 -0.39845583197E+02 -0.42677008961E+02  0.26938714304E+03  0.27564185174E+03  0.00000000000E+00 0. -1.
        -13    1    3    3    0    0 -0.14364053909E+02 -0.18860618473E+02  0.86188677540E+01  0.25225658669E+02  0.00000000000E+00 0. -1.
         13    1    3    3    0    0  0.88536882777E+02  0.47920899834E+01 -0.12889134032E+02  0.89598401294E+02  0.00000000000E+00 0.  1.
         21    1    1    2  502  503 -0.31465074911E+02  0.16035003046E+02  0.24492367324E+03  0.24745661837E+03  0.00000000000E+00 0. -1.
         21    1    1    2  503  501  0.40293283309E+02  0.21047021626E+02 -0.20175379626E+02  0.49735015253E+02  0.00000000000E+00 0.  1.
<scales pt_clust_5="13000.00000" pt_clust_6="13000.00000" pt_clust_7="13000.00000" pt_clust_8="13000.00000" pt_clust_9="35.31533" pt_clust_10="44.72580"></scales>
<clustering>
<clus scale="   35.315">  1  9  2 -1</clus>
<clus scale="   44.726">  2 10  1 -1</clus>
<clus scale="   86.411">  7  8 -1 -1</clus>
<clus scale="   93.467">  5  6 -1 -1</clus>
<clus scale="  132.277">  2  7  1 -1</clus>
<clus scale="   35.315">  1  5  2 -1</clus>
</clustering>
</event>
<event>
10    2  0.1898324E-006  0.1447174E+03  0.7546771E-02  0.1214764E+00
          1   -1    0    0  502    0  0.00000000000E+00  0.00000000000E+00  0.13506938103E+04  0.13506938103E+04  0.00000000000E+00 0. -1.
         -1   -1    0    0    0  501 -0.00000000000E+00 -0.00000000000E+00 -0.13206060620E+03  0.13206060620E+03  0.00000000000E+00 0.  1.
         23    2    1    2    0    0  0.33324343606E+02  0.85703070836E+02 -0.19342852583E+02  0.13049283643E+03  0.90546707205E+02 0.  0.
         23    2    1    2    0    0  0.13195720195E+03  0.30361082723E+02  0.51062124327E+03  0.53619436608E+03  0.91846859767E+02 0.  0.
        -11    1    3    3    0    0  0.12276485069E+02  0.97177304036E+02  0.26143165361E+01  0.97984565909E+02  0.00000000000E+00 0.  1.
         11    1    3    3    0    0  0.21047858537E+02 -0.11474233200E+02 -0.21957169119E+02  0.32508270521E+02  0.00000000000E+00 0. -1.
        -13    1    4    4    0    0  0.89410433314E+02 -0.13805160955E+02  0.39595304593E+03  0.40615714032E+03  0.00000000000E+00 0.  1.
         13    1    4    4    0    0  0.42546768634E+02  0.44166243677E+02  0.11466819734E+03  0.13003722576E+03  0.00000000000E+00 0. -1.
         21    1    1    2  502  503 -0.40222237246E+02 -0.99296699076E+02  0.66815839912E+03  0.67669292085E+03  0.00000000000E+00 0. -1.
         21    1    1    2  503  501 -0.12505930831E+03 -0.16767454483E+02  0.59196414310E+02  0.13937429315E+03  0.00000000000E+00 0.  1.
<scales pt_clust_5="13000.00000" pt_clust_6="13000.00000" pt_clust_7="13000.00000" pt_clust_8="13000.00000" pt_clust_9="107.13385" pt_clust_10="111.83589"></scales>
<clustering>
<clus scale="   90.547">  5  6 -1 -1</clus>
<clus scale="   91.847">  7  8 -1 -1</clus>
<clus scale="  107.134">  1  9  2 -1</clus>
<clus scale="  122.952">  2  5  1 -1</clus>
<clus scale="  111.836">  2 10  1 -1</clus>
<clus scale="  107.134">  1  5  2 -1</clus>
</clustering>
</event>
<event>
10    2  0.1898324E-006  0.2294423E+03  0.7546771E-02  0.1127215E+00
          1   -1    0    0  502    0  0.00000000000E+00  0.00000000000E+00  0.55673042847E+03  0.55673042847E+03  0.00000000000E+00 0. -1.
         -1   -1    0    0    0  501 -0.00000000000E+00 -0.00000000000E+00 -0.17800049405E+03  0.17800049405E+03  0.00000000000E+00 0.  1.
         23    2    1    2    0    0  0.21046245132E+02 -0.25457428907E+03  0.70030760987E+02  0.27987553004E+03  0.90415660948E+02 0.  0.
         23    2    1    2    0    0  0.18862331594E+02  0.18412921935E+03  0.28609823755E+03  0.35321208215E+03  0.92990410648E+02 0.  0.
        -13    1    3    3    0    0  0.32492839251E+02 -0.28707081324E+02  0.22221103610E+02  0.48720206962E+02  0.00000000000E+00 0. -1.
         13    1    3    3    0    0 -0.11446594119E+02 -0.22586720774E+03  0.47809657377E+02  0.23115532308E+03  0.00000000000E+00 0.  1.
        -13    1    4    4    0    0 -0.32405509768E+02  0.10215746978E+03  0.18144843066E+03  0.21073632502E+03  0.00000000000E+00 0.  1.
         13    1    4    4    0    0  0.51267841362E+02  0.81971749574E+02  0.10464980690E+03  0.14247575713E+03  0.00000000000E+00 0. -1.
         21    1    1    2  502  503 -0.12593836103E+02  0.17314059270E+02  0.34619823205E+02  0.40705202554E+02  0.00000000000E+00 0.  1.
         21    1    1    2  503  501 -0.27314740623E+02  0.53131010442E+02 -0.12018887325E+02  0.60938107769E+02  0.00000000000E+00 0.  1.
<scales pt_clust_5="13000.00000" pt_clust_6="13000.00000" pt_clust_7="13000.00000" pt_clust_8="13000.00000" pt_clust_9="21.40984" pt_clust_10="60.73824"></scales>
<clustering>
<clus scale="   21.410">  1  9  2 -1</clus>
<clus scale="   60.738">  2 10  1 -1</clus>
<clus scale="   90.416">  5  6 -1 -1</clus>
<clus scale="   92.990">  7  8 -1 -1</clus>
<clus scale="  228.411">  2  5  1 -1</clus>
<clus scale="   21.410">  1  5  2 -1</clus>
</clustering>
</event>
<event>
10    2  0.1898324E-006  0.9566785E+02  0.7546771E-02  0.1290227E+00
          1   -1    0    0  502    0  0.00000000000E+00  0.00000000000E+00  0.36974026894E+03  0.36974026894E+03  0.00000000000E+00 0. -1.
         -1   -1    0    0    0  501 -0.00000000000E+00 -0.00000000000E+00 -0.15691552023E+03  0.15691552023E+03  0.00000000000E+00 0.  1.
         23    2    1    2    0    0  0.48757255813E+02 -0.16597838130E+02 -0.30348530104E+02  0.10964969274E+03  0.91919876052E+02 0.  0.
         23    2    1    2    0    0  0.25185816262E+01 -0.29271911517E+02  0.59287086875E+02  0.11407693137E+03  0.92926850494E+02 0.  0.
        -11    1    3    3    0    0  0.15892760067E+02 -0.53582215571E+02 -0.15990225367E+02  0.58131927160E+02  0.00000000000E+00 0. -1.
         11    1    3    3    0    0  0.32864495745E+02  0.36984377442E+02 -0.14358304737E+02  0.51517765579E+02  0.00000000000E+00 0.  1.
        -13    1    4    4    0    0 -0.16612751752E+02  0.27029239863E+02  0.24521521098E+01  0.31821005300E+02  0.00000000000E+00 0.  1.
         13    1    4    4    0    0  0.19131333378E+02 -0.56301151380E+02  0.56834934765E+02  0.82255926067E+02  0.00000000000E+00 0. -1.
         21    1    1    2  502  503 -0.24360305313E+02  0.26006116338E+02  0.23726979032E+03  0.23993060655E+03  0.00000000000E+00 0. -1.
         21    1    1    2  503  501 -0.26915532126E+02  0.19863633309E+02 -0.53383598381E+02  0.62998558507E+02  0.00000000000E+00 0.  1.
<scales pt_clust_5="13000.00000" pt_clust_6="13000.00000" pt_clust_7="13000.00000" pt_clust_8="13000.00000" pt_clust_9="36.07686" pt_clust_10="33.45160"></scales>
<clustering>
<clus scale="   33.452">  2 10  1 -1</clus>
<clus scale="   36.077">  1  9  2 -1</clus>
<clus scale="   91.920">  5  6 -1 -1</clus>
<clus scale="   92.927">  7  8 -1 -1</clus>
<clus scale="   94.690">  2  5  1 -1</clus>
<clus scale="   36.077">  1  5  2 -1</clus>
</clustering>
</event>
<event>
10    2  0.1898324E-006  0.2042615E+03  0.7546771E-02  0.1148664E+00
         -1   -1    0    0    0  501 -0.00000000000E+00  0.00000000000E+00  0.80140617411E+03  0.80140617411E+03  0.00000000000E+00 0.  1.
          1   -1    0    0  502    0  0.00000000000E+00 -0.00000000000E+00 -0.77236901749E+02  0.77236901749E+02  0.00000000000E+00 0. -1.
         23    2    1    2    0    0  0.83705781368E+02  0.13743118329E+03  0.40652274345E+03  0.45191819182E+03  0.11434737943E+03 0.  0.
         23    2    1    2    0    0 -0.46859623759E+02 -0.17500104723E+03  0.19876443419E+03  0.28420453540E+03  0.91889753360E+02 0.  0.
        -11    1    4    4    0    0 -0.99419820259E+01 -0.14742994396E+03  0.11006713236E+03  0.18425310040E+03  0.00000000000E+00 0. -1.
         11    1    4    4    0    0 -0.36917641733E+02 -0.27571103276E+02  0.88697301822E+02  0.99951434994E+02  0.00000000000E+00 0.  1.
        -11    1    3    3    0    0  0.96207927364E+02  0.49614800718E+02  0.20805361396E+03  0.23452910272E+03  0.00000000000E+00 0. -1.
         11    1    3    3    0    0 -0.12502145996E+02  0.87816382570E+02  0.19846912949E+03  0.21738908911E+03  0.00000000000E+00 0.  1.
         21    1    1    2  502  503 -0.16748547139E+02  0.18592969992E+02  0.52426175797E+01  0.25567506790E+02  0.00000000000E+00 0.  1.
         21    1    1    2  503  501 -0.20097610470E+02  0.18976893952E+02  0.11363947714E+03  0.11695284184E+03  0.00000000000E+00 0.  1.
<scales pt_clust_5="13000.00000" pt_clust_6="13000.00000" pt_clust_7="13000.00000" pt_clust_8="13000.00000" pt_clust_9="25.02424" pt_clust_10="28.25731"></scales>
<clustering>
<clus scale="   25.024">  2  9  1 -1</clus>
<clus scale="   28.257">  1 10  2 -1</clus>
<clus scale="   91.890">  5  6 -1 -1</clus>
<clus scale="  114.347">  7  8 -1 -1</clus>
<clus scale="  192.591">  2  5  1 -1</clus>
<clus scale="   25.024">  2  5  1 -1</clus>
</clustering>
</event>
<event>
10    2  0.1898324E-006  0.9967383E+02  0.7546771E-02  0.1282134E+00
         -1   -1    0    0    0  501 -0.00000000000E+00  0.00000000000E+00  0.28810263671E+03  0.28810263671E+03  0.00000000000E+00 0.  1.
          1   -1    0    0  502    0  0.00000000000E+00 -0.00000000000E+00 -0.76464712454E+02  0.76464712454E+02  0.00000000000E+00 0. -1.
         23    2    1    2    0    0 -0.22635716505E+02  0.18503559390E+02  0.63730066911E+02  0.11764969856E+03  0.94473132537E+02 0.  0.
         23    2    1    2    0    0 -0.18483446345E+02 -0.45550438962E+02  0.59988194238E+02  0.12048050747E+03  0.92198096256E+02 0.  0.
        -13    1    4    4    0    0 -0.51617557156E+02 -0.85353168514E+01  0.43794694301E+02  0.68229019409E+02  0.00000000000E+00 0.  1.
         13    1    4    4    0    0  0.33134110811E+02 -0.37015122110E+02  0.16193499937E+02  0.52251488058E+02  0.00000000000E+00 0. -1.
        -13    1    3    3    0    0  0.11107900078E+02  0.50902523801E+02  0.34553085200E+02  0.62516942266E+02  0.00000000000E+00 0. -1.
         13    1    3    3    0    0 -0.33743616583E+02 -0.32398964411E+02  0.29176981712E+02  0.55132756296E+02  0.00000000000E+00 0.  1.
         21    1    1    2  502  503  0.19685407345E+02  0.19042237935E+02 -0.74320717941E+01  0.28378826245E+02  0.00000000000E+00 0. -1.
         21    1    1    2  503  501  0.21433755505E+02  0.80046416361E+01  0.95351734903E+02  0.98058316893E+02  0.00000000000E+00 0. -1.
<scales pt_clust_5="13000.00000" pt_clust_6="13000.00000" pt_clust_7="13000.00000" pt_clust_8="13000.00000" pt_clust_9="28.54029" pt_clust_10="22.87969"></scales>
<clustering>
<clus scale="   22.880">  1 10  2 -1</clus>
<clus scale="   28.540">  2  9  1 -1</clus>
<clus scale="   92.198">  5  6 -1 -1</clus>
<clus scale="   94.473">  7  8 -1 -1</clus>
<clus scale="   97.520">  2  5  1 -1</clus>
<clus scale="   28.540">  2  5  1 -1</clus>
</clustering>
</event>
<event>
10    2  0.1898324E-006  0.1157680E+03  0.7546771E-02  0.1257649E+00
          1   -1    0    0  503    0  0.00000000000E+00  0.00000000000E+00  0.51300360770E+02  0.51300360770E+02  0.00000000000E+00 0. -1.
         -1   -1    0    0    0  501 -0.00000000000E+00 -0.00000000000E+00 -0.40947479562E+03  0.40947479562E+03  0.00000000000E+00 0.  1.
         23    2    1    2    0    0  0.25805558045E+02 -0.65931545556E+01 -0.10695284328E+03  0.14358509112E+03  0.92023753412E+02 0.  0.
         23    2    1    2    0    0 -0.51992175532E+02 -0.24302511794E+02 -0.11281603729E+03  0.16703930406E+03  0.10899941484E+03 0.  0.
        -11    1    3    3    0    0 -0.10426250215E+02  0.37218891301E+02 -0.37809515076E+02  0.54069510757E+02  0.00000000000E+00 0.  1.
         11    1    3    3    0    0  0.36231808260E+02 -0.43812045856E+02 -0.69143328204E+02  0.89515580359E+02  0.00000000000E+00 0. -1.
        -13    1    4    4    0    0 -0.78621642729E+02 -0.17856241121E+02 -0.11398407915E+03  0.13961582415E+03  0.00000000000E+00 0.  1.
         13    1    4    4    0    0  0.26629467197E+02 -0.64462706731E+01  0.11680418612E+01  0.27423479914E+02  0.00000000000E+00 0. -1.
         21    1    1    2  502  501 -0.48419955625E+01  0.26270219091E+02 -0.68718602581E+02  0.73727984326E+02  0.00000000000E+00 0.  1.
         21    1    1    2  503  502  0.31028613050E+02  0.46254472587E+01 -0.69686951700E+02  0.76422776889E+02  0.00000000000E+00 0. -1.
<scales pt_clust_5="13000.00000" pt_clust_6="13000.00000" pt_clust_7="13000.00000" pt_clust_8="13000.00000" pt_clust_9="26.71272" pt_clust_10="31.70245"></scales>
<clustering>
<clus scale="   26.713">  2  9  1 -1</clus>
<clus scale="   31.702">  2 10  1 -1</clus>
<clus scale="   92.024">  5  6 -1 -1</clus>
<clus scale="   99.949">  2  5  1 -1</clus>
<clus scale="  108.999">  7  8 -1 -1</clus>
<clus scale="  115.768">  1  5  2 -1</clus>
</clustering>
</event>
<event>
10    2  0.1898324E-006  0.1098877E+03  0.7546771E-02  0.1260998E+00
          2   -1    0    0  502    0  0.00000000000E+00  0.00000000000E+00  0.77770289343E+03  0.77770289343E+03  0.00000000000E+00 0. -1.
         -2   -1    0    0    0  501 -0.00000000000E+00 -0.00000000000E+00 -0.27532154727E+02  0.27532154727E+02  0.00000000000E+00 0.  1.
         23    2    1    2    0    0  0.23117609115E+02 -0.47103761897E+02  0.18198587613E+03  0.21063257974E+03  0.92163096192E+02 0.  0.
         23    2    1    2    0    0 -0.58872421272E+02  0.31060437085E+02  0.40161190186E+03  0.41726871315E+03  0.91598834680E+02 0.  0.
        -11    1    4    4    0    0 -0.16418240901E+02 -0.25035819876E+02  0.46853331569E+02  0.55602028652E+02  0.00000000000E+00 0.  1.
         11    1    4    4    0    0 -0.42454180371E+02  0.56096256961E+02  0.35475857030E+03  0.36166668450E+03  0.00000000000E+00 0. -1.
        -13    1    3    3    0    0  0.56191758050E+02 -0.41707778624E+02  0.99917506145E+02  0.12198590289E+03  0.00000000000E+00 0.  1.
         13    1    3    3    0    0 -0.33074148935E+02 -0.53959832722E+01  0.82068369990E+02  0.88646676847E+02  0.00000000000E+00 0. -1.
         21    1    1    2  502  503  0.13351929599E+02  0.20796956477E+02  0.14038780879E+03  0.14254656881E+03  0.00000000000E+00 0. -1.
         21    1    1    2  503  501  0.22402882558E+02 -0.47536316653E+01  0.26185151913E+02  0.34787186457E+02  0.00000000000E+00 0.  1.
<scales pt_clust_5="13000.00000" pt_clust_6="13000.00000" pt_clust_7="13000.00000" pt_clust_8="13000.00000" pt_clust_9="25.11034" pt_clust_10="22.90166"></scales>
<clustering>
<clus scale="   22.902">  2 10  1 -1</clus>
<clus scale="   25.110">  1  9  2 -1</clus>
<clus scale="   91.599">  5  6 -1 -1</clus>
<clus scale="   92.163">  7  8 -1 -1</clus>
<clus scale="  109.415">  1  5  2 -1</clus>
<clus scale="   25.110">  1  5  2 -1</clus>
</clustering>
</event>
<event>
10    2  0.1898324E-006  0.9323673E+02  0.7546771E-02  0.1296519E+00
         -1   -1    0    0    0  501 -0.00000000000E+00  0.00000000000E+00  0.17693699217E+03  0.17693699217E+03  0.00000000000E+00 0.  1.
          1   -1    0    0  502    0  0.00000000000E+00 -0.00000000000E+00 -0.23041080683E+03  0.23041080683E+03  0.00000000000E+00 0. -1.
         23    2    1    2    0    0  0.43169060562E+01  0.29577644290E+02  0.10124857716E+03  0.13883575716E+03  0.90169952692E+02 0.  0.
         23    2    1    2    0    0  0.25347515971E+02  0.26623790536E+02 -0.11188336626E+03  0.14971954437E+03  0.92448534501E+02 0.  0.
        -11    1    3    3    0    0  0.30341530373E+02  0.26838012412E+02  0.71092190348E+01  0.41126978625E+02  0.00000000000E+00 0. -1.
         11    1    3    3    0    0 -0.26024624316E+02  0.27396318781E+01  0.94139358128E+02  0.97708778533E+02  0.00000000000E+00 0.  1.
        -13    1    4    4    0    0  0.43941869998E+02  0.46896797649E+02 -0.10186380568E+03  0.12044265223E+03  0.00000000000E+00 0. -1.
         13    1    4    4    0    0 -0.18594354026E+02 -0.20273007113E+02 -0.10019560582E+02  0.29276892139E+02  0.00000000000E+00 0.  1.
         21    1    1    2  502  503 -0.43786128907E+02 -0.11093799102E+02 -0.53824240891E+02  0.70266253427E+02  0.00000000000E+00 0.  1.
         21    1    1    2  503  501  0.14121706880E+02 -0.45107635724E+02  0.10985215334E+02  0.48526244051E+02  0.00000000000E+00 0.  1.
<scales pt_clust_5="13000.00000" pt_clust_6="13000.00000" pt_clust_7="13000.00000" pt_clust_8="13000.00000" pt_clust_9="45.16965" pt_clust_10="47.25662"></scales>
<clustering>
<clus scale="   45.170">  2  9  1 -1</clus>
<clus scale="   47.257">  1 10  2 -1</clus>
<clus scale="   90.170">  5  6 -1 -1</clus>
<clus scale="   90.978">  1  5  2 -1</clus>
<clus scale="   92.449">  7  8 -1 -1</clus>
<clus scale="   45.170">  2  5  1 -1</clus>
</clustering>
</event>
<event>
10    2  0.1898324E-006  0.1008413E+03  0.7546771E-02  0.1282641E+00
          1   -1    0    0  502    0  0.00000000000E+00  0.00000000000E+00  0.21814648383E+03  0.21814648383E+03  0.00000000000E+00 0. -1.
         -1   -1    0    0    0  501 -0.00000000000E+00 -0.00000000000E+00 -0.21668461867E+03  0.21668461867E+03  0.00000000000E+00 0.  1.
         23    2    1    2    0    0 -0.37784758234E+02 -0.16599036675E+02 -0.11705551268E+03  0.15163996132E+03  0.87117557624E+02 0.  0.
         23    2    1    2    0    0 -0.30105618847E+01  0.35045337409E+02  0.17057785389E+03  0.19847606973E+03  0.95177239187E+02 0.  0.
        -13    1    4    4    0    0  0.26872465637E+02 -0.16045176075E+02  0.21207868028E+02  0.37806755362E+02  0.00000000000E+00 0.  1.
         13    1    4    4    0    0 -0.29883027522E+02  0.51090513484E+02  0.14936998587E+03  0.16066931437E+03  0.00000000000E+00 0. -1.
        -13    1    3    3    0    0 -0.46049225765E+01  0.34573983923E+02 -0.50412629211E+02  0.61302519200E+02  0.00000000000E+00 0. -1.
         13    1    3    3    0    0 -0.33179835658E+02 -0.51173020598E+02 -0.66642883473E+02  0.90337442122E+02  0.00000000000E+00 0.  1.
         21    1    1    2  502  503  0.22012445874E+02 -0.29037904163E+02 -0.10544836330E+02  0.37933378768E+02  0.00000000000E+00 0.  1.
         21    1    1    2  503  501  0.18782874245E+02  0.10591603429E+02 -0.41515639724E+02  0.46781692678E+02  0.00000000000E+00 0.  1.
<scales pt_clust_5="13000.00000" pt_clust_6="13000.00000" pt_clust_7="13000.00000" pt_clust_8="13000.00000" pt_clust_9="36.96863" pt_clust_10="21.56336"></scales>
<clustering>
<clus scale="   21.563">  2 10  1 -1</clus>
<clus scale="   36.969">  2  9  1 -1</clus>
<clus scale="   87.118">  7  8 -1 -1</clus>
<clus scale="   93.272">  2  7  1 -1</clus>
<clus scale="   95.177">  5  6 -1 -1</clus>
<clus scale="  100.841">  1  5  2 -1</clus>
</clustering>
</event>
<event>
10    2  0.1898324E-006  0.3602857E+03  0.7546771E-02  0.1058480E+00
          2   -1    0    0  503    0  0.00000000000E+00  0.00000000000E+00  0.40119243935E+03  0.40119243935E+03  0.00000000000E+00 0. -1.
         -2   -1    0    0    0  501 -0.00000000000E+00 -0.00000000000E+00 -0.57200962727E+03  0.57200962727E+03  0.00000000000E+00 0.  1.
         23    2    1    2    0    0 -0.29788398099E+03  0.14245309290E+03 -0.32202927349E+03  0.46997303591E+03  0.90244399754E+02 0.  0.
         23    2    1    2    0    0  0.31524156634E+03 -0.16029598669E+03  0.21073632281E+03  0.42153421554E+03  0.90604903994E+02 0.  0.
        -11    1    3    3    0    0 -0.12979298677E+03  0.24474499732E+02 -0.16558108852E+03  0.21180726481E+03  0.00000000000E+00 0.  1.
         11    1    3    3    0    0 -0.16809099423E+03  0.11797859317E+03 -0.15644818497E+03  0.25816577110E+03  0.00000000000E+00 0. -1.
        -13    1    4    4    0    0  0.24650449530E+03 -0.99327542274E+02  0.11732562854E+03  0.29050943181E+03  0.00000000000E+00 0. -1.
         13    1    4    4    0    0  0.68737071033E+02 -0.60968444421E+02  0.93410694262E+02  0.13102478373E+03  0.00000000000E+00 0.  1.
         21    1    1    2  502  501 -0.13108450960E+02 -0.15771696237E+02 -0.13533920822E+02  0.24571221002E+02  0.00000000000E+00 0. -1.
         21    1    1    2  503  502 -0.42491343845E+01  0.33614590028E+02 -0.45990316421E+02  0.57123594165E+02  0.00000000000E+00 0.  1.
<scales pt_clust_5="13000.00000" pt_clust_6="13000.00000" pt_clust_7="13000.00000" pt_clust_8="13000.00000" pt_clust_9="20.50800" pt_clust_10="32.60638"></scales>
<clustering>
<clus scale="   20.508">  2  9  1 -1</clus>
<clus scale="   32.606">  2 10  1 -1</clus>
<clus scale="   90.244">  5  6 -1 -1</clus>
<clus scale="   90.605">  7  8 -1 -1</clus>
<clus scale="  360.195">  2  5  1 -1</clus>
<clus scale="  360.286">  1  5  2 -1</clus>
</clustering>
</event>
<event>
10    2  0.1898324E-006  0.9919264E+02  0.7546771E-02  0.1284326E+00
          1   -1    0    0  502    0  0.00000000000E+00  0.00000000000E+00  0.24078392466E+03  0.24078392466E+03  0.00000000000E+00 0. -1.
         -1   -1    0    0    0  501 -0.00000000000E+00 -0.00000000000E+00 -0.10550285956E+03  0.10550285956E+03  0.00000000000E+00 0.  1.
         23    2    1    2    0    0  0.54212724771E+02  0.72517909270E+01 -0.22345174370E+02  0.10846765228E+03  0.90963271575E+02 0.  0.
         23    2    1    2    0    0 -0.59652327480E+01 -0.61600734546E+01  0.10663579214E+03  0.14334392909E+03  0.95408381887E+02 0.  0.
        -13    1    4    4    0    0 -0.44354982790E+02 -0.22513656167E+01  0.91842918434E+02  0.10201742406E+03  0.00000000000E+00 0. -1.
         13    1    4    4    0    0  0.38389750042E+02 -0.39087078379E+01  0.14792873704E+02  0.41326505026E+02  0.00000000000E+00 0.  1.
        -13    1    3    3    0    0  0.78698552135E+02  0.40758616854E+01 -0.63737109068E+01  0.79061361912E+02  0.00000000000E+00 0.  1.
         13    1    3    3    0    0 -0.24485827364E+02  0.31759292416E+01 -0.15971463463E+02  0.29406290372E+02  0.00000000000E+00 0. -1.
         21    1    1    2  502  503 -0.19660216885E+02  0.87899488769E+01  0.59315046625E+02  0.63103582191E+02  0.00000000000E+00 0. -1.
         21    1    1    2  503  501 -0.28587275138E+02 -0.98816663493E+01 -0.83245992897E+01  0.31371620662E+02  0.00000000000E+00 0. -1.
<scales pt_clust_5="13000.00000" pt_clust_6="13000.00000" pt_clust_7="13000.00000" pt_clust_8="13000.00000" pt_clust_9="21.53572" pt_clust_10="31.26938"></scales>
<clustering>
<clus scale="   21.536">  1  9  2 -1</clus>
<clus scale="   31.269">  2 10  1 -1</clus>
<clus scale="   90.963">  7  8 -1 -1</clus>
<clus scale="   94.925">  2  7  1 -1</clus>
<clus scale="   95.408">  5  6 -1 -1</clus>
<clus scale="   21.536">  1  5  2 -1</clus>
</clustering>
</event>
<event>
10    2  0.1898324E-006  0.2468415E+03  0.7546771E-02  0.1153586E+00
         -2   -1    0    0    0  501 -0.00000000000E+00  0.00000000000E+00  0.14868193825E+03  0.14868193825E+03  0.00000000000E+00 0.  1.
          2   -1    0    0  502    0  0.00000000000E+00 -0.00000000000E+00 -0.65608997433E+03  0.65608997433E+03  0.00000000000E+00 0. -1.
         23    2    1    2    0    0 -0.20382674077E+02 -0.19125589988E+02 -0.59185302584E+02  0.11468626766E+03  0.94174297733E+02 0.  0.
         23    2    1    2    0    0 -0.10389199589E+03  0.21186471449E+03 -0.15882524615E+03  0.29925187800E+03  0.92983996546E+02 0.  0.
        -13    1    4    4    0    0 -0.91596801194E+02  0.13420075814E+03 -0.60560544845E+02  0.17339953018E+03  0.00000000000E+00 0.  1.
         13    1    4    4    0    0 -0.12295194694E+02  0.77663956355E+02 -0.98264701305E+02  0.12585234782E+03  0.00000000000E+00 0. -1.
        -13    1    3    3    0    0  0.16905221084E+02  0.30837291261E+02 -0.14787039837E+02  0.38149463684E+02  0.00000000000E+00 0. -1.
         13    1    3    3    0    0 -0.37287895162E+02 -0.49962881250E+02 -0.44398262747E+02  0.76536803979E+02  0.00000000000E+00 0.  1.
         21    1    1    2  502  503  0.10263202149E+03 -0.19987799365E+03 -0.29138971719E+03  0.36795721418E+03  0.00000000000E+00 0. -1.
         21    1    1    2  503  501  0.21642648473E+02  0.71388691472E+01  0.19922298471E+01  0.22876552742E+02  0.00000000000E+00 0.  1.
<scales pt_clust_5="13000.00000" pt_clust_6="13000.00000" pt_clust_7="13000.00000" pt_clust_8="13000.00000" pt_clust_9="228.65845" pt_clust_10="22.78964"></scales>
<clustering>
<clus scale="   22.790">  1 10  2 -1</clus>
<clus scale="   92.984">  5  6 -1 -1</clus>
<clus scale="   94.174">  7  8 -1 -1</clus>
<clus scale="   97.140">  1  7  2 -1</clus>
<clus scale="  228.658">  2  9  1 -1</clus>
<clus scale="  228.658">  2  5  1 -1</clus>
</clustering>
</event>
<event>
10    2  0.1898324E-006  0.9218189E+02  0.7546771E-02  0.1298867E+00
          1   -1    0    0  502    0  0.00000000000E+00  0.00000000000E+00  0.31379039427E+03  0.31379039427E+03  0.00000000000E+00 0. -1.
         -1   -1    0    0    0  501 -0.00000000000E+00 -0.00000000000E+00 -0.12794831287E+03  0.12794831287E+03  0.00000000000E+00 0.  1.
         23    2    1    2    0    0  0.64974034652E+01 -0.89088648178E+00  0.96294576175E+02  0.13211707325E+03  0.90217879116E+02 0.  0.
         23    2    1    2    0    0  0.33899085195E+02 -0.22540236306E+02  0.12901522698E+03  0.16145693528E+03  0.88126062712E+02 0.  0.
        -11    1    4    4    0    0  0.62047664217E+02 -0.75356223749E+01  0.10213902231E+03  0.11974588977E+03  0.00000000000E+00 0.  1.
         11    1    4    4    0    0 -0.28148579022E+02 -0.15004613931E+02  0.26876204672E+02  0.41711045513E+02  0.00000000000E+00 0. -1.
        -13    1    3    3    0    0 -0.92729324692E+01 -0.43281759097E+02  0.38027637206E+02  0.58355797815E+02  0.00000000000E+00 0. -1.
         13    1    3    3    0    0  0.15770335934E+02  0.42390872615E+02  0.58266938969E+02  0.73761275432E+02  0.00000000000E+00 0.  1.
         21    1    1    2  502  503  0.22196131891E+02 -0.13186717863E+02  0.35478720104E+02  0.43878210756E+02  0.00000000000E+00 0.  1.
         21    1    1    2  503  501 -0.62592620551E+02  0.36617840651E+02 -0.74946441855E+02  0.10428648785E+03  0.00000000000E+00 0.  1.
<scales pt_clust_5="13000.00000" pt_clust_6="13000.00000" pt_clust_7="13000.00000" pt_clust_8="13000.00000" pt_clust_9="25.81778" pt_clust_10="71.13522"></scales>
<clustering>
<clus scale="   25.818">  1  9  2 -1</clus>
<clus scale="   71.135">  2 10  1 -1</clus>
<clus scale="   88.126">  5  6 -1 -1</clus>
<clus scale="   90.136">  1  5  2 -1</clus>
<clus scale="   90.218">  7  8 -1 -1</clus>
<clus scale="   25.818">  1  5  2 -1</clus>
</clustering>
</event>
<event>
10    2  0.1898324E-006  0.1403685E+03  0.7546771E-02  0.1214683E+00
          2   -1    0    0  502    0  0.00000000000E+00  0.00000000000E+00  0.48766267747E+03  0.48766267747E+03  0.00000000000E+00 0. -1.
         -2   -1    0    0    0  501 -0.00000000000E+00 -0.00000000000E+00 -0.34775064847E+03  0.34775064847E+03  0.00000000000E+00 0.  1.
         23    2    1    2    0    0 -0.84005155740E+02  0.57952146965E+02 -0.90055368851E+02  0.17254636097E+03  0.10605168408E+03 0.  0.
         23    2    1    2    0    0  0.56231044356E+02 -0.99254344723E+02  0.35366278275E+03  0.38451386509E+03  0.98793690334E+02 0.  0.
        -13    1    3    3    0    0 -0.23340299340E+02  0.12335612197E+02 -0.92913026369E+02  0.96590720934E+02  0.00000000000E+00 0.  1.
         13    1    3    3    0    0 -0.60664856400E+02  0.45616534768E+02  0.28576575183E+01  0.75955640033E+02  0.00000000000E+00 0. -1.
        -13    1    4    4    0    0 -0.16077889157E+02 -0.70945674335E+02  0.18690820568E+03  0.20056536236E+03  0.00000000000E+00 0. -1.
         13    1    4    4    0    0  0.72308933513E+02 -0.28308670388E+02  0.16675457707E+03  0.18394850273E+03  0.00000000000E+00 0.  1.
         21    1    1    2  502  503 -0.26225856289E+02  0.14546426063E+02  0.69650560484E+02  0.75832675181E+02  0.00000000000E+00 0. -1.
         21    1    1    2  503  501  0.53999967673E+02  0.26755771695E+02 -0.19334594538E+03  0.20252042470E+03  0.00000000000E+00 0.  1.
<scales pt_clust_5="13000.00000" pt_clust_6="13000.00000" pt_clust_7="13000.00000" pt_clust_8="13000.00000" pt_clust_9="29.98990" pt_clust_10="60.07720"></scales>
<clustering>
<clus scale="   29.990">  1  9  2 -1</clus>
<clus scale="   60.077">  2 10  1 -1</clus>
<clus scale="   98.794">  7  8 -1 -1</clus>
<clus scale="  106.052">  5  6 -1 -1</clus>
<clus scale="  134.969">  1  7  2 -1</clus>
<clus scale="   29.990">  1  5  2 -1</clus>
</clustering>
</event>
<event>
10    2  0.1898324E-006  0.2622905E+03  0.7546771E-02  0.1105880E+00
         -1   -1    0    0    0  501 -0.00000000000E+00  0.00000000000E+00  0.23106973503E+03  0.23106973503E+03  0.00000000000E+00 0.  1.
          1   -1    0    0  502    0  0.00000000000E+00 -0.00000000000E+00 -0.57531481254E+03  0.57531481254E+03  0.00000000000E+00 0. -1.
         23    2    1    2    0    0  0.25043369781E+03 -0.78023062844E+02 -0.78389961465E+02  0.28887130845E+03  0.92179235455E+02 0.  0.
         23    2    1    2    0    0 -0.23705078598E+03  0.64008673950E+01 -0.13713076459E+03  0.28838673865E+03  0.90155522272E+02 0.  0.
        -11    1    3    3    0    0  0.23738009536E+03 -0.46598628004E+02 -0.56532921883E+02  0.24842848682E+03  0.00000000000E+00 0. -1.
         11    1    3    3    0    0  0.13053602451E+02 -0.31424434840E+02 -0.21857039582E+02  0.40442821628E+02  0.00000000000E+00 0.  1.
        -11    1    4    4    0    0 -0.12062716581E+03 -0.23356048615E+01 -0.18711558754E+02  0.12209213985E+03  0.00000000000E+00 0.  1.
         11    1    4    4    0    0 -0.11642362017E+03  0.87364722565E+01 -0.11841920583E+03  0.16629459880E+03  0.00000000000E+00 0. -1.
         21    1    1    2  502  503  0.28607391611E+01  0.25771197855E+02 -0.16589363914E+03  0.16790782583E+03  0.00000000000E+00 0. -1.
         21    1    1    2  503  501 -0.16243650991E+02  0.45850997594E+02  0.37169287684E+02  0.61218674641E+02  0.00000000000E+00 0.  1.
<scales pt_clust_5="13000.00000" pt_clust_6="13000.00000" pt_clust_7="13000.00000" pt_clust_8="13000.00000" pt_clust_9="25.92949" pt_clust_10="49.33150"></scales>
<clustering>
<clus scale="   25.929">  2  9  1 -1</clus>
<clus scale="   49.332">  1 10  2 -1</clus>
<clus scale="   90.156">  7  8 -1 -1</clus>
<clus scale="   92.179">  5  6 -1 -1</clus>
<clus scale="  261.586">  2  7  1 -1</clus>
<clus scale="   25.929">  2  5  1 -1</clus>
</clustering>
</event>
<event>
10    2  0.1898324E-006  0.9680724E+02  0.7546771E-02  0.1287416E+00
         -1   -1    0    0    0  501 -0.00000000000E+00  0.00000000000E+00  0.46390520237E+03  0.46390520237E+03  0.00000000000E+00 0.  1.
          1   -1    0    0  502    0  0.00000000000E+00 -0.00000000000E+00 -0.23476208787E+03  0.23476208787E+03  0.00000000000E+00 0. -1.
         23    2    1    2    0    0 -0.41914079729E+02 -0.63956055909E+02  0.24192133060E+03  0.26949985642E+03  0.90868450214E+02 0.  0.
         23    2    1    2    0    0 -0.56360241914E+02 -0.32733371362E+01  0.13010356227E+03  0.16816747734E+03  0.90366873991E+02 0.  0.
        -11    1    4    4    0    0 -0.31649754901E+02 -0.44315166574E+02  0.45593457067E+02  0.71023265914E+02  0.00000000000E+00 0.  1.
         11    1    4    4    0    0 -0.24710487013E+02  0.41041829438E+02  0.84510105204E+02  0.97144211427E+02  0.00000000000E+00 0. -1.
        -13    1    3    3    0    0 -0.67726751665E+02 -0.25900775390E+02  0.13911257569E+03  0.15687597577E+03  0.00000000000E+00 0.  1.
         13    1    3    3    0    0  0.25812671936E+02 -0.38055280520E+02  0.10280875491E+03  0.11262388065E+03  0.00000000000E+00 0. -1.
         21    1    1    2  502  503  0.73286425547E+02  0.56107717025E+02 -0.18731679106E+03  0.20882182906E+03  0.00000000000E+00 0. -1.
         21    1    1    2  503  501  0.24987896096E+02  0.11121676021E+02  0.44435012689E+02  0.52178127424E+02  0.00000000000E+00 0.  1.
<scales pt_clust_5="13000.00000" pt_clust_6="13000.00000" pt_clust_7="13000.00000" pt_clust_8="13000.00000" pt_clust_9="92.98669" pt_clust_10="27.35117"></scales>
<clustering>
<clus scale="   27.351">  1 10  2 -1</clus>
<clus scale="   90.367">  5  6 -1 -1</clus>
<clus scale="   90.868">  7  8 -1 -1</clus>
<clus scale="   92.987">  2  9  1 -1</clus>
<clus scale="   96.337">  2  5  1 -1</clus>
<clus scale="   92.987">  2  5  1 -1</clus>
</clustering>
</event>
<event>
10    2  0.1898324E-006  0.1087488E+03  0.7546771E-02  0.1263740E+00
         -1   -1    0    0    0  501 -0.00000000000E+00  0.00000000000E+00  0.43313335675E+03  0.43313335675E+03  0.00000000000E+00 0.  1.
          1   -1    0    0  502    0  0.00000000000E+00 -0.00000000000E+00 -0.62332455943E+02  0.62332455943E+02  0.00000000000E+00 0. -1.
         23    2    1    2    0    0  0.23514834607E+02  0.13363892857E+02  0.16757911404E+03  0.19272261695E+03  0.91256268511E+02 0.  0.
         23    2    1    2    0    0 -0.78123503954E+01 -0.90325494328E+02  0.10758532284E+03  0.16882555235E+03  0.93315259692E+02 0.  0.
        -13    1    3    3    0    0  0.89501844112E+01  0.46516947669E+02  0.46634209411E+02  0.66473165329E+02  0.00000000000E+00 0.  1.
         13    1    3    3    0    0  0.14564650196E+02 -0.33153054812E+02  0.12094490463E+03  0.12624945162E+03  0.00000000000E+00 0. -1.
        -13    1    4    4    0    0 -0.20962449516E+02 -0.27145825528E+02  0.97692342496E+02  0.10353798296E+03  0.00000000000E+00 0.  1.
         13    1    4    4    0    0  0.13150099120E+02 -0.63179668801E+02  0.98929803437E+01  0.65287569389E+02  0.00000000000E+00 0. -1.
         21    1    1    2  502  503 -0.16627483446E+02  0.23064479027E+02  0.56019875769E+01  0.28979745743E+02  0.00000000000E+00 0.  1.
         21    1    1    2  503  501  0.92499923496E+00  0.53897122445E+02  0.90034476345E+02  0.10493789765E+03  0.00000000000E+00 0.  1.
<scales pt_clust_5="13000.00000" pt_clust_6="13000.00000" pt_clust_7="13000.00000" pt_clust_8="13000.00000" pt_clust_9="28.43314" pt_clust_10="57.31104"></scales>
<clustering>
<clus scale="   28.433">  2  9  1 -1</clus>
<clus scale="   57.311">  1 10  2 -1</clus>
<clus scale="   91.256">  5  6 -1 -1</clus>
<clus scale="   93.315">  7  8 -1 -1</clus>
<clus scale="  106.987">  1  5  2 -1</clus>
<clus scale="   28.433">  2  5  1 -1</clus>
</clustering>
</event>
<event>
10    2  0.1898324E-006  0.9507009E+02  0.7546771E-02  0.1293612E+00
         -3   -1    0    0    0  501 -0.00000000000E+00  0.00000000000E+00  0.12891507383E+03  0.12891507383E+03  0.00000000000E+00 0.  1.
          3   -1    0    0  503    0  0.00000000000E+00 -0.00000000000E+00 -0.16589364831E+03  0.16589364831E+03  0.00000000000E+00 0. -1.
         23    2    1    2    0    0 -0.20557866991E+02  0.39423043631E+01  0.34416808153E+02  0.10109099057E+03  0.92718412586E+02 0.  0.
         23    2    1    2    0    0  0.19986692474E+02 -0.74185866234E+01 -0.11839594787E+02  0.91418474988E+02  0.88105949066E+02 0.  0.
        -11    1    3    3    0    0 -0.18284544992E+02 -0.26926416052E+02 -0.20204768423E+02  0.38309125989E+02  0.00000000000E+00 0. -1.
         11    1    3    3    0    0 -0.22733219984E+01  0.30868720415E+02  0.54621576576E+02  0.62781864584E+02  0.00000000000E+00 0.  1.
        -13    1    4    4    0    0 -0.24526287130E+02  0.25397739889E+02 -0.32983188376E+01  0.35460722765E+02  0.00000000000E+00 0. -1.
         13    1    4    4    0    0  0.44512979604E+02 -0.32816326512E+02 -0.85412759493E+01  0.55957752223E+02  0.00000000000E+00 0.  1.
         21    1    1    2  502  501 -0.33452268675E+02  0.20425750555E+02 -0.49196810927E+02  0.62901444901E+02  0.00000000000E+00 0. -1.
         21    1    1    2  503  502  0.34023443192E+02 -0.16949468294E+02 -0.10358976925E+02  0.39397811678E+02  0.00000000000E+00 0.  1.
<scales pt_clust_5="13000.00000" pt_clust_6="13000.00000" pt_clust_7="13000.00000" pt_clust_8="13000.00000" pt_clust_9="24.17749" pt_clust_10="38.01157"></scales>
<clustering>
<clus scale="   38.012">  2 10  1 -1</clus>
<clus scale="   24.177">  2  9  1 -1</clus>
<clus scale="   88.106">  7  8 -1 -1</clus>
<clus scale="   90.577">  2  7  1 -1</clus>
<clus scale="   92.718">  5  6 -1 -1</clus>
<clus scale="   38.012">  2  5  1 -1</clus>
</clustering>
</event>
<event>
10    2  0.1898324E-006  0.1341692E+03  0.7546771E-02  0.1235775E+00
          2   -1    0    0  502    0  0.00000000000E+00  0.00000000000E+00  0.63087970523E+03  0.63087970523E+03  0.00000000000E+00 0. -1.
         -2   -1    0    0    0  501 -0.00000000000E+00 -0.00000000000E+00 -0.76617592805E+02  0.76617592805E+02  0.00000000000E+00 0.  1.
         23    2    1    2    0    0 -0.64082219225E+02 -0.10895738789E+02  0.45827328227E+02  0.11895977388E+03  0.88464884805E+02 0.  0.
         23    2    1    2    0    0  0.51634537951E+01 -0.35840900933E+02  0.19462853577E+03  0.21899063156E+03  0.93623706065E+02 0.  0.
        -11    1    3    3    0    0 -0.41412653463E+02  0.18338688058E+02  0.63471057858E+02  0.77973652808E+02  0.00000000000E+00 0. -1.
         11    1    3    3    0    0 -0.22669565762E+02 -0.29234426847E+02 -0.17643729631E+02  0.40986121068E+02  0.00000000000E+00 0.  1.
        -13    1    4    4    0    0  0.29323722131E+02 -0.46786995658E+02  0.18086921942E+03  0.18910996318E+03  0.00000000000E+00 0.  1.
         13    1    4    4    0    0 -0.24160268336E+02  0.10946094725E+02  0.13759316353E+02  0.29880668371E+02  0.00000000000E+00 0. -1.
         21    1    1    2  502  503  0.11422219497E+03  0.35371676648E+02  0.27817180541E+03  0.30278279122E+03  0.00000000000E+00 0. -1.
         21    1    1    2  503  501 -0.55303429540E+02  0.11364963074E+02  0.35634443013E+02  0.66764101382E+02  0.00000000000E+00 0. -1.
<scales pt_clust_5="13000.00000" pt_clust_6="13000.00000" pt_clust_7="13000.00000" pt_clust_8="13000.00000" pt_clust_9="100.87282" pt_clust_10="56.45912"></scales>
<clustering>
<clus scale="   56.459">  2 10  1 -1</clus>
<clus scale="   88.465">  5  6 -1 -1</clus>
<clus scale="   93.624">  7  8 -1 -1</clus>
<clus scale="   99.635">  1  7  2 -1</clus>
<clus scale="  100.873">  1  9  2 -1</clus>
<clus scale="   99.635">  1  5  2 -1</clus>
</clustering>
</event>
<event>
10    2  0.1898324E-006  0.2089587E+03  0.7546771E-02  0.1143307E+00
         -1   -1    0    0    0  501 -0.00000000000E+00  0.00000000000E+00  0.22011669285E+03  0.22011669285E+03  0.00000000000E+00 0.  1.
          1   -1    0    0  502    0  0.00000000000E+00 -0.00000000000E+00 -0.37154798687E+03  0.37154798687E+03  0.00000000000E+00 0. -1.
         23    2    1    2    0    0 -0.11866624072E+02 -0.17473223350E+03 -0.29908078652E+02  0.20248781099E+03  0.97132127749E+02 0.  0.
         23    2    1    2    0    0  0.16574534988E+02  0.20652550991E+03 -0.71926121398E+02  0.23592883492E+03  0.86957154687E+02 0.  0.
        -11    1    4    4    0    0  0.83522250679E+01  0.21140834723E+02 -0.42287813467E+02  0.48009933599E+02  0.00000000000E+00 0.  1.
         11    1    4    4    0    0  0.82223099201E+01  0.18538467519E+03 -0.29638307931E+02  0.18791890132E+03  0.00000000000E+00 0. -1.
        -11    1    3    3    0    0 -0.13266163099E+02 -0.37986649612E+02  0.32925230944E+02  0.51990840201E+02  0.00000000000E+00 0. -1.
         11    1    3    3    0    0  0.13995390272E+01 -0.13674558389E+03 -0.62833309596E+02  0.15049697079E+03  0.00000000000E+00 0.  1.
         21    1    1    2  502  503  0.14401962515E+02 -0.56351730487E+02 -0.86963634335E+02  0.10462125859E+03  0.00000000000E+00 0.  1.
         21    1    1    2  503  501 -0.19109873431E+02  0.24558454076E+02  0.37366540368E+02  0.48626775219E+02  0.00000000000E+00 0. -1.
<scales pt_clust_5="13000.00000" pt_clust_6="13000.00000" pt_clust_7="13000.00000" pt_clust_8="13000.00000" pt_clust_9="56.74448" pt_clust_10="31.11760"></scales>
<clustering>
<clus scale="   31.118">  1 10  2 -1</clus>
<clus scale="   56.744">  2  9  1 -1</clus>
<clus scale="   86.957">  5  6 -1 -1</clus>
<clus scale="   97.132">  7  8 -1 -1</clus>
<clus scale="  204.428">  2  5  1 -1</clus>
<clus scale="   56.744">  2  5  1 -1</clus>
</clustering>
</event>
<event>
10    2  0.2780437E-006  0.1659699E+03  0.7546771E-02  0.1182231E+00
         -1   -1    0    0    0  501 -0.00000000000E+00  0.00000000000E+00  0.21594117212E+03  0.21594117212E+03  0.00000000000E+00 0.  1.
          1   -1    0    0  502    0  0.00000000000E+00 -0.00000000000E+00 -0.49796420341E+03  0.49796420341E+03  0.00000000000E+00 0. -1.
         23    2    1    2    0    0  0.57324417533E+02 -0.91506310445E+02  0.95634534894E+02  0.17098145603E+03  0.91810676644E+02 0.  0.
         23    2    1    2    0    0 -0.11341947428E+03  0.12113951198E+03 -0.40096559676E+03  0.44371311109E+03  0.92569739434E+02 0.  0.
        -11    1    3    3    0    0 -0.21014038715E+02 -0.42932450127E+02  0.45785928758E+02  0.66190153114E+02  0.00000000000E+00 0. -1.
         11    1    3    3    0    0  0.78338456248E+02 -0.48573860318E+02  0.49848606136E+02  0.10479130292E+03  0.00000000000E+00 0.  1.
        -11    1    4    4    0    0 -0.28231626992E+02 -0.17675560598E+01 -0.20560558276E+02  0.34969780864E+02  0.00000000000E+00 0.  1.
         11    1    4    4    0    0 -0.85187847292E+02  0.12290706804E+03 -0.38040503849E+03  0.40874333023E+03  0.00000000000E+00 0. -1.
         21    1    1    2  502  503  0.34486266556E+02 -0.44183026713E+01 -0.23394277178E+02  0.41906039948E+02  0.00000000000E+00 0.  1.
         21    1    1    2  503  501  0.21608790195E+02 -0.25214898867E+02  0.46702307758E+02  0.57304768462E+02  0.00000000000E+00 0.  1.
<scales pt_clust_5="13000.00000" pt_clust_6="13000.00000" pt_clust_7="13000.00000" pt_clust_8="13000.00000" pt_clust_9="36.18104" pt_clust_10="33.20739"></scales>
<clustering>
<clus scale="   33.207">  1 10  2 -1</clus>
<clus scale="   36.181">  2  9  1 -1</clus>
<clus scale="   91.811">  5  6 -1 -1</clus>
<clus scale="   92.570">  7  8 -1 -1</clus>
<clus scale="  165.548">  1  5  2 -1</clus>
<clus scale="   36.181">  2  5  1 -1</clus>
</clustering>
</event>
<event>
10    2  0.1898324E-006  0.1611922E+03  0.7546771E-02  0.1208914E+00
         -1   -1    0    0    0  501 -0.00000000000E+00  0.00000000000E+00  0.18030766562E+03  0.18030766562E+03  0.00000000000E+00 0.  1.
          1   -1    0    0  502    0  0.00000000000E+00 -0.00000000000E+00 -0.57733610196E+03  0.57733610196E+03  0.00000000000E+00 0. -1.
         23    2    1    2    0    0 -0.16976873350E+02 -0.39158534295E+02 -0.93409062257E+01  0.10012118918E+03  0.90085486942E+02 0.  0.
         23    2    1    2    0    0  0.12897510040E+03 -0.63933964626E+02 -0.19887733695E+03  0.26286743857E+03  0.93941294181E+02 0.  0.
        -11    1    3    3    0    0 -0.42922511711E+01 -0.67644879713E+02 -0.78353655141E+00  0.67785449036E+02  0.00000000000E+00 0.  1.
         11    1    3    3    0    0 -0.12684622178E+02  0.28486345418E+02 -0.85573696743E+01  0.32335740147E+02  0.00000000000E+00 0. -1.
        -13    1    4    4    0    0  0.11610426306E+03 -0.86138905592E+02 -0.18071279455E+03  0.23142433984E+03  0.00000000000E+00 0.  1.
         13    1    4    4    0    0  0.12870837339E+02  0.22204940966E+02 -0.18164542408E+02  0.31443098734E+02  0.00000000000E+00 0. -1.
         21    1    1    2  502  503 -0.87321837865E+02  0.93591119564E+02 -0.27562790476E+03  0.30389988962E+03  0.00000000000E+00 0. -1.
         21    1    1    2  503  501 -0.24676389185E+02  0.95013793566E+01  0.86817711597E+02  0.90755250206E+02  0.00000000000E+00 0.  1.
<scales pt_clust_5="13000.00000" pt_clust_6="13000.00000" pt_clust_7="13000.00000" pt_clust_8="13000.00000" pt_clust_9="130.98834" pt_clust_10="26.44240"></scales>
<clustering>
<clus scale="   26.442">  1 10  2 -1</clus>
<clus scale="   90.085">  5  6 -1 -1</clus>
<clus scale="   93.941">  7  8 -1 -1</clus>
<clus scale="  100.774">  1  5  2 -1</clus>
<clus scale="  130.988">  2  9  1 -1</clus>
<clus scale="  130.988">  2  5  1 -1</clus>
</clustering>
</event>
<event>
10    2  0.1898324E-006  0.1988036E+03  0.7546771E-02  0.1175742E+00
         -2   -1    0    0    0  501 -0.00000000000E+00  0.00000000000E+00  0.25172164248E+03  0.25172164248E+03  0.00000000000E+00 0.  1.
          2   -1    0    0  502    0  0.00000000000E+00 -0.00000000000E+00 -0.95513052044E+03  0.95513052044E+03  0.00000000000E+00 0. -1.
         23    2    1    2    0    0 -0.13607007110E+03  0.79076579735E+02  0.98338197862E+02  0.20730703217E+03  0.92399322068E+02 0.  0.
         23    2    1    2    0    0 -0.20754452944E+02  0.45273464653E+02 -0.38670428384E+03  0.40053535112E+03  0.91694767784E+02 0.  0.
        -13    1    3    3    0    0 -0.94911853455E+02  0.92116212767E+02  0.47323209293E+02  0.14047470491E+03  0.00000000000E+00 0. -1.
         13    1    3    3    0    0 -0.41158217642E+02 -0.13039633032E+02  0.51014988569E+02  0.66832327266E+02  0.00000000000E+00 0.  1.
        -13    1    4    4    0    0  0.10271473904E+02 -0.19890316120E+02 -0.35327419462E+02  0.41822893460E+02  0.00000000000E+00 0.  1.
         13    1    4    4    0    0 -0.31025926848E+02  0.65163780773E+02 -0.35137686437E+03  0.35871245766E+03  0.00000000000E+00 0. -1.
         21    1    1    2  502  503 -0.63645379535E+02 -0.51518783653E+02 -0.34775916417E+03  0.35726930413E+03  0.00000000000E+00 0. -1.
         21    1    1    2  503  501  0.22046990358E+03 -0.72831260735E+02 -0.67283627810E+02  0.24174047550E+03  0.00000000000E+00 0.  1.
<scales pt_clust_5="13000.00000" pt_clust_6="13000.00000" pt_clust_7="13000.00000" pt_clust_8="13000.00000" pt_clust_9="81.88357" pt_clust_10="176.02627"></scales>
<clustering>
<clus scale="   81.884">  2  9  1 -1</clus>
<clus scale="   91.695">  7  8 -1 -1</clus>
<clus scale="   92.399">  5  6 -1 -1</clus>
<clus scale="  111.479">  2  7  1 -1</clus>
<clus scale="  176.026">  2 10  1 -1</clus>
<clus scale="   81.884">  2  5  1 -1</clus>
</clustering>
</event>
<event>
10    2  0.1898324E-006  0.9966539E+02  0.7546771E-02  0.1281347E+00
         -1   -1    0    0    0  501 -0.00000000000E+00  0.00000000000E+00  0.95024727988E+02  0.95024727988E+02  0.00000000000E+00 0.  1.
          1   -1    0    0  502    0  0.00000000000E+00 -0.00000000000E+00 -0.37328622273E+03  0.37328622273E+03  0.00000000000E+00 0. -1.
         23    2    1    2    0    0  0.76292298061E+01 -0.26660600696E+02 -0.57619949897E+02  0.11147218090E+03  0.91307150380E+02 0.  0.
         23    2    1    2    0    0 -0.11773430209E+02  0.66230590195E+02 -0.19730356646E+03  0.22786038115E+03  0.92013864302E+02 0.  0.
        -11    1    4    4    0    0 -0.39015726156E+02  0.63276384772E+02 -0.18171981553E+03  0.19633700393E+03  0.00000000000E+00 0. -1.
         11    1    4    4    0    0  0.27242295947E+02  0.29542054232E+01 -0.15583750929E+02  0.31523377217E+02  0.00000000000E+00 0.  1.
        -11    1    3    3    0    0 -0.23273865091E+02 -0.12759618024E+02  0.15603047149E+02  0.30788564902E+02  0.00000000000E+00 0.  1.
         11    1    3    3    0    0  0.30903094897E+02 -0.13900982672E+02 -0.73222997046E+02  0.80683615994E+02  0.00000000000E+00 0. -1.
         21    1    1    2  502  503 -0.16676170780E+02 -0.49022788603E+02 -0.64002204074E+02  0.82326244907E+02  0.00000000000E+00 0.  1.
         21    1    1    2  503  501  0.20820371183E+02  0.94527991031E+01  0.40664225688E+02  0.46652143765E+02  0.00000000000E+00 0.  1.
<scales pt_clust_5="13000.00000" pt_clust_6="13000.00000" pt_clust_7="13000.00000" pt_clust_8="13000.00000" pt_clust_9="49.07946" pt_clust_10="22.86577"></scales>
<clustering>
<clus scale="   22.866">  1 10  2 -1</clus>
<clus scale="   49.079">  2  9  1 -1</clus>
<clus scale="   91.307">  7  8 -1 -1</clus>
<clus scale="   92.014">  5  6 -1 -1</clus>
<clus scale="   99.013">  1  7  2 -1</clus>
<clus scale="   49.079">  2  5  1 -1</clus>
</clustering>
</event>
<event>
10    2  0.1898324E-006  0.1309934E+03  0.7546771E-02  0.1232057E+00
          1   -1    0    0  502    0  0.00000000000E+00  0.00000000000E+00  0.10679380596E+04  0.10679380596E+04  0.00000000000E+00 0. -1.
         -1   -1    0    0    0  501 -0.00000000000E+00 -0.00000000000E+00 -0.26295532231E+02  0.26295532231E+02  0.00000000000E+00 0.  1.
         23    2    1    2    0    0  0.77809281467E+02  0.69444964698E+01  0.50021960174E+03  0.51797543233E+03  0.10943668588E+03 0.  0.
         23    2    1    2    0    0 -0.65022492972E+02 -0.12941007138E+02  0.36521078527E+03  0.38202352514E+03  0.90375117294E+02 0.  0.
        -13    1    4    4    0    0  0.19232629184E+02  0.10150662143E+02  0.43097423595E+02  0.48273366236E+02  0.00000000000E+00 0.  1.
         13    1    4    4    0    0 -0.84255122155E+02 -0.23091669281E+02  0.32211336167E+03  0.33375015890E+03  0.00000000000E+00 0. -1.
        -13    1    3    3    0    0  0.35684047187E+01  0.45411538249E+02  0.11309517008E+03  0.12192398785E+03  0.00000000000E+00 0.  1.
         13    1    3    3    0    0  0.74240876748E+02 -0.38467041779E+02  0.38712443166E+03  0.39605144448E+03  0.00000000000E+00 0. -1.
         21    1    1    2  502  503  0.12663193662E+02  0.16869386674E+02  0.16153866125E+03  0.16291001123E+03  0.00000000000E+00 0.  1.
         21    1    1    2  503  501 -0.25449982157E+02 -0.10872876006E+02  0.14673479087E+02  0.31324623110E+02  0.00000000000E+00 0. -1.
<scales pt_clust_5="13000.00000" pt_clust_6="13000.00000" pt_clust_7="13000.00000" pt_clust_8="13000.00000" pt_clust_9="21.09343" pt_clust_10="27.21259"></scales>
<clustering>
<clus scale="   21.093">  1  9  2 -1</clus>
<clus scale="   27.213">  2 10  1 -1</clus>
<clus scale="   90.375">  5  6 -1 -1</clus>
<clus scale="  109.437">  7  8 -1 -1</clus>
<clus scale="  115.545">  1  5  2 -1</clus>
<clus scale="   21.093">  1  5  2 -1</clus>
</clustering>
</event>
<event>
10    2  0.1898324E-006  0.1147032E+03  0.7546771E-02  0.1252123E+00
         -1   -1    0    0    0  501 -0.00000000000E+00  0.00000000000E+00  0.84378123994E+02  0.84378123994E+02  0.00000000000E+00 0.  1.
          1   -1    0    0  502    0  0.00000000000E+00 -0.00000000000E+00 -0.64286765143E+03  0.64286765143E+03  0.00000000000E+00 0. -1.
         23    2    1    2    0    0  0.13358277636E+02 -0.67701900170E+02 -0.12399131222E+03  0.16898746479E+03  0.91765608388E+02 0.  0.
         23    2    1    2    0    0  0.18383469045E+02  0.54510437377E+02 -0.27338253623E+03  0.29407560897E+03  0.91831982226E+02 0.  0.
        -13    1    4    4    0    0 -0.10855150265E+02  0.67082417329E+02 -0.23271918385E+03  0.24243783437E+03  0.00000000000E+00 0. -1.
         13    1    4    4    0    0  0.29238619311E+02 -0.12571979952E+02 -0.40663352380E+02  0.51637774603E+02  0.00000000000E+00 0.  1.
        -13    1    3    3    0    0 -0.20863704014E+02 -0.74030871468E+01 -0.88249307598E+02  0.90983735557E+02  0.00000000000E+00 0. -1.
         13    1    3    3    0    0  0.34221981650E+02 -0.60298813023E+02 -0.35742004621E+02  0.78003729234E+02  0.00000000000E+00 0.  1.
         21    1    1    2  502  503 -0.79310044845E+02  0.38916324373E+02 -0.18504077492E+03  0.20504792586E+03  0.00000000000E+00 0. -1.
         21    1    1    2  503  501  0.47568298163E+02 -0.25724861580E+02  0.23925095935E+02  0.59134775800E+02  0.00000000000E+00 0.  1.
<scales pt_clust_5="13000.00000" pt_clust_6="13000.00000" pt_clust_7="13000.00000" pt_clust_8="13000.00000" pt_clust_9="75.72945" pt_clust_10="54.07875"></scales>
<clustering>
<clus scale="   54.079">  1 10  2 -1</clus>
<clus scale="   75.729">  2  9  1 -1</clus>
<clus scale="   91.766">  7  8 -1 -1</clus>
<clus scale="   91.832">  5  6 -1 -1</clus>
<clus scale="  114.650">  1  7  2 -1</clus>
<clus scale="   75.729">  2  5  1 -1</clus>
</clustering>
</event>
<event>
10    2  0.1898324E-006  0.1247614E+03  0.7546771E-02  0.1235704E+00
          1   -1    0    0  502    0  0.00000000000E+00  0.00000000000E+00  0.42295611936E+02  0.42295611936E+02  0.00000000000E+00 0. -1.
         -1   -1    0    0    0  501 -0.00000000000E+00 -0.00000000000E+00 -0.10610920356E+04  0.10610920356E+04  0.00000000000E+00 0.  1.
         23    2    1    2    0    0 -0.42785496799E+01  0.43489121510E+02 -0.44908414840E+03  0.46032470729E+03  0.91173757838E+02 0.  0.
         23    2    1    2    0    0  0.79719842515E+02 -0.71607985864E+02 -0.15886213515E+03  0.21259922895E+03  0.92077669579E+02 0.  0.
        -11    1    3    3    0    0  0.30521872803E+02  0.56283110673E+02 -0.28332514286E+03  0.29046946456E+03  0.00000000000E+00 0. -1.
         11    1    3    3    0    0 -0.34800422483E+02 -0.12793989163E+02 -0.16575900554E+03  0.16985524272E+03  0.00000000000E+00 0.  1.
        -13    1    4    4    0    0  0.37939634867E+02 -0.83314099302E+02 -0.75666923097E+02  0.11876926491E+03  0.00000000000E+00 0. -1.
         13    1    4    4    0    0  0.41780207647E+02  0.11706113438E+02 -0.83195212054E+02  0.93829964039E+02  0.00000000000E+00 0.  1.
         21    1    1    2  502  503 -0.25912870345E+02 -0.19753412349E+02 -0.32960276132E+02  0.46347102948E+02  0.00000000000E+00 0. -1.
         21    1    1    2  503  501 -0.49528422490E+02  0.47872276702E+02 -0.37788986396E+03  0.38411660833E+03  0.00000000000E+00 0.  1.
<scales pt_clust_5="13000.00000" pt_clust_6="13000.00000" pt_clust_7="13000.00000" pt_clust_8="13000.00000" pt_clust_9="32.58334" pt_clust_10="69.36870"></scales>
<clustering>
<clus scale="   32.583">  1  9  2 -1</clus>
<clus scale="   69.369">  2 10  1 -1</clus>
<clus scale="   91.174">  5  6 -1 -1</clus>
<clus scale="   92.078">  7  8 -1 -1</clus>
<clus scale="  124.096">  2  5  1 -1</clus>
<clus scale="   32.583">  1  5  2 -1</clus>
</clustering>
</event>
<event>
10    2  0.1898324E-006  0.1745497E+03  0.7546771E-02  0.1173516E+00
          2   -1    0    0  502    0  0.00000000000E+00  0.00000000000E+00  0.58361488692E+03  0.58361488692E+03  0.00000000000E+00 0. -1.
         -2   -1    0    0    0  501 -0.00000000000E+00 -0.00000000000E+00 -0.19902904571E+03  0.19902904571E+03  0.00000000000E+00 0.  1.
         23    2    1    2    0    0 -0.11459054609E+03 -0.92173264033E+02  0.17006356554E+02  0.17535585022E+03  0.93986989456E+02 0.  0.
         23    2    1    2    0    0  0.10649637357E+02  0.13890845448E+03  0.35797296861E+03  0.39488197192E+03  0.91532245645E+02 0.  0.
        -11    1    4    4    0    0 -0.23453030334E+02  0.12909493165E+03  0.28194709056E+03  0.31098184495E+03  0.00000000000E+00 0. -1.
         11    1    4    4    0    0  0.34102667691E+02  0.98135228327E+01  0.76025878042E+02  0.83900126973E+02  0.00000000000E+00 0.  1.
        -13    1    3    3    0    0 -0.74355608942E+02 -0.43641355705E+00  0.72687698614E+01  0.74711324799E+02  0.00000000000E+00 0. -1.
         13    1    3    3    0    0 -0.40234937152E+02 -0.91736850476E+02  0.97375866927E+01  0.10064452542E+03  0.00000000000E+00 0.  1.
         21    1    1    2  502  503  0.40825637345E+02  0.15870026420E+02  0.85143305741E+02  0.95749532196E+02  0.00000000000E+00 0.  1.
         21    1    1    2  503  501  0.63115271392E+02 -0.62605216868E+02 -0.75536789694E+02  0.11665657829E+03  0.00000000000E+00 0.  1.
<scales pt_clust_5="13000.00000" pt_clust_6="13000.00000" pt_clust_7="13000.00000" pt_clust_8="13000.00000" pt_clust_9="43.80172" pt_clust_10="89.65650"></scales>
<clustering>
<clus scale="   43.802">  1  9  2 -1</clus>
<clus scale="   89.657">  2 10  1 -1</clus>
<clus scale="   91.532">  5  6 -1 -1</clus>
<clus scale="   93.987">  7  8 -1 -1</clus>
<clus scale="  173.240">  1  5  2 -1</clus>
<clus scale="   43.802">  1  5  2 -1</clus>
</clustering>
</event>
<event>
10    2  0.1898324E-006  0.9816278E+02  0.7546771E-02  0.1284741E+00
         -1   -1    0    0    0  501 -0.00000000000E+00  0.00000000000E+00  0.36021298021E+03  0.36021298021E+03  0.00000000000E+00 0.  1.
          1   -1    0    0  503    0  0.00000000000E+00 -0.00000000000E+00 -0.98103249016E+02  0.98103249016E+02  0.00000000000E+00 0. -1.
         23    2    1    2    0    0 -0.14707741942E+02 -0.35434426833E+02  0.25998953241E+03  0.27801109139E+03  0.90684583554E+02 0.  0.
         23    2    1    2    0    0 -0.14933721443E+02  0.40929607694E+02  0.30330966456E+02  0.10416181009E+03  0.89618448619E+02 0.  0.
        -11    1    4    4    0    0  0.30740905975E+02  0.21724932211E+02  0.38614379171E+02  0.53926303957E+02  0.00000000000E+00 0.  1.
         11    1    4    4    0    0 -0.45674627418E+02  0.19204675483E+02 -0.82834127151E+01  0.50235506133E+02  0.00000000000E+00 0. -1.
        -11    1    3    3    0    0 -0.98388086891E+01  0.25018559274E+02  0.15017108657E+03  0.15255846652E+03  0.00000000000E+00 0.  1.
         11    1    3    3    0    0 -0.48689332531E+01 -0.60452986107E+02  0.10981844584E+03  0.12545262487E+03  0.00000000000E+00 0. -1.
         21    1    1    2  502  501  0.19479068179E+02  0.14816815379E+02 -0.42690299513E+02  0.49208066286E+02  0.00000000000E+00 0. -1.
         21    1    1    2  503  502  0.10162395206E+02 -0.20311996239E+02  0.14479531838E+02  0.26935261458E+02  0.00000000000E+00 0. -1.
<scales pt_clust_5="13000.00000" pt_clust_6="13000.00000" pt_clust_7="13000.00000" pt_clust_8="13000.00000" pt_clust_9="24.99937" pt_clust_10="22.71236"></scales>
<clustering>
<clus scale="   22.712">  2 10  1 -1</clus>
<clus scale="   24.999">  2  9  1 -1</clus>
<clus scale="   89.618">  5  6 -1 -1</clus>
<clus scale="   90.685">  7  8 -1 -1</clus>
<clus scale="   97.179">  2  5  1 -1</clus>
<clus scale="   22.712">  2  5  1 -1</clus>
</clustering>
</event>
<event>
10    2  0.1898324E-006  0.1627952E+03  0.7546771E-02  0.1185815E+00
          1   -1    0    0  502    0  0.00000000000E+00  0.00000000000E+00  0.83940496577E+03  0.83940496577E+03  0.00000000000E+00 0. -1.
         -1   -1    0    0    0  501 -0.00000000000E+00 -0.00000000000E+00 -0.93614278080E+02  0.93614278080E+02  0.00000000000E+00 0.  1.
         23    2    1    2    0    0 -0.14989586713E+03 -0.16228761142E+02  0.70291178591E+02  0.18921231180E+03  0.90157115518E+02 0.  0.
         23    2    1    2    0    0  0.13196106297E+03 -0.52556913080E+01  0.65007788064E+03  0.66966442521E+03  0.91694313163E+02 0.  0.
        -13    1    3    3    0    0 -0.76111112858E+02  0.35209241248E+02  0.47686036552E+02  0.96470463106E+02  0.00000000000E+00 0. -1.
         13    1    3    3    0    0 -0.73784754268E+02 -0.51438002390E+02  0.22605142039E+02  0.92741848692E+02  0.00000000000E+00 0.  1.
        -13    1    4    4    0    0  0.50219445738E+02 -0.36038393719E+02  0.15376079768E+03  0.16572006956E+03  0.00000000000E+00 0.  1.
         13    1    4    4    0    0  0.81741617237E+02  0.30782702411E+02  0.49631708296E+03  0.50394435565E+03  0.00000000000E+00 0. -1.
         21    1    1    2  502  503  0.87795295045E+00  0.35758705573E+02  0.34891560948E+02  0.49968758750E+02  0.00000000000E+00 0.  1.
         21    1    1    2  503  501  0.17056851202E+02 -0.14274253122E+02 -0.94699324917E+01  0.24173748086E+02  0.00000000000E+00 0. -1.
<scales pt_clust_5="13000.00000" pt_clust_6="13000.00000" pt_clust_7="13000.00000" pt_clust_8="13000.00000" pt_clust_9="34.45210" pt_clust_10="22.24164"></scales>
<clustering>
<clus scale="   22.242">  2 10  1 -1</clus>
<clus scale="   34.452">  2  9  1 -1</clus>
<clus scale="   90.157">  5  6 -1 -1</clus>
<clus scale="   91.694">  7  8 -1 -1</clus>
<clus scale="  161.934">  2  5  1 -1</clus>
<clus scale="  162.795">  1  5  2 -1</clus>
</clustering>
</event>
<event>
10    2  0.1898324E-006  0.2565849E+03  0.7546771E-02  0.1109761E+00
          2   -1    0    0  503    0  0.00000000000E+00  0.00000000000E+00  0.43660176363E+03  0.43660176363E+03  0.00000000000E+00 0. -1.
         -2   -1    0    0    0  501 -0.00000000000E+00 -0.00000000000E+00 -0.27184674426E+03  0.27184674426E+03  0.00000000000E+00 0.  1.
         23    2    1    2    0    0  0.27428676697E+02  0.19223631274E+03 -0.57341258913E+02  0.22531606679E+03  0.98854325859E+02 0.  0.
         23    2    1    2    0    0 -0.11301819596E+03 -0.23117018980E+03  0.25995659355E+03  0.37649156999E+03  0.89194744651E+02 0.  0.
        -13    1    3    3    0    0  0.29278361697E+02  0.19440219637E+02 -0.37467881239E+02  0.51371068976E+02  0.00000000000E+00 0. -1.
         13    1    3    3    0    0 -0.18496850002E+01  0.17279609310E+03 -0.19873377674E+02  0.17394499782E+03  0.00000000000E+00 0.  1.
        -13    1    4    4    0    0  0.16759303284E+01 -0.53561458928E+02  0.21327373401E+02  0.57675778982E+02  0.00000000000E+00 0.  1.
         13    1    4    4    0    0 -0.11469412629E+03 -0.17760873087E+03  0.23862922015E+03  0.31881579101E+03  0.00000000000E+00 0. -1.
         21    1    1    2  502  501  0.28341574229E+02  0.13725276387E+02  0.34500672111E+01  0.31678557503E+02  0.00000000000E+00 0. -1.
         21    1    1    2  503  502  0.57247945038E+02  0.25208600677E+02 -0.41310382479E+02  0.74962313596E+02  0.00000000000E+00 0. -1.
<scales pt_clust_5="13000.00000" pt_clust_6="13000.00000" pt_clust_7="13000.00000" pt_clust_8="13000.00000" pt_clust_9="23.50496" pt_clust_10="99.69389"></scales>
<clustering>
<clus scale="   23.505">  9 10 -1 -1</clus>
<clus scale="   89.195">  7  8 -1 -1</clus>
<clus scale="   98.854">  5  6 -1 -1</clus>
<clus scale="   99.694">  2  9  1 -1</clus>
<clus scale="  253.020">  1  7  2 -1</clus>
<clus scale="  253.020">  1  5  2 -1</clus>
</clustering>
</event>
<event>
10    2  0.1898324E-006  0.2425244E+03  0.7546771E-02  0.1118292E+00
          2   -1    0    0  502    0  0.00000000000E+00  0.00000000000E+00  0.15102606380E+04  0.15102606380E+04  0.00000000000E+00 0. -1.
         -2   -1    0    0    0  501 -0.00000000000E+00 -0.00000000000E+00 -0.11027087998E+03  0.11027087998E+03  0.00000000000E+00 0.  1.
         23    2    1    2    0    0  0.18724583758E+03 -0.20026644241E+03  0.80717277886E+03  0.85729367988E+03  0.90867524369E+02 0.  0.
         23    2    1    2    0    0 -0.29813579142E+02  0.19355377473E+03  0.47218210055E+03  0.51967715127E+03  0.93576130835E+02 0.  0.
        -11    1    4    4    0    0 -0.15211324425E+02  0.59838132515E+02  0.26907500933E+03  0.27606764957E+03  0.00000000000E+00 0. -1.
         11    1    4    4    0    0 -0.14602254718E+02  0.13371564221E+03  0.20310709122E+03  0.24360950170E+03  0.00000000000E+00 0.  1.
        -13    1    3    3    0    0  0.16991090448E+03 -0.12394444684E+03  0.60389808892E+03  0.63947231619E+03  0.00000000000E+00 0.  1.
         13    1    3    3    0    0  0.17334933101E+02 -0.76321995565E+02  0.20327468993E+03  0.21782136369E+03  0.00000000000E+00 0. -1.
         21    1    1    2  502  503 -0.16725224736E+03  0.39989341164E+02  0.78659865563E+02  0.18910271311E+03  0.00000000000E+00 0.  1.
         21    1    1    2  503  501  0.98199889285E+01 -0.33276673484E+02  0.41975013054E+02  0.54457973719E+02  0.00000000000E+00 0.  1.
<scales pt_clust_5="13000.00000" pt_clust_6="13000.00000" pt_clust_7="13000.00000" pt_clust_8="13000.00000" pt_clust_9="163.57027" pt_clust_10="34.69538"></scales>
<clustering>
<clus scale="   34.695">  2 10  1 -1</clus>
<clus scale="   90.868">  7  8 -1 -1</clus>
<clus scale="   93.576">  5  6 -1 -1</clus>
<clus scale="  163.570">  2  9  1 -1</clus>
<clus scale="  241.492">  2  7  1 -1</clus>
<clus scale="  242.524">  1  5  2 -1</clus>
</clustering>
</event>
<event>
10    2  0.1898324E-006  0.9987033E+02  0.7546771E-02  0.1281061E+00
          2   -1    0    0  502    0  0.00000000000E+00  0.00000000000E+00  0.29247700250E+03  0.29247700250E+03  0.00000000000E+00 0. -1.
         -2   -1    0    0    0  501 -0.00000000000E+00 -0.00000000000E+00 -0.84563221866E+02  0.84563221866E+02  0.00000000000E+00 0.  1.
         23    2    1    2    0    0 -0.41293038951E+02 -0.12229865995E+02  0.86076893377E+02  0.13332445769E+03  0.92257762584E+02 0.  0.
         23    2    1    2    0    0  0.25590293735E+02 -0.52713236545E+02  0.11755963800E+03  0.15993855490E+03  0.91249791317E+02 0.  0.
        -13    1    3    3    0    0 -0.17115864788E+02  0.18899207598E+02 -0.11586922561E+02  0.28006957166E+02  0.00000000000E+00 0.  1.
         13    1    3    3    0    0 -0.24177174162E+02 -0.31129073593E+02  0.97663815938E+02  0.10531750052E+03  0.00000000000E+00 0. -1.
        -13    1    4    4    0    0 -0.21789103632E+02 -0.24050613408E+02  0.28689225661E+01  0.32579560449E+02  0.00000000000E+00 0. -1.
         13    1    4    4    0    0  0.47379397367E+02 -0.28662623137E+02  0.11469071544E+03  0.12735899445E+03  0.00000000000E+00 0.  1.
         21    1    1    2  502  503  0.33298520609E+00  0.34182199499E+02  0.26136286011E+02  0.43030676130E+02  0.00000000000E+00 0.  1.
         21    1    1    2  503  501  0.15369760009E+02  0.30760903041E+02 -0.21859036762E+02  0.40746535642E+02  0.00000000000E+00 0.  1.
<scales pt_clust_5="13000.00000" pt_clust_6="13000.00000" pt_clust_7="13000.00000" pt_clust_8="13000.00000" pt_clust_9="34.18382" pt_clust_10="35.51636"></scales>
<clustering>
<clus scale="   34.184">  1  9  2 -1</clus>
<clus scale="   35.516">  2 10  1 -1</clus>
<clus scale="   91.250">  7  8 -1 -1</clus>
<clus scale="   92.258">  5  6 -1 -1</clus>
<clus scale="   98.940">  1  7  2 -1</clus>
<clus scale="   34.184">  1  5  2 -1</clus>
</clustering>
</event>
<event>
10    2  0.1898324E-006  0.1069619E+03  0.7546771E-02  0.1267469E+00
         -2   -1    0    0    0  501 -0.00000000000E+00  0.00000000000E+00  0.29466468124E+03  0.29466468124E+03  0.00000000000E+00 0.  1.
          2   -1    0    0  502    0  0.00000000000E+00 -0.00000000000E+00 -0.29237130929E+03  0.29237130929E+03  0.00000000000E+00 0. -1.
         23    2    1    2    0    0 -0.37612180520E+02  0.34700064215E+02 -0.17528230710E+02  0.10765351665E+03  0.93076689857E+02 0.  0.
         23    2    1    2    0    0  0.71894290425E+02  0.91959794529E+01 -0.16462662312E+03  0.20127366250E+03  0.90309507477E+02 0.  0.
        -11    1    3    3    0    0 -0.40643676198E+02 -0.19490922647E+02  0.10912531490E+02  0.46377665142E+02  0.00000000000E+00 0.  1.
         11    1    3    3    0    0  0.30314956776E+01  0.54190986862E+02 -0.28440762200E+02  0.61275851505E+02  0.00000000000E+00 0. -1.
        -13    1    4    4    0    0  0.25120192171E+02  0.17388279458E-01  0.45335716831E+01  0.25526018673E+02  0.00000000000E+00 0.  1.
         13    1    4    4    0    0  0.46774098253E+02  0.91785911734E+01 -0.16916019480E+03  0.17574764382E+03  0.00000000000E+00 0. -1.
         21    1    1    2  502  503 -0.21569651261E+02  0.28246352454E+02 -0.33094995167E+02  0.48563206109E+02  0.00000000000E+00 0. -1.
         21    1    1    2  503  501 -0.12712458644E+02 -0.72142396122E+02  0.21754322095E+03  0.22954560528E+03  0.00000000000E+00 0.  1.
<scales pt_clust_5="13000.00000" pt_clust_6="13000.00000" pt_clust_7="13000.00000" pt_clust_8="13000.00000" pt_clust_9="35.54021" pt_clust_10="72.68220"></scales>
<clustering>
<clus scale="   35.540">  2  9  1 -1</clus>
<clus scale="   72.682">  1 10  2 -1</clus>
<clus scale="   90.310">  7  8 -1 -1</clus>
<clus scale="   93.077">  5  6 -1 -1</clus>
<clus scale="  104.563">  2  7  1 -1</clus>
<clus scale="   35.540">  2  5  1 -1</clus>
</clustering>
</event>
<event>
10    2  0.1898324E-006  0.1324754E+03  0.7546771E-02  0.1225160E+00
          1   -1    0    0  502    0  0.00000000000E+00  0.00000000000E+00  0.11067738589E+03  0.11067738589E+03  0.00000000000E+00 0. -1.
         -1   -1    0    0    0  501 -0.00000000000E+00 -0.00000000000E+00 -0.83280418143E+03  0.83280418143E+03  0.00000000000E+00 0.  1.
         23    2    1    2    0    0 -0.11856319277E+03 -0.11200374293E+03 -0.44208810742E+03  0.48075590584E+03  0.95300981983E+02 0.  0.
         23    2    1    2    0    0  0.55710950570E+02  0.32791432224E+02  0.13914851494E+02  0.11183761344E+03  0.90194460174E+02 0.  0.
        -11    1    4    4    0    0  0.24255892521E+02 -0.13500422314E+02 -0.29870164257E+02  0.40777891527E+02  0.00000000000E+00 0.  1.
         11    1    4    4    0    0  0.31455058049E+02  0.46291854538E+02  0.43785015751E+02  0.71059721909E+02  0.00000000000E+00 0. -1.
        -11    1    3    3    0    0 -0.49513487943E+02 -0.97444473705E+02 -0.19232033055E+03  0.22121057951E+03  0.00000000000E+00 0. -1.
         11    1    3    3    0    0 -0.69049704827E+02 -0.14559269222E+02 -0.24976777687E+03  0.25954532633E+03  0.00000000000E+00 0.  1.
         21    1    1    2  502  503  0.98361328339E+01  0.27209411275E+02  0.15378961550E+02  0.32766049951E+02  0.00000000000E+00 0. -1.
         21    1    1    2  503  501  0.53016109367E+02  0.52002899428E+02 -0.30933250116E+03  0.31812199810E+03  0.00000000000E+00 0. -1.
<scales pt_clust_5="13000.00000" pt_clust_6="13000.00000" pt_clust_7="13000.00000" pt_clust_8="13000.00000" pt_clust_9="28.93271" pt_clust_10="75.58898"></scales>
<clustering>
<clus scale="   28.933">  1  9  2 -1</clus>
<clus scale="   75.589">  2 10  1 -1</clus>
<clus scale="   90.194">  5  6 -1 -1</clus>
<clus scale="   95.301">  7  8 -1 -1</clus>
<clus scale="  128.851">  1  5  2 -1</clus>
<clus scale="   28.933">  1  5  2 -1</clus>
</clustering>
</event>
<event>
10    2  0.1898324E-006  0.1011843E+03  0.7546771E-02  0.1278094E+00
          1   -1    0    0  502    0  0.00000000000E+00  0.00000000000E+00  0.39009820174E+03  0.39009820174E+03  0.00000000000E+00 0. -1.
         -1   -1    0    0    0  501 -0.00000000000E+00 -0.00000000000E+00 -0.65426001656E+02  0.65426001656E+02  0.00000000000E+00 0.  1.
         23    2    1    2    0    0  0.28334334254E+02  0.18593183658E+01  0.57901432487E+02  0.11189829046E+03  0.91445940099E+02 0.  0.
         23    2    1    2    0    0 -0.34033722236E+02 -0.70465913774E+02  0.87810333527E+02  0.14863439762E+03  0.90872384304E+02 0.  0.
        -11    1    4    4    0    0  0.99159850877E+00 -0.82417921386E+02  0.66680116805E+02  0.10601855974E+03  0.00000000000E+00 0.  1.
         11    1    4    4    0    0 -0.35025320745E+02  0.11952007613E+02  0.21130216722E+02  0.42615837877E+02  0.00000000000E+00 0. -1.
        -11    1    3    3    0    0  0.46945338725E+02 -0.25441788836E+02  0.10984442111E+02  0.54514286345E+02  0.00000000000E+00 0.  1.
         11    1    3    3    0    0 -0.18611004472E+02  0.27301107202E+02  0.46916990376E+02  0.57384004111E+02  0.00000000000E+00 0. -1.
         21    1    1    2  502  503 -0.88781011634E+01  0.19479400064E+02  0.88229362926E+02  0.90789251508E+02  0.00000000000E+00 0. -1.
         21    1    1    2  503  501  0.14577489146E+02  0.49127195344E+02  0.90731071148E+02  0.10420226381E+03  0.00000000000E+00 0. -1.
<scales pt_clust_5="13000.00000" pt_clust_6="13000.00000" pt_clust_7="13000.00000" pt_clust_8="13000.00000" pt_clust_9="21.40719" pt_clust_10="56.66423"></scales>
<clustering>
<clus scale="   21.407">  1  9  2 -1</clus>
<clus scale="   56.664">  1 10  2 -1</clus>
<clus scale="   90.872">  5  6 -1 -1</clus>
<clus scale="   91.446">  7  8 -1 -1</clus>
<clus scale="  100.666">  1  5  2 -1</clus>
<clus scale="   21.407">  1  5  2 -1</clus>
</clustering>
</event>
<event>
10    2  0.1898324E-006  0.1362431E+03  0.7546771E-02  0.1219659E+00
         -2   -1    0    0    0  501 -0.00000000000E+00  0.00000000000E+00  0.38874078418E+03  0.38874078418E+03  0.00000000000E+00 0.  1.
          2   -1    0    0  502    0  0.00000000000E+00 -0.00000000000E+00 -0.12639361100E+03  0.12639361100E+03  0.00000000000E+00 0. -1.
         23    2    1    2    0    0 -0.27460718379E+02 -0.93626803049E+02  0.10674189162E+03  0.17048221756E+03  0.90278933164E+02 0.  0.
         23    2    1    2    0    0  0.16715051491E+02  0.11622848282E+03 -0.58535188592E+01  0.14516051191E+03  0.85140221820E+02 0.  0.
        -11    1    4    4    0    0 -0.30855076687E+02  0.77336297489E+02  0.14928548435E+01  0.83277651758E+02  0.00000000000E+00 0.  1.
         11    1    4    4    0    0  0.47570128178E+02  0.38892185329E+02 -0.73463737027E+01  0.61882860157E+02  0.00000000000E+00 0. -1.
        -13    1    3    3    0    0 -0.14202748318E+02 -0.39144898535E+02 -0.83383894175E+01  0.42468457462E+02  0.00000000000E+00 0. -1.
         13    1    3    3    0    0 -0.13257970061E+02 -0.54481904514E+02  0.11508028104E+03  0.12801376010E+03  0.00000000000E+00 0.  1.
         21    1    1    2  502  503 -0.16501680767E+02 -0.20769179285E+02 -0.81093665923E+01  0.27738531015E+02  0.00000000000E+00 0. -1.
         21    1    1    2  503  501  0.27247347656E+02 -0.18325004839E+01  0.16956816701E+03  0.17175313469E+03  0.00000000000E+00 0.  1.
<scales pt_clust_5="13000.00000" pt_clust_6="13000.00000" pt_clust_7="13000.00000" pt_clust_8="13000.00000" pt_clust_9="26.52667" pt_clust_10="27.15800"></scales>
<clustering>
<clus scale="   26.527">  2  9  1 -1</clus>
<clus scale="   27.158">  1 10  2 -1</clus>
<clus scale="   85.140">  5  6 -1 -1</clus>
<clus scale="   90.279">  7  8 -1 -1</clus>
<clus scale="  132.894">  2  5  1 -1</clus>
<clus scale="   26.527">  2  5  1 -1</clus>
</clustering>
</event>
<event>
10    2  0.1898324E-006  0.2055016E+03  0.7546771E-02  0.1145385E+00
         -2   -1    0    0    0  501 -0.00000000000E+00  0.00000000000E+00  0.21295995098E+03  0.21295995098E+03  0.00000000000E+00 0.  1.
          2   -1    0    0  502    0  0.00000000000E+00 -0.00000000000E+00 -0.49698248434E+03  0.49698248434E+03  0.00000000000E+00 0. -1.
         23    2    1    2    0    0  0.10910817779E+03  0.10894553229E+03 -0.10201587830E+03  0.20678860188E+03  0.92631328262E+02 0.  0.
         23    2    1    2    0    0 -0.16094926958E+03 -0.12842448058E+03 -0.28133517497E+03  0.36015817505E+03  0.90370989753E+02 0.  0.
        -13    1    4    4    0    0 -0.37069738311E+02  0.72291654756E+01 -0.27048153658E+02  0.46454590174E+02  0.00000000000E+00 0. -1.
         13    1    4    4    0    0 -0.12387953126E+03 -0.13565364606E+03 -0.25428702132E+03  0.31370358488E+03  0.00000000000E+00 0.  1.
        -13    1    3    3    0    0  0.47240067215E+02  0.19447080829E+02  0.84027519992E+01  0.51772764504E+02  0.00000000000E+00 0.  1.
         13    1    3    3    0    0  0.61868110576E+02  0.89498451460E+02 -0.11041863030E+03  0.15501583738E+03  0.00000000000E+00 0. -1.
         21    1    1    2  502  503  0.29710807205E+02  0.35384188668E+02  0.70023715772E+01  0.46731210985E+02  0.00000000000E+00 0. -1.
         21    1    1    2  503  501  0.22130284580E+02 -0.15905240373E+02  0.92326148335E+02  0.96264447400E+02  0.00000000000E+00 0.  1.
<scales pt_clust_5="13000.00000" pt_clust_6="13000.00000" pt_clust_7="13000.00000" pt_clust_8="13000.00000" pt_clust_9="47.07159" pt_clust_10="27.25300"></scales>
<clustering>
<clus scale="   27.253">  1 10  2 -1</clus>
<clus scale="   47.072">  1  9  2 -1</clus>
<clus scale="   90.371">  5  6 -1 -1</clus>
<clus scale="   92.631">  7  8 -1 -1</clus>
<clus scale="  204.493">  2  5  1 -1</clus>
<clus scale="  204.493">  2  5  1 -1</clus>
</clustering>
</event>
<event>
10    2  0.1898324E-006  0.1607243E+03  0.7546771E-02  0.1188901E+00
         -1   -1    0    0    0  501 -0.00000000000E+00  0.00000000000E+00  0.29233644976E+03  0.29233644976E+03  0.00000000000E+00 0.  1.
          1   -1    0    0  502    0  0.00000000000E+00 -0.00000000000E+00 -0.23628535848E+03  0.23628535848E+03  0.00000000000E+00 0. -1.
         23    2    1    2    0    0  0.39748811316E+02 -0.73542843715E+02  0.72170331345E+01  0.11874213630E+03  0.84018399791E+02 0.  0.
         23    2    1    2    0    0 -0.12789484805E+03  0.15942000881E+03  0.36217997727E+02  0.22645956488E+03  0.90555838018E+02 0.  0.
        -13    1    4    4    0    0 -0.12890264717E+03  0.10193471166E+03  0.14406079726E+02  0.16496700586E+03  0.00000000000E+00 0. -1.
         13    1    4    4    0    0  0.10077991259E+01  0.57485297153E+02  0.21811918000E+02  0.61492559019E+02  0.00000000000E+00 0.  1.
        -13    1    3    3    0    0  0.81654057636E+01 -0.84214500061E+02 -0.10698048510E+00  0.84609498974E+02  0.00000000000E+00 0. -1.
         13    1    3    3    0    0  0.31583405552E+02  0.10671656346E+02  0.73240136196E+01  0.34132637328E+02  0.00000000000E+00 0.  1.
         21    1    1    2  502  503  0.10137679854E+03 -0.38784524390E+02 -0.36095411534E+02  0.11438694571E+03  0.00000000000E+00 0.  1.
         21    1    1    2  503  501 -0.13230761806E+02 -0.47092640710E+02  0.48711471954E+02  0.69033161357E+02  0.00000000000E+00 0.  1.
<scales pt_clust_5="13000.00000" pt_clust_6="13000.00000" pt_clust_7="13000.00000" pt_clust_8="13000.00000" pt_clust_9="109.59684" pt_clust_10="48.91595"></scales>
<clustering>
<clus scale="   48.916">  1 10  2 -1</clus>
<clus scale="   84.018">  7  8 -1 -1</clus>
<clus scale="   90.556">  5  6 -1 -1</clus>
<clus scale="  109.597">  2  9  1 -1</clus>
<clus scale="  157.134">  1  7  2 -1</clus>
<clus scale="  109.597">  2  5  1 -1</clus>
</clustering>
</event>
<event>
10    2  0.1898324E-006  0.9631529E+02  0.7546771E-02  0.1288380E+00
         -1   -1    0    0    0  501 -0.00000000000E+00  0.00000000000E+00  0.10663801372E+03  0.10663801372E+03  0.00000000000E+00 0.  1.
          1   -1    0    0  502    0  0.00000000000E+00 -0.00000000000E+00 -0.24223305541E+03  0.24223305541E+03  0.00000000000E+00 0. -1.
         23    2    1    2    0    0  0.88923639027E-01 -0.74825077901E+00  0.92841840976E+01  0.94362305252E+02  0.93901441903E+02 0.  0.
         23    2    1    2    0    0  0.36008205050E+02  0.30337987131E+02 -0.89668961648E+02  0.13793656994E+03  0.93642887346E+02 0.  0.
        -11    1    4    4    0    0  0.48697020077E+02  0.10982981096E+02 -0.10062764070E+03  0.11232963862E+03  0.00000000000E+00 0. -1.
         11    1    4    4    0    0 -0.12688815027E+02  0.19355006035E+02  0.10958679054E+02  0.25606931328E+02  0.00000000000E+00 0.  1.
        -11    1    3    3    0    0 -0.40250607582E+02 -0.23060462522E+02 -0.35091891413E+01  0.46521078566E+02  0.00000000000E+00 0.  1.
         11    1    3    3    0    0  0.40339531221E+02  0.22312211743E+02  0.12793373239E+02  0.47841226686E+02  0.00000000000E+00 0. -1.
         21    1    1    2  502  503 -0.13660918931E+02 -0.28883945342E+02 -0.78178896037E+02  0.84456158983E+02  0.00000000000E+00 0. -1.
         21    1    1    2  503  501 -0.22436209757E+02 -0.70579101004E+00  0.22968631898E+02  0.32116034943E+02  0.00000000000E+00 0.  1.
<scales pt_clust_5="13000.00000" pt_clust_6="13000.00000" pt_clust_7="13000.00000" pt_clust_8="13000.00000" pt_clust_9="32.36725" pt_clust_10="22.44731"></scales>
<clustering>
<clus scale="   22.447">  1 10  2 -1</clus>
<clus scale="   32.367">  2  9  1 -1</clus>
<clus scale="   93.643">  5  6 -1 -1</clus>
<clus scale="   93.901">  7  8 -1 -1</clus>
<clus scale="   96.063">  2  5  1 -1</clus>
<clus scale="   32.367">  2  5  1 -1</clus>
</clustering>
</event>
<event>
10    2  0.1898324E-006  0.2632209E+03  0.7546771E-02  0.1107028E+00
         -1   -1    0    0    0  501 -0.00000000000E+00  0.00000000000E+00  0.35319032599E+03  0.35319032599E+03  0.00000000000E+00 0.  1.
          1   -1    0    0  502    0  0.00000000000E+00 -0.00000000000E+00 -0.68117406405E+03  0.68117406405E+03  0.00000000000E+00 0. -1.
         23    2    1    2    0    0 -0.18370620398E+03 -0.12513972320E+03  0.14476634319E+03  0.28033577344E+03  0.90680384050E+02 0.  0.
         23    2    1    2    0    0  0.15040088237E+03  0.11044493304E+03 -0.42691166444E+03  0.48106428472E+03  0.11979469164E+03 0.  0.
        -13    1    4    4    0    0  0.10995250041E+03  0.44357658439E+02 -0.13797221127E+03  0.18191614907E+03  0.00000000000E+00 0.  1.
         13    1    4    4    0    0  0.40448381964E+02  0.66087274599E+02 -0.28893945317E+03  0.29914813566E+03  0.00000000000E+00 0. -1.
        -13    1    3    3    0    0 -0.11077849600E+03 -0.12102301566E+03  0.79213398362E+02  0.18219003259E+03  0.00000000000E+00 0.  1.
         13    1    3    3    0    0 -0.72927707981E+02 -0.41167075314E+01  0.65552944823E+02  0.98145740852E+02  0.00000000000E+00 0. -1.
         21    1    1    2  502  503  0.32372199247E+02  0.57126538524E+02 -0.14823164084E+03  0.16212347157E+03  0.00000000000E+00 0.  1.
         21    1    1    2  503  501  0.93312235976E+00 -0.42431748366E+02  0.10239322403E+03  0.11084086031E+03  0.00000000000E+00 0.  1.
<scales pt_clust_5="13000.00000" pt_clust_6="13000.00000" pt_clust_7="13000.00000" pt_clust_8="13000.00000" pt_clust_9="64.63719" pt_clust_10="42.44201"></scales>
<clustering>
<clus scale="   42.442">  1 10  2 -1</clus>
<clus scale="   64.637">  2  9  1 -1</clus>
<clus scale="   90.680">  7  8 -1 -1</clus>
<clus scale="  119.795">  5  6 -1 -1</clus>
<clus scale="  251.311">  1  7  2 -1</clus>
<clus scale="   64.637">  2  5  1 -1</clus>
</clustering>
</event>
<event>
10    2  0.1898324E-006  0.1856719E+03  0.7546771E-02  0.1162539E+00
         -2   -1    0    0    0  501 -0.00000000000E+00  0.00000000000E+00  0.17905201799E+03  0.17905201799E+03  0.00000000000E+00 0.  1.
          2   -1    0    0  502    0  0.00000000000E+00 -0.00000000000E+00 -0.73710827052E+03  0.73710827052E+03  0.00000000000E+00 0. -1.
         23    2    1    2    0    0 -0.13751543675E+03  0.12708338299E+03  0.83315929337E+02  0.22485834023E+03  0.92515120468E+02 0.  0.
         23    2    1    2    0    0  0.11774786700E+03 -0.81498805117E+02 -0.48172848055E+03  0.51082690593E+03  0.91516028275E+02 0.  0.
        -11    1    3    3    0    0 -0.14823164750E+03  0.10303418776E+03  0.82591738145E+02  0.19851967252E+03  0.00000000000E+00 0.  1.
         11    1    3    3    0    0  0.10716210752E+02  0.24049195226E+02  0.72419119167E+00  0.26338667710E+02  0.00000000000E+00 0. -1.
        -11    1    4    4    0    0  0.11347209953E+03 -0.35622715096E+02 -0.39635093568E+03  0.41381029400E+03  0.00000000000E+00 0. -1.
         11    1    4    4    0    0  0.42757674639E+01 -0.45876090021E+02 -0.85377544873E+02  0.97016611937E+02  0.00000000000E+00 0.  1.
         21    1    1    2  502  503  0.15017140388E+01 -0.26664828175E+02 -0.15016385370E+03  0.15252033033E+03  0.00000000000E+00 0. -1.
         21    1    1    2  503  501  0.18265855715E+02 -0.18919749694E+02 -0.94798476163E+01  0.27954712023E+02  0.00000000000E+00 0.  1.
<scales pt_clust_5="13000.00000" pt_clust_6="13000.00000" pt_clust_7="13000.00000" pt_clust_8="13000.00000" pt_clust_9="26.84554" pt_clust_10="26.29826"></scales>
<clustering>
<clus scale="   26.298">  1 10  2 -1</clus>
<clus scale="   26.846">  2  9  1 -1</clus>
<clus scale="   91.516">  7  8 -1 -1</clus>
<clus scale="   92.515">  5  6 -1 -1</clus>
<clus scale="  185.176">  2  7  1 -1</clus>
<clus scale="   26.846">  2  5  1 -1</clus>
</clustering>
</event>
<event>
10    2  0.1898324E-006  0.1641989E+03  0.7546771E-02  0.1184276E+00
         -1   -1    0    0    0  501 -0.00000000000E+00  0.00000000000E+00  0.96297249776E+02  0.96297249776E+02  0.00000000000E+00 0.  1.
          1   -1    0    0  502    0  0.00000000000E+00 -0.00000000000E+00 -0.51694369785E+03  0.51694369785E+03  0.00000000000E+00 0. -1.
         23    2    1    2    0    0  0.63054038717E+02  0.95928075307E+02 -0.81303679013E+02  0.16764462229E+03  0.91194428177E+02 0.  0.
         23    2    1    2    0    0 -0.76213733065E+02 -0.12188555801E+03 -0.26425524604E+03  0.31479892718E+03  0.92751857858E+02 0.  0.
        -11    1    4    4    0    0 -0.31162944340E+02 -0.11099426943E+03 -0.13523298409E+03  0.17770429632E+03  0.00000000000E+00 0. -1.
         11    1    4    4    0    0 -0.45050788725E+02 -0.10891288581E+02 -0.12902226195E+03  0.13709463086E+03  0.00000000000E+00 0.  1.
        -13    1    3    3    0    0  0.83865656458E+01  0.80595398702E+02 -0.75185905445E+02  0.11053901190E+03  0.00000000000E+00 0.  1.
         13    1    3    3    0    0  0.54667473071E+02  0.15332676605E+02 -0.61177735687E+01  0.57105610384E+02  0.00000000000E+00 0. -1.
         21    1    1    2  502  503  0.11125454751E+02 -0.20704798943E+02 -0.80422690572E+02  0.83787072997E+02  0.00000000000E+00 0. -1.
         21    1    1    2  503  501  0.20342395973E+01  0.46662281644E+02  0.53351675478E+01  0.47010325161E+02  0.00000000000E+00 0.  1.
<scales pt_clust_5="13000.00000" pt_clust_6="13000.00000" pt_clust_7="13000.00000" pt_clust_8="13000.00000" pt_clust_9="23.50456" pt_clust_10="45.74221"></scales>
<clustering>
<clus scale="   23.505">  2  9  1 -1</clus>
<clus scale="   45.742">  1 10  2 -1</clus>
<clus scale="   91.194">  7  8 -1 -1</clus>
<clus scale="   92.752">  5  6 -1 -1</clus>
<clus scale="  163.324">  1  7  2 -1</clus>
<clus scale="   23.505">  2  5  1 -1</clus>
</clustering>
</event>
<event>
10    2  0.1898324E-006  0.1510411E+03  0.7546771E-02  0.1199215E+00
          3   -1    0    0  502    0  0.00000000000E+00  0.00000000000E+00  0.27848598502E+03  0.27848598502E+03  0.00000000000E+00 0. -1.
         -3   -1    0    0    0  501 -0.00000000000E+00 -0.00000000000E+00 -0.22213907865E+03  0.22213907865E+03  0.00000000000E+00 0.  1.
         23    2    1    2    0    0  0.33760103607E+02  0.92240385899E+02 -0.95638945750E+02  0.16521243762E+03  0.92197116084E+02 0.  0.
         23    2    1    2    0    0 -0.16314500927E+02 -0.15713232719E+03  0.11648336311E+03  0.21688986554E+03  0.92282764943E+02 0.  0.
        -11    1    4    4    0    0 -0.52848472861E+02 -0.97844726421E+02  0.87316261610E+02  0.14138840516E+03  0.00000000000E+00 0.  1.
         11    1    4    4    0    0  0.36533971933E+02 -0.59287600765E+02  0.29167101497E+02  0.75501460379E+02  0.00000000000E+00 0. -1.
        -11    1    3    3    0    0  0.58066691721E+02  0.25651301603E+02 -0.39264138197E+02  0.74641828151E+02  0.00000000000E+00 0. -1.
         11    1    3    3    0    0 -0.24306588114E+02  0.66589084297E+02 -0.56374807552E+02  0.90570609470E+02  0.00000000000E+00 0.  1.
         21    1    1    2  502  503  0.22734184376E+02  0.41140513029E+02  0.50986054317E+02  0.69346684754E+02  0.00000000000E+00 0. -1.
         21    1    1    2  503  501 -0.40179787056E+02  0.23751428257E+02 -0.15483565301E+02  0.49176075753E+02  0.00000000000E+00 0.  1.
<scales pt_clust_5="13000.00000" pt_clust_6="13000.00000" pt_clust_7="13000.00000" pt_clust_8="13000.00000" pt_clust_9="47.12369" pt_clust_10="46.67489"></scales>
<clustering>
<clus scale="   46.675">  2 10  1 -1</clus>
<clus scale="   47.124">  1  9  2 -1</clus>
<clus scale="   92.197">  7  8 -1 -1</clus>
<clus scale="   92.283">  5  6 -1 -1</clus>
<clus scale="  150.989">  2  7  1 -1</clus>
<clus scale="   47.124">  1  5  2 -1</clus>
</clustering>
</event>
<event>
10    2  0.1898324E-006  0.1543243E+03  0.7546771E-02  0.1195364E+00
         -1   -1    0    0    0  501 -0.00000000000E+00  0.00000000000E+00  0.23886532016E+03  0.23886532016E+03  0.00000000000E+00 0.  1.
          1   -1    0    0  502    0  0.00000000000E+00 -0.00000000000E+00 -0.17805263658E+03  0.17805263658E+03  0.00000000000E+00 0. -1.
         23    2    1    2    0    0  0.61801689877E+02 -0.81278175299E+02  0.52245340632E+01  0.13779250396E+03  0.92379043841E+02 0.  0.
         23    2    1    2    0    0 -0.82268605945E+02  0.12258567701E+03 -0.81807066871E+01  0.17402701095E+03  0.91777474614E+02 0.  0.
        -11    1    4    4    0    0 -0.45582254872E+02  0.11308423232E+03  0.24053743186E+02  0.12427537213E+03  0.00000000000E+00 0.  1.
         11    1    4    4    0    0 -0.36686351073E+02  0.95014446919E+01 -0.32234449873E+02  0.49751638816E+02  0.00000000000E+00 0. -1.
        -13    1    3    3    0    0  0.69783479476E+02 -0.17978946011E+02  0.13943862529E+02  0.73398963274E+02  0.00000000000E+00 0.  1.
         13    1    3    3    0    0 -0.79817895995E+01 -0.63299229288E+02 -0.87193284663E+01  0.64393540690E+02  0.00000000000E+00 0. -1.
         21    1    1    2  502  503  0.23401744557E+02 -0.58699169716E+01 -0.76553965441E+01  0.25312105203E+02  0.00000000000E+00 0. -1.
         21    1    1    2  503  501 -0.29348284887E+01 -0.35437584737E+02  0.71424252755E+02  0.79786336624E+02  0.00000000000E+00 0.  1.
<scales pt_clust_5="13000.00000" pt_clust_6="13000.00000" pt_clust_7="13000.00000" pt_clust_8="13000.00000" pt_clust_9="24.12670" pt_clust_10="35.66563"></scales>
<clustering>
<clus scale="   24.127">  2  9  1 -1</clus>
<clus scale="   35.666">  1 10  2 -1</clus>
<clus scale="   91.777">  5  6 -1 -1</clus>
<clus scale="   92.379">  7  8 -1 -1</clus>
<clus scale="  153.965">  2  5  1 -1</clus>
<clus scale="   24.127">  2  5  1 -1</clus>
</clustering>
</event>
<event>
10    2  0.1898324E-006  0.4435037E+03  0.7546771E-02  0.1029760E+00
          1   -1    0    0  502    0  0.00000000000E+00  0.00000000000E+00  0.10072680107E+04  0.10072680107E+04  0.00000000000E+00 0. -1.
         -1   -1    0    0    0  501 -0.00000000000E+00 -0.00000000000E+00 -0.24054554115E+03  0.24054554115E+03  0.00000000000E+00 0.  1.
         23    2    1    2    0    0  0.14661182627E+03 -0.40048640402E+03  0.27603682615E+03  0.51591697979E+03  0.89942277276E+02 0.  0.
         23    2    1    2    0    0 -0.14177573412E+03  0.41754512078E+03  0.34398008022E+03  0.56728818861E+03  0.95127843842E+02 0.  0.
        -11    1    3    3    0    0  0.11989527785E+03 -0.38576877677E+03  0.26650539429E+03  0.48396027933E+03  0.00000000000E+00 0.  1.
         11    1    3    3    0    0  0.26716548420E+02 -0.14717627246E+02  0.95314318629E+01  0.31956700464E+02  0.00000000000E+00 0. -1.
        -13    1    4    4    0    0 -0.94377909116E+02  0.28299622325E+03  0.28611011263E+03  0.41334374151E+03  0.00000000000E+00 0. -1.
         13    1    4    4    0    0 -0.47397825008E+02  0.13454889753E+03  0.57869967599E+02  0.15394444710E+03  0.00000000000E+00 0.  1.
         21    1    1    2  502  503  0.17990888420E+02  0.10717067805E+02  0.11431463663E+03  0.11621688241E+03  0.00000000000E+00 0. -1.
         21    1    1    2  503  501 -0.22826980565E+02 -0.27775784571E+02  0.32390926511E+02  0.48391501015E+02  0.00000000000E+00 0. -1.
<scales pt_clust_5="13000.00000" pt_clust_6="13000.00000" pt_clust_7="13000.00000" pt_clust_8="13000.00000" pt_clust_9="20.94105" pt_clust_10="35.06157"></scales>
<clustering>
<clus scale="   20.941">  1  9  2 -1</clus>
<clus scale="   35.062">  1 10  2 -1</clus>
<clus scale="   89.942">  5  6 -1 -1</clus>
<clus scale="   95.128">  7  8 -1 -1</clus>
<clus scale="  442.420">  2  5  1 -1</clus>
<clus scale="   20.941">  1  5  2 -1</clus>
</clustering>
</event>
<event>
10    2  0.1898324E-006  0.9726595E+02  0.7546771E-02  0.1286154E+00
         -1   -1    0    0    0  501 -0.00000000000E+00  0.00000000000E+00  0.28189361569E+03  0.28189361569E+03  0.00000000000E+00 0.  1.
          1   -1    0    0  502    0  0.00000000000E+00 -0.00000000000E+00 -0.14308642938E+03  0.14308642938E+03  0.00000000000E+00 0. -1.
         23    2    1    2    0    0  0.80485640712E+01  0.19524477794E+02  0.89214276424E+02  0.12841195215E+03  0.89913612542E+02 0.  0.
         23    2    1    2    0    0  0.14799553951E+02 -0.38245292322E+02 -0.58580362239E+02  0.11487912890E+03  0.89910100851E+02 0.  0.
        -11    1    3    3    0    0  0.25485998267E+02 -0.27324790935E+02  0.18185971745E+02  0.41556105154E+02  0.00000000000E+00 0. -1.
         11    1    3    3    0    0 -0.17437434196E+02  0.46849268729E+02  0.71028304679E+02  0.86855846996E+02  0.00000000000E+00 0.  1.
        -13    1    4    4    0    0  0.36052776286E+02 -0.36290750756E+02 -0.72987199802E+02  0.89128853933E+02  0.00000000000E+00 0.  1.
         13    1    4    4    0    0 -0.21253222335E+02 -0.19545415656E+01  0.14406837563E+02  0.25750274968E+02  0.00000000000E+00 0. -1.
         21    1    1    2  502  503 -0.25844121989E+02 -0.49773280829E+01 -0.30894164660E+02  0.40584995334E+02  0.00000000000E+00 0. -1.
         21    1    1    2  503  501  0.29960039672E+01  0.23698142611E+02  0.13906743679E+03  0.14110396869E+03  0.00000000000E+00 0.  1.
<scales pt_clust_5="13000.00000" pt_clust_6="13000.00000" pt_clust_7="13000.00000" pt_clust_8="13000.00000" pt_clust_9="26.07694" pt_clust_10="23.88677"></scales>
<clustering>
<clus scale="   23.887">  1 10  2 -1</clus>
<clus scale="   26.077">  2  9  1 -1</clus>
<clus scale="   89.910">  7  8 -1 -1</clus>
<clus scale="   89.914">  5  6 -1 -1</clus>
<clus scale="   97.263">  2  7  1 -1</clus>
<clus scale="   26.077">  2  5  1 -1</clus>
</clustering>
</event>
<event>
10    2  0.1898324E-006  0.3492609E+03  0.7546771E-02  0.1062957E+00
          1   -1    0    0  502    0  0.00000000000E+00  0.00000000000E+00  0.13484099941E+04  0.13484099941E+04  0.00000000000E+00 0. -1.
         -1   -1    0    0    0  501 -0.00000000000E+00 -0.00000000000E+00 -0.23878000365E+03  0.23878000365E+03  0.00000000000E+00 0.  1.
         23    2    1    2    0    0 -0.22444608251E+02 -0.36312628967E+03  0.52693975618E+03  0.64670477655E+03  0.90537830119E+02 0.  0.
         23    2    1    2    0    0  0.13152677722E+03  0.29634519331E+03  0.51135515882E+03  0.61242043918E+03  0.91950688714E+02 0.  0.
        -11    1    3    3    0    0 -0.24842050324E+01 -0.26697246831E+03  0.31365675451E+03  0.41189929565E+03  0.00000000000E+00 0.  1.
         11    1    3    3    0    0 -0.19960403219E+02 -0.96153821363E+02  0.21328300167E+03  0.23480548090E+03  0.00000000000E+00 0. -1.
        -13    1    4    4    0    0 -0.12333505856E+02  0.18884372507E+02  0.53534520940E+02  0.58091994491E+02  0.00000000000E+00 0.  1.
         13    1    4    4    0    0  0.14386028307E+03  0.27746082081E+03  0.45782063788E+03  0.55432844469E+03  0.00000000000E+00 0. -1.
         21    1    1    2  502  503 -0.10031867893E+03  0.86477274652E+02  0.17652525138E+03  0.22068828865E+03  0.00000000000E+00 0.  1.
         21    1    1    2  503  501 -0.87634900323E+01 -0.19696178293E+02 -0.10519017597E+03  0.10737649332E+03  0.00000000000E+00 0.  1.
<scales pt_clust_5="13000.00000" pt_clust_6="13000.00000" pt_clust_7="13000.00000" pt_clust_8="13000.00000" pt_clust_9="131.45482" pt_clust_10="21.55779"></scales>
<clustering>
<clus scale="   21.558">  2 10  1 -1</clus>
<clus scale="   90.538">  5  6 -1 -1</clus>
<clus scale="   91.951">  7  8 -1 -1</clus>
<clus scale="  131.455">  2  9  1 -1</clus>
<clus scale="  348.892">  2  5  1 -1</clus>
<clus scale="  349.261">  1  5  2 -1</clus>
</clustering>
</event>
<event>
10    2  0.1898324E-006  0.9642223E+02  0.7546771E-02  0.1288144E+00
          3   -1    0    0  502    0  0.00000000000E+00  0.00000000000E+00  0.37461684480E+03  0.37461684480E+03  0.00000000000E+00 0. -1.
         -3   -1    0    0    0  501 -0.00000000000E+00 -0.00000000000E+00 -0.31850455298E+03  0.31850455298E+03  0.00000000000E+00 0.  1.
         23    2    1    2    0    0 -0.11463431464E+02 -0.12561853080E+02 -0.19303455635E+03  0.21345749226E+03  0.89512851838E+02 0.  0.
         23    2    1    2    0    0 -0.45577598599E+01  0.23466584213E+02  0.10470785309E+03  0.13998712187E+03  0.89784219342E+02 0.  0.
        -11    1    3    3    0    0 -0.46515419575E+01 -0.49594140441E+02 -0.79247828349E+02  0.93602531519E+02  0.00000000000E+00 0. -1.
         11    1    3    3    0    0 -0.68118895062E+01  0.37032287361E+02 -0.11378672800E+03  0.11985496074E+03  0.00000000000E+00 0.  1.
        -13    1    4    4    0    0 -0.76269229710E+00  0.54006236679E+02  0.92018866955E+02  0.10669923700E+03  0.00000000000E+00 0.  1.
         13    1    4    4    0    0 -0.37950675628E+01 -0.30539652467E+02  0.12688986132E+02  0.33287884878E+02  0.00000000000E+00 0. -1.
         21    1    1    2  502  503 -0.40961803192E+02 -0.48728872805E+02  0.22509683993E+03  0.23392511560E+03  0.00000000000E+00 0. -1.
         21    1    1    2  503  501  0.56982994515E+02  0.37824141672E+02 -0.80657844844E+02  0.10575166803E+03  0.00000000000E+00 0.  1.
<scales pt_clust_5="13000.00000" pt_clust_6="13000.00000" pt_clust_7="13000.00000" pt_clust_8="13000.00000" pt_clust_9="63.65825" pt_clust_10="63.13187"></scales>
<clustering>
<clus scale="   63.658">  1  9  2 -1</clus>
<clus scale="   63.132">  2 10  1 -1</clus>
<clus scale="   89.513">  5  6 -1 -1</clus>
<clus scale="   89.784">  7  8 -1 -1</clus>
<clus scale="   96.170">  2  5  1 -1</clus>
<clus scale="   63.658">  1  5  2 -1</clus>
</clustering>
</event>
<event>
10    2  0.1898324E-006  0.3155134E+03  0.7546771E-02  0.1117586E+00
         -1   -1    0    0    0  501 -0.00000000000E+00  0.00000000000E+00  0.33178416819E+03  0.33178416819E+03  0.00000000000E+00 0.  1.
          1   -1    0    0  502    0  0.00000000000E+00 -0.00000000000E+00 -0.64811282046E+03  0.64811282046E+03  0.00000000000E+00 0. -1.
         23    2    1    2    0    0 -0.59389011466E+02  0.20361365332E+02  0.11828932739E+03  0.16220198572E+03  0.91517644832E+02 0.  0.
         23    2    1    2    0    0  0.76105100776E+02  0.28641589378E+03 -0.30576023091E+03  0.43579569607E+03  0.92749767306E+02 0.  0.
        -11    1    4    4    0    0  0.70882593437E+01  0.69035868162E+02 -0.24302916269E+02  0.73531124380E+02  0.00000000000E+00 0.  1.
         11    1    4    4    0    0  0.69016841433E+02  0.21738002562E+03 -0.28145731464E+03  0.36226457169E+03  0.00000000000E+00 0. -1.
        -13    1    3    3    0    0 -0.34316169565E+02 -0.18370552227E+02  0.10817853020E+03  0.11496813071E+03  0.00000000000E+00 0.  1.
         13    1    3    3    0    0 -0.25072841901E+02  0.38731917559E+02  0.10110797184E+02  0.47233855003E+02  0.00000000000E+00 0. -1.
         21    1    1    2  502  503 -0.30231036401E+02  0.89614152338E+01 -0.44977781108E+02  0.54929257398E+02  0.00000000000E+00 0. -1.
         21    1    1    2  503  501  0.13514947090E+02 -0.31573867435E+03 -0.83879967633E+02  0.32697004946E+03  0.00000000000E+00 0.  1.
<scales pt_clust_5="13000.00000" pt_clust_6="13000.00000" pt_clust_7="13000.00000" pt_clust_8="13000.00000" pt_clust_9="31.53129" pt_clust_10="301.57290"></scales>
<clustering>
<clus scale="   31.531">  2  9  1 -1</clus>
<clus scale="   91.518">  7  8 -1 -1</clus>
<clus scale="   92.750">  5  6 -1 -1</clus>
<clus scale="  111.641">  1  7  2 -1</clus>
<clus scale="  301.573">  1 10  2 -1</clus>
<clus scale="   31.531">  2  5  1 -1</clus>
</clustering>
</event>
<event>
10    2  0.1898324E-006  0.3006584E+03  0.7546771E-02  0.1127336E+00
         -1   -1    0    0    0  501 -0.00000000000E+00  0.00000000000E+00  0.45280864485E+03  0.45280864485E+03  0.00000000000E+00 0.  1.
          1   -1    0    0  502    0  0.00000000000E+00 -0.00000000000E+00 -0.18611978144E+04  0.18611978144E+04  0.00000000000E+00 0. -1.
         23    2    1    2    0    0  0.53094826859E+02 -0.51554750982E+01  0.23957300998E+03  0.26258853674E+03  0.93337414527E+02 0.  0.
         23    2    1    2    0    0 -0.93354057582E+02 -0.26926011710E+03 -0.12441424244E+04  0.12793679365E+04  0.87612522128E+02 0.  0.
        -11    1    4    4    0    0 -0.48407007208E+02 -0.23889689277E+03 -0.10331398717E+04  0.10615050439E+04  0.00000000000E+00 0.  1.
         11    1    4    4    0    0 -0.44947050373E+02 -0.30363224326E+02 -0.21100255275E+03  0.21786289266E+03  0.00000000000E+00 0. -1.
        -13    1    3    3    0    0  0.54192601134E+02 -0.42798213565E+02  0.16973088904E+03  0.18324055172E+03  0.00000000000E+00 0.  1.
         13    1    3    3    0    0 -0.10977742753E+01  0.37642738467E+02  0.69842120944E+02  0.79347985013E+02  0.00000000000E+00 0. -1.
         21    1    1    2  502  503  0.61630373074E+02  0.28809702071E+03 -0.54986392789E+03  0.62381771009E+03  0.00000000000E+00 0. -1.
         21    1    1    2  503  501 -0.21371142352E+02 -0.13681428516E+02  0.14604417278E+03  0.14823227589E+03  0.00000000000E+00 0.  1.
<scales pt_clust_5="13000.00000" pt_clust_6="13000.00000" pt_clust_7="13000.00000" pt_clust_8="13000.00000" pt_clust_9="287.61005" pt_clust_10="25.37533"></scales>
<clustering>
<clus scale="   25.375">  1 10  2 -1</clus>
<clus scale="   87.613">  5  6 -1 -1</clus>
<clus scale="   93.337">  7  8 -1 -1</clus>
<clus scale="  101.211">  1  7  2 -1</clus>
<clus scale="  287.610">  1  9  2 -1</clus>
<clus scale="  300.658">  2  5  1 -1</clus>
</clustering>
</event>
<event>
10    2  0.1898324E-006  0.2003300E+03  0.7546771E-02  0.1149510E+00
          1   -1    0    0  502    0  0.00000000000E+00  0.00000000000E+00  0.49297789351E+03  0.49297789351E+03  0.00000000000E+00 0. -1.
         -1   -1    0    0    0  501 -0.00000000000E+00 -0.00000000000E+00 -0.29807192174E+03  0.29807192174E+03  0.00000000000E+00 0.  1.
         23    2    1    2    0    0 -0.76707816006E+02 -0.16807557846E+03  0.28200745133E+02  0.20691943776E+03  0.88808122282E+02 0.  0.
         23    2    1    2    0    0 -0.31133426942E+02  0.18755966510E+03  0.23146131384E+01  0.20963319507E+03  0.88276841786E+02 0.  0.
        -11    1    4    4    0    0 -0.17548851879E+02  0.17020798650E+03 -0.26718810400E+02  0.17318376281E+03  0.00000000000E+00 0.  1.
         11    1    4    4    0    0 -0.13584575063E+02  0.17351678597E+02  0.29033423538E+02  0.36449432261E+02  0.00000000000E+00 0. -1.
        -13    1    3    3    0    0 -0.63256689406E+02 -0.41007216390E+02 -0.27875951797E+01  0.75437200622E+02  0.00000000000E+00 0.  1.
         13    1    3    3    0    0 -0.13451126599E+02 -0.12706836207E+03  0.30988340312E+02  0.13148223713E+03  0.00000000000E+00 0. -1.
         21    1    1    2  502  503  0.89047569635E+02 -0.39941063303E+02  0.25853368801E+03  0.27634114068E+03  0.00000000000E+00 0.  1.
         21    1    1    2  503  501  0.18793673313E+02  0.20456976667E+02 -0.94143074519E+02  0.98156041744E+02  0.00000000000E+00 0. -1.
<scales pt_clust_5="13000.00000" pt_clust_6="13000.00000" pt_clust_7="13000.00000" pt_clust_8="13000.00000" pt_clust_9="97.98872" pt_clust_10="27.77931"></scales>
<clustering>
<clus scale="   27.779">  2 10  1 -1</clus>
<clus scale="   88.277">  5  6 -1 -1</clus>
<clus scale="   88.808">  7  8 -1 -1</clus>
<clus scale="   97.989">  1  9  2 -1</clus>
<clus scale="  200.095">  1  5  2 -1</clus>
<clus scale="   97.989">  1  5  2 -1</clus>
</clustering>
</event>
<event>
10    2  0.1898324E-006  0.2171404E+03  0.7546771E-02  0.1136108E+00
          1   -1    0    0  502    0  0.00000000000E+00  0.00000000000E+00  0.61810706173E+03  0.61810706173E+03  0.00000000000E+00 0. -1.
         -1   -1    0    0    0  501 -0.00000000000E+00 -0.00000000000E+00 -0.16117901277E+03  0.16117901277E+03  0.00000000000E+00 0.  1.
         23    2    1    2    0    0 -0.16049741435E+03  0.14700201340E+03  0.40128936519E+02  0.23907636280E+03  0.90433200469E+02 0.  0.
         23    2    1    2    0    0  0.15278588405E+03 -0.53251741209E+02  0.27366885091E+03  0.33079104747E+03  0.91371783517E+02 0.  0.
        -13    1    4    4    0    0  0.52641624873E+02  0.25425945173E+02  0.86957037827E+02  0.10478141908E+03  0.00000000000E+00 0. -1.
         13    1    4    4    0    0  0.10014425918E+03 -0.78677686382E+02  0.18671181308E+03  0.22600962839E+03  0.00000000000E+00 0.  1.
        -13    1    3    3    0    0 -0.23441864699E+02  0.31015649589E+02  0.44993713116E+02  0.59463650746E+02  0.00000000000E+00 0.  1.
         13    1    3    3    0    0 -0.13705554965E+03  0.11598636381E+03 -0.48647765977E+01  0.17961271205E+03  0.00000000000E+00 0. -1.
         21    1    1    2  502  503  0.39120267474E+02 -0.53729170320E+02  0.14393426548E+03  0.15853798236E+03  0.00000000000E+00 0.  1.
         21    1    1    2  503  501 -0.31408737175E+02 -0.40021101867E+02 -0.80400395332E+00  0.50880681874E+02  0.00000000000E+00 0.  1.
<scales pt_clust_5="13000.00000" pt_clust_6="13000.00000" pt_clust_7="13000.00000" pt_clust_8="13000.00000" pt_clust_9="67.26216" pt_clust_10="50.87433"></scales>
<clustering>
<clus scale="   50.874">  2 10  1 -1</clus>
<clus scale="   67.262">  1  9  2 -1</clus>
<clus scale="   90.433">  7  8 -1 -1</clus>
<clus scale="   91.372">  5  6 -1 -1</clus>
<clus scale="  216.747">  2  7  1 -1</clus>
<clus scale="   67.262">  1  5  2 -1</clus>
</clustering>
</event>
<event>
10    2  0.1898324E-006  0.1241485E+03  0.7546771E-02  0.1236841E+00
          1   -1    0    0  502    0  0.00000000000E+00  0.00000000000E+00  0.11627478296E+03  0.11627478296E+03  0.00000000000E+00 0. -1.
         -1   -1    0    0    0  501 -0.00000000000E+00 -0.00000000000E+00 -0.42499591749E+03  0.42499591749E+03  0.00000000000E+00 0.  1.
         23    2    1    2    0    0  0.61113235528E+02 -0.36028528539E+02 -0.26696000964E+03  0.29068339909E+03  0.90533470816E+02 0.  0.
         23    2    1    2    0    0 -0.10705639118E+03  0.52531227460E+01  0.39213145553E+02  0.14660814097E+03  0.92019617604E+02 0.  0.
        -11    1    4    4    0    0 -0.11217509191E+03  0.25151667227E+02  0.47587924789E+02  0.12442052964E+03  0.00000000000E+00 0. -1.
         11    1    4    4    0    0  0.51187007277E+01 -0.19898544481E+02 -0.83747792357E+01  0.22187611337E+02  0.00000000000E+00 0.  1.
        -11    1    3    3    0    0  0.80506650398E+02 -0.41671438315E+02 -0.24292761307E+03  0.25929067612E+03  0.00000000000E+00 0.  1.
         11    1    3    3    0    0 -0.19393414870E+02  0.56429097767E+01 -0.24032396565E+02  0.31392722975E+02  0.00000000000E+00 0. -1.
         21    1    1    2  502  503  0.25099733731E+02  0.88945590339E+01 -0.13090224132E+02  0.29672609956E+02  0.00000000000E+00 0.  1.
         21    1    1    2  503  501  0.20843421922E+02  0.21880846759E+02 -0.67884046315E+02  0.74306550428E+02  0.00000000000E+00 0.  1.
<scales pt_clust_5="13000.00000" pt_clust_6="13000.00000" pt_clust_7="13000.00000" pt_clust_8="13000.00000" pt_clust_9="26.62912" pt_clust_10="30.92795"></scales>
<clustering>
<clus scale="   26.629">  1  9  2 -1</clus>
<clus scale="   30.928">  2 10  1 -1</clus>
<clus scale="   90.533">  7  8 -1 -1</clus>
<clus scale="   92.020">  5  6 -1 -1</clus>
<clus scale="  123.051">  2  7  1 -1</clus>
<clus scale="   26.629">  1  5  2 -1</clus>
</clustering>
</event>
<event>
10    2  0.1898324E-006  0.1062395E+03  0.7546771E-02  0.1273195E+00
         -1   -1    0    0    0  501 -0.00000000000E+00  0.00000000000E+00  0.35000037399E+03  0.35000037399E+03  0.00000000000E+00 0.  1.
          1   -1    0    0  502    0  0.00000000000E+00 -0.00000000000E+00 -0.71437647657E+02  0.71437647657E+02  0.00000000000E+00 0. -1.
         23    2    1    2    0    0  0.10877138525E+02 -0.63177036034E+02  0.20896226417E+03  0.24021475063E+03  0.99640596889E+02 0.  0.
         23    2    1    2    0    0 -0.22945079578E+02  0.78284220705E+01  0.37907509230E+02  0.98955679354E+02  0.88133344152E+02 0.  0.
        -11    1    4    4    0    0 -0.35135552321E+02  0.34692782940E+02  0.46914264887E+02  0.68110531307E+02  0.00000000000E+00 0.  1.
         11    1    4    4    0    0  0.12190472742E+02 -0.26864360869E+02 -0.90067556569E+01  0.30845148047E+02  0.00000000000E+00 0. -1.
        -11    1    3    3    0    0 -0.37068531148E+02 -0.45863631550E+01  0.10619128630E+03  0.11256864579E+03  0.00000000000E+00 0.  1.
         11    1    3    3    0    0  0.47945669673E+02 -0.58590672879E+02  0.10277097787E+03  0.12764610484E+03  0.00000000000E+00 0. -1.
         21    1    1    2  502  503  0.29405822414E+00  0.24325023956E+02 -0.12222999377E+02  0.27224896225E+02  0.00000000000E+00 0. -1.
         21    1    1    2  503  501  0.11773882829E+02  0.31023590008E+02  0.43915952305E+02  0.55042695435E+02  0.00000000000E+00 0.  1.
<scales pt_clust_5="13000.00000" pt_clust_6="13000.00000" pt_clust_7="13000.00000" pt_clust_8="13000.00000" pt_clust_9="24.32680" pt_clust_10="35.65182"></scales>
<clustering>
<clus scale="   24.327">  2  9  1 -1</clus>
<clus scale="   35.652">  1 10  2 -1</clus>
<clus scale="   88.133">  5  6 -1 -1</clus>
<clus scale="   95.530">  2  5  1 -1</clus>
<clus scale="   99.641">  7  8 -1 -1</clus>
<clus scale="   24.327">  2  5  1 -1</clus>
</clustering>
</event>
<event>
10    2  0.1898324E-006  0.1535306E+03  0.7546771E-02  0.1227565E+00
         -2   -1    0    0    0  501 -0.00000000000E+00  0.00000000000E+00  0.14592270048E+03  0.14592270048E+03  0.00000000000E+00 0.  1.
          2   -1    0    0  502    0  0.00000000000E+00 -0.00000000000E+00 -0.27357872845E+03  0.27357872845E+03  0.00000000000E+00 0. -1.
         23    2    1    2    0    0 -0.62403368792E+01 -0.20469382906E+02 -0.16169030806E+02  0.78824142226E+02  0.74120647593E+02 0.  0.
         23    2    1    2    0    0 -0.49678638424E+02  0.12604894667E+03 -0.54638878283E+02  0.17240372867E+03  0.91549628985E+02 0.  0.
        -13    1    4    4    0    0 -0.41974959861E+02  0.52556687442E+02 -0.69838882772E+02  0.96961704796E+02  0.00000000000E+00 0. -1.
         13    1    4    4    0    0 -0.77036785629E+01  0.73492259227E+02  0.15200004489E+02  0.75442023874E+02  0.00000000000E+00 0.  1.
        -13    1    3    3    0    0 -0.33713434381E+02 -0.32292385042E+02 -0.14435304292E+02  0.48864831929E+02  0.00000000000E+00 0.  1.
         13    1    3    3    0    0  0.27473097502E+02  0.11823002136E+02 -0.17337265135E+01  0.29959310297E+02  0.00000000000E+00 0. -1.
         21    1    1    2  502  503 -0.21416620158E+02 -0.18394230792E+02 -0.42259158563E+02  0.50821804650E+02  0.00000000000E+00 0. -1.
         21    1    1    2  503  501  0.77335595461E+02 -0.87185332971E+02 -0.14588960312E+02  0.11745175339E+03  0.00000000000E+00 0. -1.
<scales pt_clust_5="13000.00000" pt_clust_6="13000.00000" pt_clust_7="13000.00000" pt_clust_8="13000.00000" pt_clust_9="28.23153" pt_clust_10="123.24902"></scales>
<clustering>
<clus scale="   28.232">  2  9  1 -1</clus>
<clus scale="   74.121">  7  8 -1 -1</clus>
<clus scale="   78.741">  1  7  2 -1</clus>
<clus scale="   91.550">  5  6 -1 -1</clus>
<clus scale="  123.249">  1 10  2 -1</clus>
<clus scale="   28.232">  2  5  1 -1</clus>
</clustering>
</event>
<event>
10    2  0.1898324E-006  0.2446986E+03  0.7546771E-02  0.1154631E+00
         -2   -1    0    0    0  501 -0.00000000000E+00  0.00000000000E+00  0.63315537060E+03  0.63315537060E+03  0.00000000000E+00 0.  1.
          2   -1    0    0  502    0  0.00000000000E+00 -0.00000000000E+00 -0.42469758924E+03  0.42469758924E+03  0.00000000000E+00 0. -1.
         23    2    1    2    0    0 -0.14766144369E+03  0.18740216966E+03  0.40664873079E+03  0.48101071783E+03  0.95313405524E+02 0.  0.
         23    2    1    2    0    0 -0.15895154020E+02  0.31674821475E+02 -0.48628939072E+02  0.10919805960E+03  0.91123500084E+02 0.  0.
        -11    1    3    3    0    0 -0.15542868511E+03  0.14607720131E+03  0.35782694181E+03  0.41657741800E+03  0.00000000000E+00 0.  1.
         11    1    3    3    0    0  0.77672414265E+01  0.41324968357E+02  0.48821788977E+02  0.64433299838E+02  0.00000000000E+00 0. -1.
        -13    1    4    4    0    0 -0.43987383084E+02  0.43433425593E+02 -0.48777436276E+02  0.78743829085E+02  0.00000000000E+00 0.  1.
         13    1    4    4    0    0  0.28092229064E+02 -0.11758604117E+02  0.14849720465E+00  0.30454230511E+02  0.00000000000E+00 0. -1.
         21    1    1    2  502  503  0.16549101097E+03 -0.19177715371E+03 -0.25457123367E+03  0.35912708672E+03  0.00000000000E+00 0. -1.
         21    1    1    2  503  501 -0.19344132674E+01 -0.27299837425E+02  0.10500922332E+03  0.10851709570E+03  0.00000000000E+00 0. -1.
<scales pt_clust_5="13000.00000" pt_clust_6="13000.00000" pt_clust_7="13000.00000" pt_clust_8="13000.00000" pt_clust_9="225.37247" pt_clust_10="27.36829"></scales>
<clustering>
<clus scale="   27.368">  1 10  2 -1</clus>
<clus scale="   91.124">  7  8 -1 -1</clus>
<clus scale="   95.313">  5  6 -1 -1</clus>
<clus scale="   97.293">  2  7  1 -1</clus>
<clus scale="  225.372">  2  9  1 -1</clus>
<clus scale="   97.293">  2  5  1 -1</clus>
</clustering>
</event>
<event>
10    2  0.1898324E-006  0.1185594E+03  0.7546771E-02  0.1246949E+00
          1   -1    0    0  502    0  0.00000000000E+00  0.00000000000E+00  0.74306570864E+03  0.74306570864E+03  0.00000000000E+00 0. -1.
         -1   -1    0    0    0  501 -0.00000000000E+00 -0.00000000000E+00 -0.66774505409E+02  0.66774505409E+02  0.00000000000E+00 0.  1.
         23    2    1    2    0    0  0.13025393095E+02 -0.47251110243E+02  0.21590978492E+03  0.24150870769E+03  0.96473272881E+02 0.  0.
         23    2    1    2    0    0 -0.39401836416E+02  0.78980663100E+02  0.35688122245E+03  0.37902854521E+03  0.92238719049E+02 0.  0.
        -13    1    4    4    0    0 -0.21505572415E+02 -0.15625173234E+02  0.41555911383E+02  0.49330816477E+02  0.00000000000E+00 0.  1.
         13    1    4    4    0    0 -0.17896264001E+02  0.94605836333E+02  0.31532531106E+03  0.32969772873E+03  0.00000000000E+00 0. -1.
        -13    1    3    3    0    0  0.53015998227E+01 -0.76287156981E+02  0.13432613062E+03  0.15456825886E+03  0.00000000000E+00 0.  1.
         13    1    3    3    0    0  0.77237932725E+01  0.29036046738E+02  0.81583654305E+02  0.86940448828E+02  0.00000000000E+00 0. -1.
         21    1    1    2  502  503 -0.15383894067E+02 -0.17148889334E+02  0.13374761550E+03  0.13571725482E+03  0.00000000000E+00 0.  1.
         21    1    1    2  503  501  0.41760337388E+02 -0.14580663523E+02 -0.30247419646E+02  0.53585706329E+02  0.00000000000E+00 0.  1.
<scales pt_clust_5="13000.00000" pt_clust_6="13000.00000" pt_clust_7="13000.00000" pt_clust_8="13000.00000" pt_clust_9="23.03798" pt_clust_10="44.06430"></scales>
<clustering>
<clus scale="   23.038">  1  9  2 -1</clus>
<clus scale="   44.064">  2 10  1 -1</clus>
<clus scale="   92.239">  5  6 -1 -1</clus>
<clus scale="   96.473">  7  8 -1 -1</clus>
<clus scale="  115.140">  1  5  2 -1</clus>
<clus scale="   23.038">  1  5  2 -1</clus>
</clustering>
</event>
<event>
10    2  0.1898324E-006  0.1421731E+03  0.7546771E-02  0.1226685E+00
         -1   -1    0    0    0  501 -0.00000000000E+00  0.00000000000E+00  0.21434468394E+03  0.21434468394E+03  0.00000000000E+00 0.  1.
          1   -1    0    0  502    0  0.00000000000E+00 -0.00000000000E+00 -0.55096202968E+03  0.55096202968E+03  0.00000000000E+00 0. -1.
         23    2    1    2    0    0  0.33976267569E+02  0.12686436206E+02  0.12476624663E+03  0.16101906523E+03  0.95106207192E+02 0.  0.
         23    2    1    2    0    0 -0.44857715168E+02 -0.94351927535E+02 -0.29504322644E+03  0.32627154408E+03  0.92130962071E+02 0.  0.
        -11    1    4    4    0    0 -0.15293988471E+02  0.13233439966E+02 -0.16127516840E+02  0.25867485694E+02  0.00000000000E+00 0.  1.
         11    1    4    4    0    0 -0.29563726697E+02 -0.10758536750E+03 -0.27891570960E+03  0.30040405839E+03  0.00000000000E+00 0. -1.
        -13    1    3    3    0    0 -0.78008014351E+01  0.40465264415E+02  0.22127820517E+02  0.46775320074E+02  0.00000000000E+00 0. -1.
         13    1    3    3    0    0  0.41777069004E+02 -0.27778828209E+02  0.10263842611E+03  0.11424374515E+03  0.00000000000E+00 0.  1.
         21    1    1    2  502  503  0.14435282247E+02  0.11381056697E+03 -0.20048400352E+03  0.23098713859E+03  0.00000000000E+00 0. -1.
         21    1    1    2  503  501 -0.35538346483E+01 -0.32145075638E+02  0.34143637586E+02  0.47028965714E+02  0.00000000000E+00 0.  1.
<scales pt_clust_5="13000.00000" pt_clust_6="13000.00000" pt_clust_7="13000.00000" pt_clust_8="13000.00000" pt_clust_9="108.28233" pt_clust_10="32.34093"></scales>
<clustering>
<clus scale="   32.341">  1 10  2 -1</clus>
<clus scale="   92.131">  5  6 -1 -1</clus>
<clus scale="   95.106">  7  8 -1 -1</clus>
<clus scale="  100.988">  1  7  2 -1</clus>
<clus scale="  108.282">  1  9  2 -1</clus>
<clus scale="  142.173">  2  5  1 -1</clus>
</clustering>
</event>
<event>
10    2  0.1898324E-006  0.1556066E+03  0.7546771E-02  0.1217963E+00
         -1   -1    0    0    0  501 -0.00000000000E+00  0.00000000000E+00  0.15006130973E+03  0.15006130973E+03  0.00000000000E+00 0.  1.
          1   -1    0    0  502    0  0.00000000000E+00 -0.00000000000E+00 -0.38164980745E+03  0.38164980745E+03  0.00000000000E+00 0. -1.
         23    2    1    2    0    0 -0.84311323600E+02  0.96259276275E+02  0.49251494502E+02  0.16081559121E+03  0.84033904524E+02 0.  0.
         23    2    1    2    0    0 -0.38404634804E-02  0.18958489976E+02 -0.95663092669E+02  0.13302865726E+03  0.90475256269E+02 0.  0.
        -13    1    3    3    0    0 -0.36659462425E+02  0.95732776784E+01  0.48943268666E+02  0.61895132107E+02  0.00000000000E+00 0. -1.
         13    1    3    3    0    0 -0.47651861175E+02  0.86685998597E+02  0.30822583587E+00  0.98920459104E+02  0.00000000000E+00 0.  1.
        -13    1    4    4    0    0 -0.41720625865E+02  0.50440948067E+00 -0.67697469389E+02  0.79522401958E+02  0.00000000000E+00 0. -1.
         13    1    4    4    0    0  0.41716785402E+02  0.18454080495E+02 -0.27965623280E+02  0.53506255303E+02  0.00000000000E+00 0.  1.
         21    1    1    2  502  503  0.67119484095E+02 -0.95056714864E+02 -0.17350150101E+03  0.20891044741E+03  0.00000000000E+00 0.  1.
         21    1    1    2  503  501  0.17195679968E+02 -0.20161051386E+02 -0.11675398546E+02  0.28956421288E+02  0.00000000000E+00 0.  1.
<scales pt_clust_5="13000.00000" pt_clust_6="13000.00000" pt_clust_7="13000.00000" pt_clust_8="13000.00000" pt_clust_9="138.04958" pt_clust_10="20.83326"></scales>
<clustering>
<clus scale="   20.833">  9 10 -1 -1</clus>
<clus scale="   84.034">  5  6 -1 -1</clus>
<clus scale="   90.475">  7  8 -1 -1</clus>
<clus scale="   92.440">  2  7  1 -1</clus>
<clus scale="  138.050">  2  9  1 -1</clus>
<clus scale="   92.440">  2  5  1 -1</clus>
</clustering>
</event>
<event>
10    2  0.1898324E-006  0.1175928E+03  0.7546771E-02  0.1247276E+00
          1   -1    0    0  502    0  0.00000000000E+00  0.00000000000E+00  0.49702894862E+03  0.49702894862E+03  0.00000000000E+00 0. -1.
         -1   -1    0    0    0  501 -0.00000000000E+00 -0.00000000000E+00 -0.11055950550E+03  0.11055950550E+03  0.00000000000E+00 0.  1.
         23    2    1    2    0    0 -0.22386759731E+02 -0.63633510369E+02 -0.20491346713E+02  0.11392900735E+03  0.89495993048E+02 0.  0.
         23    2    1    2    0    0  0.65940324470E+02  0.44611751106E+02  0.33977836658E+03  0.36039203733E+03  0.89970814398E+02 0.  0.
        -11    1    3    3    0    0  0.71238959375E+01 -0.69606682036E+02  0.10460976772E+02  0.70747947762E+02  0.00000000000E+00 0.  1.
         11    1    3    3    0    0 -0.29510655668E+02  0.59731716670E+01 -0.30952323485E+02  0.43181059585E+02  0.00000000000E+00 0. -1.
        -13    1    4    4    0    0  0.78678967412E+02  0.26253145754E+02  0.31992186267E+03  0.33049902540E+03  0.00000000000E+00 0.  1.
         13    1    4    4    0    0 -0.12738642942E+02  0.18358605351E+02  0.19856503906E+02  0.29893011923E+02  0.00000000000E+00 0. -1.
         21    1    1    2  502  503 -0.22828012518E+02  0.20857141451E+02  0.94212247015E+02  0.99156875670E+02  0.00000000000E+00 0.  1.
         21    1    1    2  503  501 -0.20725552221E+02 -0.18353821875E+01 -0.27029823759E+02  0.34110533785E+02  0.00000000000E+00 0.  1.
<scales pt_clust_5="13000.00000" pt_clust_6="13000.00000" pt_clust_7="13000.00000" pt_clust_8="13000.00000" pt_clust_9="31.35972" pt_clust_10="20.80666"></scales>
<clustering>
<clus scale="   20.807">  2 10  1 -1</clus>
<clus scale="   31.360">  1  9  2 -1</clus>
<clus scale="   89.496">  5  6 -1 -1</clus>
<clus scale="   89.971">  7  8 -1 -1</clus>
<clus scale="  117.230">  2  5  1 -1</clus>
<clus scale="   31.360">  1  5  2 -1</clus>
</clustering>
</event>
<event>
10    2  0.1898324E-006  0.1517843E+03  0.7546771E-02  0.1198429E+00
          1   -1    0    0  502    0  0.00000000000E+00  0.00000000000E+00  0.31998910743E+03  0.31998910743E+03  0.00000000000E+00 0. -1.
         -1   -1    0    0    0  501 -0.00000000000E+00 -0.00000000000E+00 -0.21107462927E+03  0.21107462927E+03  0.00000000000E+00 0.  1.
         23    2    1    2    0    0 -0.84255143223E+02 -0.22706047193E+02 -0.10879893616E+03  0.16633583678E+03  0.90641647980E+02 0.  0.
         23    2    1    2    0    0  0.13038186445E+03  0.35955022267E+02  0.20511010588E+03  0.26212577809E+03  0.91365057882E+02 0.  0.
        -11    1    3    3    0    0 -0.39305376952E+02 -0.17069041738E+02  0.56732387111E+01  0.43225576695E+02  0.00000000000E+00 0. -1.
         11    1    3    3    0    0 -0.44949766271E+02 -0.56370054548E+01 -0.11447217487E+03  0.12311026008E+03  0.00000000000E+00 0.  1.
        -13    1    4    4    0    0  0.19955238491E+02 -0.28490961507E+02  0.35243500833E+02  0.49518186374E+02  0.00000000000E+00 0.  1.
         13    1    4    4    0    0  0.11042662595E+03  0.64445983774E+02  0.16986660505E+03  0.21260759171E+03  0.00000000000E+00 0. -1.
         21    1    1    2  502  503 -0.18916451499E+02  0.29792323558E+02  0.32457971308E+02  0.47947206193E+02  0.00000000000E+00 0.  1.
         21    1    1    2  503  501 -0.27210269724E+02 -0.43041298632E+02 -0.19854662869E+02  0.54654915644E+02  0.00000000000E+00 0. -1.
<scales pt_clust_5="13000.00000" pt_clust_6="13000.00000" pt_clust_7="13000.00000" pt_clust_8="13000.00000" pt_clust_9="35.29043" pt_clust_10="50.02296"></scales>
<clustering>
<clus scale="   35.290">  1  9  2 -1</clus>
<clus scale="   50.023">  2 10  1 -1</clus>
<clus scale="   90.642">  5  6 -1 -1</clus>
<clus scale="   91.365">  7  8 -1 -1</clus>
<clus scale="  151.350">  2  5  1 -1</clus>
<clus scale="   35.290">  1  5  2 -1</clus>
</clustering>
</event>
<event>
10    2  0.1898324E-006  0.1546850E+03  0.7546771E-02  0.1197296E+00
          1   -1    0    0  502    0  0.00000000000E+00  0.00000000000E+00  0.16316307918E+03  0.16316307918E+03  0.00000000000E+00 0. -1.
         -1   -1    0    0    0  501 -0.00000000000E+00 -0.00000000000E+00 -0.60626010181E+03  0.60626010181E+03  0.00000000000E+00 0.  1.
         23    2    1    2    0    0  0.24159901216E+02 -0.14556593591E+03 -0.39725642194E+03  0.43371747657E+03  0.92331155032E+02 0.  0.
         23    2    1    2    0    0  0.84704093015E+02  0.99040483855E+02  0.31273405599E+01  0.16722367325E+03  0.10473860712E+03 0.  0.
        -11    1    4    4    0    0  0.78508893720E+02  0.40984726414E+02 -0.37415565612E+02  0.96142179830E+02  0.00000000000E+00 0.  1.
         11    1    4    4    0    0  0.61951992945E+01  0.58055757441E+02  0.40542906172E+02  0.71081493423E+02  0.00000000000E+00 0. -1.
        -11    1    3    3    0    0 -0.12774670823E+00 -0.61215102820E+02 -0.61873972988E+02  0.87038460842E+02  0.00000000000E+00 0. -1.
         11    1    3    3    0    0  0.24287647924E+02 -0.84350833095E+02 -0.33538244895E+03  0.34667901573E+03  0.00000000000E+00 0.  1.
         21    1    1    2  502  503 -0.40374477582E+02 -0.29810161575E+01  0.31879127725E+02  0.51529250740E+02  0.00000000000E+00 0. -1.
         21    1    1    2  503  501 -0.68489516649E+02  0.49506468217E+02 -0.80847068981E+02  0.11695278042E+03  0.00000000000E+00 0.  1.
<scales pt_clust_5="13000.00000" pt_clust_6="13000.00000" pt_clust_7="13000.00000" pt_clust_8="13000.00000" pt_clust_9="40.48438" pt_clust_10="89.19671"></scales>
<clustering>
<clus scale="   40.484">  1  9  2 -1</clus>
<clus scale="   89.197">  2 10  1 -1</clus>
<clus scale="   92.331">  7  8 -1 -1</clus>
<clus scale="  104.739">  5  6 -1 -1</clus>
<clus scale="  146.568">  2  7  1 -1</clus>
<clus scale="   40.484">  1  5  2 -1</clus>
</clustering>
</event>
<event>
10    2  0.1898324E-006  0.1348605E+03  0.7546771E-02  0.1220705E+00
          2   -1    0    0  502    0  0.00000000000E+00  0.00000000000E+00  0.80004095920E+03  0.80004095920E+03  0.00000000000E+00 0. -1.
         -2   -1    0    0    0  501 -0.00000000000E+00 -0.00000000000E+00 -0.11888237662E+03  0.11888237662E+03  0.00000000000E+00 0.  1.
         23    2    1    2    0    0  0.50144970419E+02  0.64919562892E+02 -0.13976076179E+02  0.12343346177E+03  0.91166995539E+02 0.  0.
         23    2    1    2    0    0 -0.40706996863E+02 -0.14048161875E+03  0.23433647918E+03  0.29126555114E+03  0.92357409061E+02 0.  0.
        -13    1    4    4    0    0  0.16298424615E+02 -0.10272948701E+03  0.12944041282E+03  0.16605362573E+03  0.00000000000E+00 0. -1.
         13    1    4    4    0    0 -0.57005421478E+02 -0.37752131744E+02  0.10489606635E+03  0.12521192541E+03  0.00000000000E+00 0.  1.
        -13    1    3    3    0    0  0.20232780466E+02 -0.43417868224E+00  0.32180657535E+02  0.38015110626E+02  0.00000000000E+00 0. -1.
         13    1    3    3    0    0  0.29912189953E+02  0.65353741574E+02 -0.46156733714E+02  0.85418351147E+02  0.00000000000E+00 0.  1.
         21    1    1    2  502  503  0.19738218744E+02  0.53357205950E+02  0.46394931785E+03  0.46742438772E+03  0.00000000000E+00 0.  1.
         21    1    1    2  503  501 -0.29176192300E+02  0.22204849912E+02 -0.31511382624E+01  0.36799935178E+02  0.00000000000E+00 0.  1.
<scales pt_clust_5="13000.00000" pt_clust_6="13000.00000" pt_clust_7="13000.00000" pt_clust_8="13000.00000" pt_clust_9="57.08237" pt_clust_10="36.66477"></scales>
<clustering>
<clus scale="   36.665">  2 10  1 -1</clus>
<clus scale="   57.082">  1  9  2 -1</clus>
<clus scale="   91.167">  7  8 -1 -1</clus>
<clus scale="   92.357">  5  6 -1 -1</clus>
<clus scale="  134.048">  2  7  1 -1</clus>
<clus scale="   57.082">  1  5  2 -1</clus>
</clustering>
</event>
<event>
10    2  0.1898324E-006  0.1161269E+03  0.7546771E-02  0.1250236E+00
          1   -1    0    0  502    0  0.00000000000E+00  0.00000000000E+00  0.13495740244E+03  0.13495740244E+03  0.00000000000E+00 0. -1.
         -1   -1    0    0    0  501 -0.00000000000E+00 -0.00000000000E+00 -0.18126258725E+03  0.18126258725E+03  0.00000000000E+00 0.  1.
         23    2    1    2    0    0 -0.48700279340E+02  0.35297162479E+02 -0.75342357982E+02  0.13176837463E+03  0.89826648388E+02 0.  0.
         23    2    1    2    0    0  0.79077416242E+02 -0.83696478763E+01  0.24177200444E+02  0.12369654496E+03  0.91613369376E+02 0.  0.
        -11    1    4    4    0    0  0.72021994341E+02  0.30553885762E+02  0.18160677421E+01  0.78256026643E+02  0.00000000000E+00 0. -1.
         11    1    4    4    0    0  0.70554219009E+01 -0.38923533638E+02  0.22361132702E+02  0.45440518316E+02  0.00000000000E+00 0.  1.
        -11    1    3    3    0    0  0.18173930104E+02  0.36965033415E+02 -0.27556882522E+02  0.49558926594E+02  0.00000000000E+00 0. -1.
         11    1    3    3    0    0 -0.66874209444E+02 -0.16678709360E+01 -0.47785475460E+02  0.82209448041E+02  0.00000000000E+00 0.  1.
         21    1    1    2  502  503 -0.58557868002E+01 -0.22211253839E+02  0.20917289666E+02  0.31067073295E+02  0.00000000000E+00 0.  1.
         21    1    1    2  503  501 -0.24521350102E+02 -0.47162607633E+01 -0.16057316936E+02  0.29687996793E+02  0.00000000000E+00 0.  1.
<scales pt_clust_5="13000.00000" pt_clust_6="13000.00000" pt_clust_7="13000.00000" pt_clust_8="13000.00000" pt_clust_9="22.97020" pt_clust_10="25.62557"></scales>
<clustering>
<clus scale="   22.970">  1  9  2 -1</clus>
<clus scale="   25.626">  2 10  1 -1</clus>
<clus scale="   89.827">  7  8 -1 -1</clus>
<clus scale="   91.613">  5  6 -1 -1</clus>
<clus scale="  114.723">  2  7  1 -1</clus>
<clus scale="   22.970">  1  5  2 -1</clus>
</clustering>
</event>
<event>
10    2  0.1898324E-006  0.1150088E+03  0.7546771E-02  0.1251640E+00
          1   -1    0    0  502    0  0.00000000000E+00  0.00000000000E+00  0.12212259000E+03  0.12212259000E+03  0.00000000000E+00 0. -1.
         -1   -1    0    0    0  501 -0.00000000000E+00 -0.00000000000E+00 -0.21530062473E+03  0.21530062473E+03  0.00000000000E+00 0.  1.
         23    2    1    2    0    0  0.68617959830E+02  0.10126750422E+02 -0.11107594285E+03  0.16005304227E+03  0.92022474285E+02 0.  0.
         23    2    1    2    0    0 -0.66587202787E+02 -0.13789138193E+02  0.22554130885E+02  0.11645389548E+03  0.91808632743E+02 0.  0.
        -11    1    4    4    0    0 -0.44710714669E+02  0.37566474728E+02  0.12872148371E+02  0.59799500277E+02  0.00000000000E+00 0.  1.
         11    1    4    4    0    0 -0.21876488118E+02 -0.51355612920E+02  0.96819825139E+01  0.56654395206E+02  0.00000000000E+00 0. -1.
        -11    1    3    3    0    0  0.89466965062E+02  0.20422034411E+02 -0.92421744713E+02  0.13024275881E+03  0.00000000000E+00 0.  1.
         11    1    3    3    0    0 -0.20849005233E+02 -0.10295283989E+02 -0.18654198141E+02  0.29810283459E+02  0.00000000000E+00 0. -1.
         21    1    1    2  502  503  0.25798019322E+02 -0.84790114323E+01  0.75605825751E+01  0.28188541018E+02  0.00000000000E+00 0. -1.
         21    1    1    2  503  501 -0.27828776365E+02  0.12141399202E+02 -0.12216805333E+02  0.32727735960E+02  0.00000000000E+00 0. -1.
<scales pt_clust_5="13000.00000" pt_clust_6="13000.00000" pt_clust_7="13000.00000" pt_clust_8="13000.00000" pt_clust_9="27.15569" pt_clust_10="27.70348"></scales>
<clustering>
<clus scale="   27.156">  1  9  2 -1</clus>
<clus scale="   27.703">  1 10  2 -1</clus>
<clus scale="   91.809">  5  6 -1 -1</clus>
<clus scale="   92.022">  7  8 -1 -1</clus>
<clus scale="  114.838">  1  5  2 -1</clus>
<clus scale="   27.156">  1  5  2 -1</clus>
</clustering>
</event>
<event>
10    2  0.1898324E-006  0.2849670E+03  0.7546771E-02  0.1093042E+00
          2   -1    0    0  502    0  0.00000000000E+00  0.00000000000E+00  0.13261833128E+04  0.13261833128E+04  0.00000000000E+00 0. -1.
         -2   -1    0    0    0  501 -0.00000000000E+00 -0.00000000000E+00 -0.78166430664E+02  0.78166430664E+02  0.00000000000E+00 0.  1.
         23    2    1    2    0    0 -0.25905931611E+03 -0.62320092462E+02  0.45487196301E+03  0.53477041927E+03  0.89863092541E+02 0.  0.
         23    2    1    2    0    0  0.25763540186E+03  0.11242733799E+03  0.65394348623E+03  0.71734399972E+03  0.89019234621E+02 0.  0.
        -11    1    3    3    0    0 -0.21004228321E+03 -0.73782186004E+02  0.31194623346E+03  0.38323886061E+03  0.00000000000E+00 0.  1.
         11    1    3    3    0    0 -0.49017032900E+02  0.11462093542E+02  0.14292572955E+03  0.15153155866E+03  0.00000000000E+00 0. -1.
        -13    1    4    4    0    0  0.19320360842E+03  0.88752456182E+02  0.57322216182E+03  0.61138226961E+03  0.00000000000E+00 0. -1.
         13    1    4    4    0    0  0.64431793437E+02  0.23674881810E+02  0.80721324403E+02  0.10596173011E+03  0.00000000000E+00 0.  1.
         21    1    1    2  502  503 -0.12396637221E+02 -0.31912771071E+02  0.10971527715E+03  0.11493277866E+03  0.00000000000E+00 0. -1.
         21    1    1    2  503  501  0.13820551475E+02 -0.18194474459E+02  0.29486155781E+02  0.37302545847E+02  0.00000000000E+00 0. -1.
<scales pt_clust_5="13000.00000" pt_clust_6="13000.00000" pt_clust_7="13000.00000" pt_clust_8="13000.00000" pt_clust_9="34.66272" pt_clust_10="22.84834"></scales>
<clustering>
<clus scale="   22.848">  2 10  1 -1</clus>
<clus scale="   34.663">  1  9  2 -1</clus>
<clus scale="   89.019">  7  8 -1 -1</clus>
<clus scale="   89.863">  5  6 -1 -1</clus>
<clus scale="  284.702">  1  7  2 -1</clus>
<clus scale="   34.663">  1  5  2 -1</clus>
</clustering>
</event>
<event>
10    2  0.1898324E-006  0.1044041E+03  0.7546771E-02  0.1272090E+00
         -1   -1    0    0    0  501 -0.00000000000E+00  0.00000000000E+00  0.29376476949E+03  0.29376476949E+03  0.00000000000E+00 0.  1.
          1   -1    0    0  502    0  0.00000000000E+00 -0.00000000000E+00 -0.94255153584E+02  0.94255153584E+02  0.00000000000E+00 0. -1.
         23    2    1    2    0    0 -0.26244077990E+02 -0.41308151245E+02  0.75499851469E+02  0.12912556916E+03  0.92617871110E+02 0.  0.
         23    2    1    2    0    0  0.62477077875E+02  0.13889234064E+01  0.52881526878E+02  0.12227822948E+03  0.90830584888E+02 0.  0.
        -13    1    3    3    0    0 -0.58911972857E+02 -0.29573336052E+02  0.65674382634E+02  0.93050133184E+02  0.00000000000E+00 0.  1.
         13    1    3    3    0    0  0.32667894867E+02 -0.11734815193E+02  0.98254688350E+01  0.36075435971E+02  0.00000000000E+00 0. -1.
        -13    1    4    4    0    0  0.24644471544E+02  0.44695236480E+02  0.14211515995E+02  0.52980952507E+02  0.00000000000E+00 0.  1.
         13    1    4    4    0    0  0.37832606330E+02 -0.43306313073E+02  0.38670010883E+02  0.69297276970E+02  0.00000000000E+00 0. -1.
         21    1    1    2  502  503 -0.22605143422E+02  0.84892142137E+01 -0.24884953439E+02  0.34674488817E+02  0.00000000000E+00 0.  1.
         21    1    1    2  503  501 -0.13627856463E+02  0.31430013625E+02  0.96013190999E+02  0.10194163563E+03  0.00000000000E+00 0. -1.
<scales pt_clust_5="13000.00000" pt_clust_6="13000.00000" pt_clust_7="13000.00000" pt_clust_8="13000.00000" pt_clust_9="24.14662" pt_clust_10="35.03792"></scales>
<clustering>
<clus scale="   24.147">  2  9  1 -1</clus>
<clus scale="   35.038">  1 10  2 -1</clus>
<clus scale="   90.831">  7  8 -1 -1</clus>
<clus scale="   92.618">  5  6 -1 -1</clus>
<clus scale="  102.822">  2  7  1 -1</clus>
<clus scale="   24.147">  2  5  1 -1</clus>
</clustering>
</event>
<event>
10    2  0.1898324E-006  0.2735188E+03  0.7546771E-02  0.1099352E+00
         -3   -1    0    0    0  501 -0.00000000000E+00  0.00000000000E+00  0.28891085327E+03  0.28891085327E+03  0.00000000000E+00 0.  1.
          3   -1    0    0  502    0  0.00000000000E+00 -0.00000000000E+00 -0.50574779516E+03  0.50574779516E+03  0.00000000000E+00 0. -1.
         23    2    1    2    0    0 -0.18511186801E+03 -0.16582965434E+03  0.72450721947E+02  0.27416821906E+03  0.90295222984E+02 0.  0.
         23    2    1    2    0    0  0.17238938443E+03  0.18282940842E+03 -0.20108100842E+03  0.33466576372E+03  0.91776407709E+02 0.  0.
        -11    1    3    3    0    0 -0.64952487917E+02 -0.11957483118E+02  0.33678150551E+00  0.66044837125E+02  0.00000000000E+00 0. -1.
         11    1    3    3    0    0 -0.12015938010E+03 -0.15387217122E+03  0.72113940441E+02  0.20812338193E+03  0.00000000000E+00 0.  1.
        -13    1    4    4    0    0  0.11185906283E+03  0.51993370424E+02 -0.94122467204E+02  0.15516055987E+03  0.00000000000E+00 0.  1.
         13    1    4    4    0    0  0.60530321600E+02  0.13083603800E+03 -0.10695854122E+03  0.17950520386E+03  0.00000000000E+00 0. -1.
         21    1    1    2  502  503  0.44026966567E+02 -0.20309485567E+02 -0.12695649877E+03  0.13589996898E+03  0.00000000000E+00 0.  1.
         21    1    1    2  503  501 -0.31304482984E+02  0.33097314813E+01  0.38749843351E+02  0.49924696665E+02  0.00000000000E+00 0. -1.
<scales pt_clust_5="13000.00000" pt_clust_6="13000.00000" pt_clust_7="13000.00000" pt_clust_8="13000.00000" pt_clust_9="47.94083" pt_clust_10="31.47896"></scales>
<clustering>
<clus scale="   31.479">  1 10  2 -1</clus>
<clus scale="   47.941">  2  9  1 -1</clus>
<clus scale="   90.295">  5  6 -1 -1</clus>
<clus scale="   91.776">  7  8 -1 -1</clus>
<clus scale="  273.025">  1  5  2 -1</clus>
<clus scale="   47.941">  2  5  1 -1</clus>
</clustering>
</event>
<event>
10    2  0.1898324E-006  0.9929963E+02  0.7546771E-02  0.1283765E+00
          1   -1    0    0  502    0  0.00000000000E+00  0.00000000000E+00  0.22836967601E+03  0.22836967601E+03  0.00000000000E+00 0. -1.
         -1   -1    0    0    0  501 -0.00000000000E+00 -0.00000000000E+00 -0.18388124423E+03  0.18388124423E+03  0.00000000000E+00 0.  1.
         23    2    1    2    0    0 -0.94433238497E+00  0.15225686385E+02 -0.11782327709E+03  0.14730727536E+03  0.87088434705E+02 0.  0.
         23    2    1    2    0    0  0.12112449517E+02  0.57987613468E+02  0.13381444010E+03  0.17238356373E+03  0.91107156227E+02 0.  0.
        -11    1    3    3    0    0 -0.20642726458E+02 -0.52787302669E+01  0.44541280784E+01  0.21767553969E+02  0.00000000000E+00 0.  1.
         11    1    3    3    0    0  0.19698394073E+02  0.20504416652E+02 -0.12227740517E+03  0.12553972139E+03  0.00000000000E+00 0. -1.
        -13    1    4    4    0    0 -0.22659822440E+02 -0.11464685614E+02  0.60341964193E+02  0.65468001435E+02  0.00000000000E+00 0. -1.
         13    1    4    4    0    0  0.34772271957E+02  0.69452299082E+02  0.73472475906E+02  0.10691556229E+03  0.00000000000E+00 0.  1.
         21    1    1    2  502  503  0.97667281787E+01 -0.19047671732E+02  0.27019090110E+02  0.34470770344E+02  0.00000000000E+00 0.  1.
         21    1    1    2  503  501 -0.20934845311E+02 -0.54165628121E+02  0.14781786646E+01  0.58089310808E+02  0.00000000000E+00 0.  1.
<scales pt_clust_5="13000.00000" pt_clust_6="13000.00000" pt_clust_7="13000.00000" pt_clust_8="13000.00000" pt_clust_9="21.40567" pt_clust_10="60.26559"></scales>
<clustering>
<clus scale="   21.406">  1  9  2 -1</clus>
<clus scale="   60.266">  2 10  1 -1</clus>
<clus scale="   87.088">  5  6 -1 -1</clus>
<clus scale="   91.107">  7  8 -1 -1</clus>
<clus scale="   95.626">  2  5  1 -1</clus>
<clus scale="   21.406">  1  5  2 -1</clus>
</clustering>
</event>
<event>
10    2  0.1898324E-006  0.9594849E+02  0.7546771E-02  0.1293114E+00
          2   -1    0    0  502    0  0.00000000000E+00  0.00000000000E+00  0.26238574354E+03  0.26238574354E+03  0.00000000000E+00 0. -1.
         -2   -1    0    0    0  501 -0.00000000000E+00 -0.00000000000E+00 -0.15068234857E+03  0.15068234857E+03  0.00000000000E+00 0.  1.
         23    2    1    2    0    0  0.95958207619E+00  0.23944962909E+02 -0.64660831458E+02  0.11645586007E+03  0.93843817979E+02 0.  0.
         23    2    1    2    0    0  0.25389135089E+01 -0.21745750722E+02  0.25055629625E+02  0.92828406074E+02  0.86660282956E+02 0.  0.
        -11    1    3    3    0    0  0.16403027151E+02 -0.24130572265E+02  0.58208777627E+01  0.29752755090E+02  0.00000000000E+00 0.  1.
         11    1    3    3    0    0 -0.15443445075E+02  0.48075535174E+02 -0.70481709221E+02  0.86703104978E+02  0.00000000000E+00 0. -1.
        -13    1    4    4    0    0 -0.41797499701E+02 -0.11702337471E+02  0.72506175074E+01  0.44006217035E+02  0.00000000000E+00 0. -1.
         13    1    4    4    0    0  0.44336413210E+02 -0.10043413251E+02  0.17805012118E+02  0.48822189039E+02  0.00000000000E+00 0.  1.
         21    1    1    2  502  503 -0.21266143277E+02  0.89991980914E+01  0.17244672339E+03  0.17398593858E+03  0.00000000000E+00 0. -1.
         21    1    1    2  503  501  0.17767647692E+02 -0.11198410279E+02 -0.21138126588E+02  0.29797887390E+02  0.00000000000E+00 0.  1.
<scales pt_clust_5="13000.00000" pt_clust_6="13000.00000" pt_clust_7="13000.00000" pt_clust_8="13000.00000" pt_clust_9="22.96448" pt_clust_10="21.00223"></scales>
<clustering>
<clus scale="   21.002">  2 10  1 -1</clus>
<clus scale="   22.964">  1  9  2 -1</clus>
<clus scale="   86.660">  7  8 -1 -1</clus>
<clus scale="   88.935">  1  7  2 -1</clus>
<clus scale="   93.844">  5  6 -1 -1</clus>
<clus scale="   22.964">  1  5  2 -1</clus>
</clustering>
</event>
<event>
10    2  0.1898324E-006  0.1201096E+03  0.7546771E-02  0.1243458E+00
          1   -1    0    0  502    0  0.00000000000E+00  0.00000000000E+00  0.31673174011E+03  0.31673174011E+03  0.00000000000E+00 0. -1.
         -1   -1    0    0    0  501 -0.00000000000E+00 -0.00000000000E+00 -0.98276066827E+02  0.98276066827E+02  0.00000000000E+00 0.  1.
         23    2    1    2    0    0 -0.54222847642E+02  0.45908982738E+02  0.12267639820E+02  0.11767438906E+03  0.93000080385E+02 0.  0.
         23    2    1    2    0    0  0.65682692415E+02 -0.77765195870E+02  0.13637323522E+03  0.19312109777E+03  0.91304202261E+02 0.  0.
        -13    1    3    3    0    0 -0.33003280872E+02 -0.17656838075E+02  0.30434597456E+02  0.48241529841E+02  0.00000000000E+00 0. -1.
         13    1    3    3    0    0 -0.21219566771E+02  0.63565820814E+02 -0.18166957636E+02  0.69432859220E+02  0.00000000000E+00 0.  1.
        -13    1    4    4    0    0  0.21410163884E+02 -0.37079898068E+02 -0.13563928495E+01  0.42838694656E+02  0.00000000000E+00 0.  1.
         13    1    4    4    0    0  0.44272528531E+02 -0.40685297802E+02  0.13772962807E+03  0.15028240312E+03  0.00000000000E+00 0. -1.
         21    1    1    2  502  503 -0.38852926440E+02  0.23433039357E+02  0.56906580208E+02  0.72780602481E+02  0.00000000000E+00 0.  1.
         21    1    1    2  503  501  0.27393081667E+02  0.84231737743E+01  0.12908218038E+02  0.31431717621E+02  0.00000000000E+00 0. -1.
<scales pt_clust_5="13000.00000" pt_clust_6="13000.00000" pt_clust_7="13000.00000" pt_clust_8="13000.00000" pt_clust_9="43.71028" pt_clust_10="28.65887"></scales>
<clustering>
<clus scale="   28.659">  2 10  1 -1</clus>
<clus scale="   43.710">  1  9  2 -1</clus>
<clus scale="   91.304">  7  8 -1 -1</clus>
<clus scale="   93.000">  5  6 -1 -1</clus>
<clus scale="  118.801">  1  7  2 -1</clus>
<clus scale="   43.710">  1  5  2 -1</clus>
</clustering>
</event>
<event>
10    2  0.1898324E-006  0.1002376E+03  0.7546771E-02  0.1284180E+00
          1   -1    0    0  502    0  0.00000000000E+00  0.00000000000E+00  0.18813987488E+03  0.18813987488E+03  0.00000000000E+00 0. -1.
         -1   -1    0    0    0  501 -0.00000000000E+00 -0.00000000000E+00 -0.99883255460E+02  0.99883255460E+02  0.00000000000E+00 0.  1.
         23    2    1    2    0    0 -0.42778207738E+02 -0.12327535209E+02  0.22050403865E+02  0.97725795162E+02  0.84155615070E+02 0.  0.
         23    2    1    2    0    0  0.26413374702E+02 -0.44534019476E+00  0.59542315311E+02  0.11342273525E+03  0.92852382134E+02 0.  0.
        -11    1    4    4    0    0  0.23167239967E+02 -0.34501766417E+02  0.66589500574E+02  0.78493658854E+02  0.00000000000E+00 0. -1.
         11    1    4    4    0    0  0.32461347352E+01  0.34056426222E+02 -0.70471852627E+01  0.34929076396E+02  0.00000000000E+00 0.  1.
        -13    1    3    3    0    0 -0.44988162038E+02  0.24258385608E+02 -0.61494791090E+01  0.51480288356E+02  0.00000000000E+00 0.  1.
         13    1    3    3    0    0  0.22099543000E+01 -0.36585920817E+02  0.28199882974E+02  0.46245506806E+02  0.00000000000E+00 0. -1.
         21    1    1    2  502  503  0.28719873639E+02 -0.39939885933E+01  0.32587918171E+02  0.43620585708E+02  0.00000000000E+00 0. -1.
         21    1    1    2  503  501 -0.12355040603E+02  0.16766863997E+02 -0.25924017925E+02  0.33254014223E+02  0.00000000000E+00 0.  1.
<scales pt_clust_5="13000.00000" pt_clust_6="13000.00000" pt_clust_7="13000.00000" pt_clust_8="13000.00000" pt_clust_9="27.87925" pt_clust_10="20.82726"></scales>
<clustering>
<clus scale="   20.827">  2 10  1 -1</clus>
<clus scale="   27.879">  1  9  2 -1</clus>
<clus scale="   84.156">  7  8 -1 -1</clus>
<clus scale="   92.240">  2  7  1 -1</clus>
<clus scale="   92.852">  5  6 -1 -1</clus>
<clus scale="   27.879">  1  5  2 -1</clus>
</clustering>
</event>
<event>
10    2  0.1898324E-006  0.1723631E+03  0.7546771E-02  0.1177367E+00
         -1   -1    0    0    0  501 -0.00000000000E+00  0.00000000000E+00  0.56417841642E+03  0.56417841642E+03  0.00000000000E+00 0.  1.
          1   -1    0    0  502    0  0.00000000000E+00 -0.00000000000E+00 -0.14440727212E+03  0.14440727212E+03  0.00000000000E+00 0. -1.
         23    2    1    2    0    0 -0.17390903055E+00 -0.14906166751E+03  0.32743775632E+03  0.37394854791E+03  0.10199324121E+03 0.  0.
         23    2    1    2    0    0  0.50797075640E+02  0.11121649077E+03 -0.47918869628E+02  0.15851170221E+03  0.88771002910E+02 0.  0.
        -13    1    4    4    0    0  0.34581772112E+02  0.56606203920E+01  0.10762305920E+02  0.36657452371E+02  0.00000000000E+00 0.  1.
         13    1    4    4    0    0  0.16215303528E+02  0.10555587038E+03 -0.58681175548E+02  0.12185424984E+03  0.00000000000E+00 0. -1.
        -13    1    3    3    0    0 -0.30959858969E+02 -0.37036394827E+02  0.36031521286E+02  0.60236848651E+02  0.00000000000E+00 0. -1.
         13    1    3    3    0    0  0.30785949939E+02 -0.11202527268E+03  0.29140623504E+03  0.31371169926E+03  0.00000000000E+00 0.  1.
         21    1    1    2  502  503 -0.20500895312E+02  0.28440451982E+02  0.28821912113E+01  0.35177450785E+02  0.00000000000E+00 0. -1.
         21    1    1    2  503  501 -0.30122271298E+02  0.94047247596E+01  0.13737006641E+03  0.14094798764E+03  0.00000000000E+00 0.  1.
<scales pt_clust_5="13000.00000" pt_clust_6="13000.00000" pt_clust_7="13000.00000" pt_clust_8="13000.00000" pt_clust_9="36.19935" pt_clust_10="31.55630"></scales>
<clustering>
<clus scale="   31.556">  1 10  2 -1</clus>
<clus scale="   36.199">  2  9  1 -1</clus>
<clus scale="   88.771">  5  6 -1 -1</clus>
<clus scale="  101.993">  7  8 -1 -1</clus>
<clus scale="  164.884">  2  5  1 -1</clus>
<clus scale="   36.199">  2  5  1 -1</clus>
</clustering>
</event>
<event>
10    2  0.1898324E-006  0.1131233E+03  0.7546771E-02  0.1255601E+00
          1   -1    0    0  502    0  0.00000000000E+00  0.00000000000E+00  0.13193237055E+03  0.13193237055E+03  0.00000000000E+00 0. -1.
         -1   -1    0    0    0  501 -0.00000000000E+00 -0.00000000000E+00 -0.24212850396E+03  0.24212850396E+03  0.00000000000E+00 0.  1.
         23    2    1    2    0    0 -0.38484702643E+02 -0.74490996690E+02 -0.11512326940E+03  0.16629502359E+03  0.85852704015E+02 0.  0.
         23    2    1    2    0    0 -0.11652416671E+02  0.59967657724E+02  0.50727921404E+02  0.11542166789E+03  0.83767181055E+02 0.  0.
        -11    1    4    4    0    0  0.18130802190E+02  0.20076678677E+02 -0.16561380459E+02  0.31718737955E+02  0.00000000000E+00 0.  1.
         11    1    4    4    0    0 -0.29783218861E+02  0.39890979047E+02  0.67289301863E+02  0.83702929938E+02  0.00000000000E+00 0. -1.
        -11    1    3    3    0    0 -0.16669332944E+02 -0.21894306124E+02  0.96356448168E+01  0.29156010572E+02  0.00000000000E+00 0. -1.
         11    1    3    3    0    0 -0.21815369699E+02 -0.52596690566E+02 -0.12475891422E+03  0.13713901302E+03  0.00000000000E+00 0.  1.
         21    1    1    2  502  503  0.18849192035E+02  0.18866581859E+02  0.97870710467E+01  0.28408215556E+02  0.00000000000E+00 0. -1.
         21    1    1    2  503  501  0.31287927279E+02 -0.43432428927E+01 -0.55587856454E+02  0.63935967478E+02  0.00000000000E+00 0.  1.
<scales pt_clust_5="13000.00000" pt_clust_6="13000.00000" pt_clust_7="13000.00000" pt_clust_8="13000.00000" pt_clust_9="26.66908" pt_clust_10="32.19227"></scales>
<clustering>
<clus scale="   26.669">  1  9  2 -1</clus>
<clus scale="   32.192">  2 10  1 -1</clus>
<clus scale="   83.767">  5  6 -1 -1</clus>
<clus scale="   85.853">  7  8 -1 -1</clus>
<clus scale="  111.549">  1  5  2 -1</clus>
<clus scale="   26.669">  1  5  2 -1</clus>
</clustering>
</event>
<event>
10    2  0.1898324E-006  0.9233262E+02  0.7546771E-02  0.1297606E+00
          4   -1    0    0  502    0  0.00000000000E+00  0.00000000000E+00  0.49042054696E+02  0.49042054696E+02  0.00000000000E+00 0. -1.
         -4   -1    0    0    0  501 -0.00000000000E+00 -0.00000000000E+00 -0.31911431241E+03  0.31911431241E+03  0.00000000000E+00 0.  1.
         23    2    1    2    0    0  0.80314875327E+01  0.16671552802E+02 -0.16003205905E+03  0.18493005416E+03  0.90809798711E+02 0.  0.
         23    2    1    2    0    0 -0.22767927171E+02  0.21735620453E+02 -0.69213480462E+02  0.11884470322E+03  0.91338611229E+02 0.  0.
        -13    1    4    4    0    0  0.16149311089E+02  0.34421921719E+02  0.47400503145E+00  0.38024907945E+02  0.00000000000E+00 0. -1.
         13    1    4    4    0    0 -0.38917238259E+02 -0.12686301266E+02 -0.69687485494E+02  0.80819795273E+02  0.00000000000E+00 0.  1.
        -13    1    3    3    0    0  0.37954259740E+02  0.51712372931E+01 -0.14415424715E+03  0.14915667769E+03  0.00000000000E+00 0.  1.
         13    1    3    3    0    0 -0.29922772207E+02  0.11500315509E+02 -0.15877811902E+02  0.35773376471E+02  0.00000000000E+00 0. -1.
         21    1    1    2  502  503  0.20149916976E+02 -0.13586384183E+02 -0.21722300136E+02  0.32595510619E+02  0.00000000000E+00 0.  1.
         21    1    1    2  503  501 -0.54134773386E+01 -0.24820789072E+02 -0.19104418064E+02  0.31786099110E+02  0.00000000000E+00 0. -1.
<scales pt_clust_5="13000.00000" pt_clust_6="13000.00000" pt_clust_7="13000.00000" pt_clust_8="13000.00000" pt_clust_9="24.30245" pt_clust_10="26.91127"></scales>
<clustering>
<clus scale="   24.302">  1  9  2 -1</clus>
<clus scale="   26.911">  1 10  2 -1</clus>
<clus scale="   90.810">  7  8 -1 -1</clus>
<clus scale="   91.339">  5  6 -1 -1</clus>
<clus scale="   91.810">  2  7  1 -1</clus>
<clus scale="   24.302">  1  5  2 -1</clus>
</clustering>
</event>
<event>
10    2  0.1898324E-006  0.1863721E+03  0.7546771E-02  0.1161852E+00
          1   -1    0    0  502    0  0.00000000000E+00  0.00000000000E+00  0.40810220630E+03  0.40810220630E+03  0.00000000000E+00 0. -1.
         -1   -1    0    0    0  501 -0.00000000000E+00 -0.00000000000E+00 -0.25049899808E+03  0.25049899808E+03  0.00000000000E+00 0.  1.
         23    2    1    2    0    0 -0.13802114610E+03 -0.63363651414E+02  0.59321279732E+02  0.18702716817E+03  0.91626187915E+02 0.  0.
         23    2    1    2    0    0  0.14909730095E+03  0.10617933757E+03  0.14844080556E+03  0.25309682413E+03  0.92299906564E+02 0.  0.
        -11    1    4    4    0    0  0.52571730922E+02  0.48490296369E+02  0.11562282976E+03  0.13595489876E+03  0.00000000000E+00 0. -1.
         11    1    4    4    0    0  0.96525570026E+02  0.57689041200E+02  0.32817975794E+02  0.11714192537E+03  0.00000000000E+00 0.  1.
        -13    1    3    3    0    0 -0.78647811498E+02 -0.12198972406E+02  0.72368916954E+02  0.10757115469E+03  0.00000000000E+00 0. -1.
         13    1    3    3    0    0 -0.59373334602E+02 -0.51164679008E+02 -0.13047637222E+02  0.79456013471E+02  0.00000000000E+00 0.  1.
         21    1    1    2  502  503 -0.36892435921E+02 -0.95923492968E+01  0.76251415428E+02  0.85248714641E+02  0.00000000000E+00 0. -1.
         21    1    1    2  503  501  0.25816281074E+02 -0.33223336859E+02 -0.12641029250E+03  0.13322849744E+03  0.00000000000E+00 0.  1.
<scales pt_clust_5="13000.00000" pt_clust_6="13000.00000" pt_clust_7="13000.00000" pt_clust_8="13000.00000" pt_clust_9="38.11909" pt_clust_10="41.91931"></scales>
<clustering>
<clus scale="   38.119">  1  9  2 -1</clus>
<clus scale="   41.919">  2 10  1 -1</clus>
<clus scale="   91.626">  7  8 -1 -1</clus>
<clus scale="   92.300">  5  6 -1 -1</clus>
<clus scale="  186.039">  2  7  1 -1</clus>
<clus scale="   38.119">  1  5  2 -1</clus>
</clustering>
</event>
<event>
10    2  0.1898324E-006  0.1028166E+03  0.7546771E-02  0.1275470E+00
         -1   -1    0    0    0  501 -0.00000000000E+00  0.00000000000E+00  0.43238530961E+02  0.43238530961E+02  0.00000000000E+00 0.  1.
          1   -1    0    0  502    0  0.00000000000E+00 -0.00000000000E+00 -0.83620991366E+03  0.83620991366E+03  0.00000000000E+00 0. -1.
         23    2    1    2    0    0  0.42325039952E+02  0.88883696492E+02 -0.17055747841E+03  0.21594128424E+03  0.88594945054E+02 0.  0.
         23    2    1    2    0    0 -0.99990923661E+01 -0.38040296706E+02 -0.41157221284E+03  0.42329784387E+03  0.90787291036E+02 0.  0.
        -11    1    3    3    0    0  0.14413934427E+02  0.83090581333E+02 -0.64640413529E+02  0.10625530233E+03  0.00000000000E+00 0.  1.
         11    1    3    3    0    0  0.27911105525E+02  0.57931151588E+01 -0.10591706488E+03  0.10968598191E+03  0.00000000000E+00 0. -1.
        -13    1    4    4    0    0  0.20300628790E+02  0.22858937326E+02 -0.11173739590E+03  0.11584425833E+03  0.00000000000E+00 0.  1.
         13    1    4    4    0    0 -0.30299721156E+02 -0.60899234032E+02 -0.29983481694E+03  0.30745358554E+03  0.00000000000E+00 0. -1.
         21    1    1    2  502  503  0.22155927144E+02  0.35114438802E+01 -0.11562017343E+03  0.11777622786E+03  0.00000000000E+00 0. -1.
         21    1    1    2  503  501 -0.54481874731E+02 -0.54354843666E+02 -0.95221518020E+02  0.12243308866E+03  0.00000000000E+00 0.  1.
<scales pt_clust_5="13000.00000" pt_clust_6="13000.00000" pt_clust_7="13000.00000" pt_clust_8="13000.00000" pt_clust_9="22.43246" pt_clust_10="74.23846"></scales>
<clustering>
<clus scale="   22.432">  2  9  1 -1</clus>
<clus scale="   74.238">  1 10  2 -1</clus>
<clus scale="   88.595">  5  6 -1 -1</clus>
<clus scale="   90.787">  7  8 -1 -1</clus>
<clus scale="  100.886">  1  5  2 -1</clus>
<clus scale="   22.432">  2  5  1 -1</clus>
</clustering>
</event>
<event>
10    2  0.1898324E-006  0.1639151E+03  0.7546771E-02  0.1207717E+00
         -1   -1    0    0    0  501 -0.00000000000E+00  0.00000000000E+00  0.36624245501E+03  0.36624245501E+03  0.00000000000E+00 0.  1.
          1   -1    0    0  502    0  0.00000000000E+00 -0.00000000000E+00 -0.16613384047E+03  0.16613384047E+03  0.00000000000E+00 0. -1.
         23    2    1    2    0    0  0.79705525173E+02 -0.12784459279E+03  0.16301431155E+03  0.23966904909E+03  0.90390135926E+02 0.  0.
         23    2    1    2    0    0  0.71654218934E+01  0.38612936902E+02 -0.45657733491E+02  0.10902183627E+03  0.90878105110E+02 0.  0.
        -11    1    3    3    0    0  0.28270553536E+02 -0.11341619246E+01  0.19208925065E+01  0.28358426412E+02  0.00000000000E+00 0. -1.
         11    1    3    3    0    0  0.51434971637E+02 -0.12671043087E+03  0.16109341905E+03  0.21131062268E+03  0.00000000000E+00 0.  1.
        -11    1    4    4    0    0 -0.24764383965E+02  0.25224199449E+02  0.15614515602E+02  0.38643861718E+02  0.00000000000E+00 0.  1.
         11    1    4    4    0    0  0.31929805858E+02  0.13388737452E+02 -0.61272249093E+02  0.70377974549E+02  0.00000000000E+00 0. -1.
         21    1    1    2  502  503 -0.62785869047E+02  0.10269853073E+03  0.29845933518E+02  0.12401545594E+03  0.00000000000E+00 0. -1.
         21    1    1    2  503  501 -0.24085078019E+02 -0.13466874836E+02  0.52906102961E+02  0.59669954178E+02  0.00000000000E+00 0.  1.
<scales pt_clust_5="13000.00000" pt_clust_6="13000.00000" pt_clust_7="13000.00000" pt_clust_8="13000.00000" pt_clust_9="136.73986" pt_clust_10="27.59434"></scales>
<clustering>
<clus scale="   27.594">  1 10  2 -1</clus>
<clus scale="   90.390">  5  6 -1 -1</clus>
<clus scale="   90.878">  7  8 -1 -1</clus>
<clus scale="   98.323">  2  7  1 -1</clus>
<clus scale="  136.740">  2  9  1 -1</clus>
<clus scale="   98.323">  2  5  1 -1</clus>
</clustering>
</event>
<event>
10    2  0.1898324E-006  0.9485931E+02  0.7546771E-02  0.1293875E+00
          2   -1    0    0  502    0  0.00000000000E+00  0.00000000000E+00  0.61367994744E+03  0.61367994744E+03  0.00000000000E+00 0. -1.
         -2   -1    0    0    0  501 -0.00000000000E+00 -0.00000000000E+00 -0.44159860295E+02  0.44159860295E+02  0.00000000000E+00 0.  1.
         23    2    1    2    0    0  0.25443240883E+02 -0.64507301133E+01  0.82977030740E+02  0.12631644859E+03  0.91551554488E+02 0.  0.
         23    2    1    2    0    0  0.25737608266E+02  0.49693451792E+02  0.15366158789E+03  0.18536577197E+03  0.87273834535E+02 0.  0.
        -11    1    3    3    0    0  0.52281764617E+02  0.14306971768E+02  0.73052439044E+02  0.90965549539E+02  0.00000000000E+00 0.  1.
         11    1    3    3    0    0 -0.26838523734E+02 -0.20757701882E+02  0.99245916953E+01  0.35350899054E+02  0.00000000000E+00 0. -1.
        -13    1    4    4    0    0  0.38521199367E+02  0.12646976756E+02  0.18368623650E+02  0.44511067798E+02  0.00000000000E+00 0.  1.
         13    1    4    4    0    0 -0.12783591101E+02  0.37046475036E+02  0.13529296424E+03  0.14085470417E+03  0.00000000000E+00 0. -1.
         21    1    1    2  502  503 -0.22310195560E+02 -0.40938170116E+02  0.29400474685E+03  0.29767846709E+03  0.00000000000E+00 0. -1.
         21    1    1    2  503  501 -0.28870653588E+02 -0.23045515623E+01  0.38876721659E+02  0.48479120077E+02  0.00000000000E+00 0.  1.
<scales pt_clust_5="13000.00000" pt_clust_6="13000.00000" pt_clust_7="13000.00000" pt_clust_8="13000.00000" pt_clust_9="47.37544" pt_clust_10="28.96249"></scales>
<clustering>
<clus scale="   28.962">  2 10  1 -1</clus>
<clus scale="   47.375">  1  9  2 -1</clus>
<clus scale="   87.274">  7  8 -1 -1</clus>
<clus scale="   90.738">  1  7  2 -1</clus>
<clus scale="   91.552">  5  6 -1 -1</clus>
<clus scale="   47.375">  1  5  2 -1</clus>
</clustering>
</event>
<event>
10    2  0.1898324E-006  0.1195942E+03  0.7546771E-02  0.1243782E+00
          1   -1    0    0  502    0  0.00000000000E+00  0.00000000000E+00  0.40435806749E+03  0.40435806749E+03  0.00000000000E+00 0. -1.
         -1   -1    0    0    0  501 -0.00000000000E+00 -0.00000000000E+00 -0.30483636739E+03  0.30483636739E+03  0.00000000000E+00 0.  1.
         23    2    1    2    0    0  0.30586965826E+02 -0.40598577239E+02 -0.92829555473E+02  0.13873255362E+03  0.89697202366E+02 0.  0.
         23    2    1    2    0    0 -0.59257363640E+02  0.88799947108E+02  0.33479068047E+03  0.36265598568E+03  0.89653212260E+02 0.  0.
        -11    1    4    4    0    0 -0.47015001917E+02  0.23443702743E+01  0.74657515595E+02  0.88259000176E+02  0.00000000000E+00 0.  1.
         11    1    4    4    0    0 -0.12242361723E+02  0.86455576834E+02  0.26013316487E+03  0.27439698550E+03  0.00000000000E+00 0. -1.
        -13    1    3    3    0    0 -0.17425921184E+02 -0.20935171716E+02 -0.81083146051E+02  0.85536078454E+02  0.00000000000E+00 0.  1.
         13    1    3    3    0    0  0.48012887009E+02 -0.19663405523E+02 -0.11746409423E+02  0.53196475166E+02  0.00000000000E+00 0. -1.
         21    1    1    2  502  503  0.30642060908E+02 -0.11612092408E+02  0.21911726886E+02  0.39419542893E+02  0.00000000000E+00 0. -1.
         21    1    1    2  503  501 -0.19716630935E+01 -0.36589277461E+02 -0.16435115178E+03  0.16838635269E+03  0.00000000000E+00 0.  1.
<scales pt_clust_5="13000.00000" pt_clust_6="13000.00000" pt_clust_7="13000.00000" pt_clust_8="13000.00000" pt_clust_9="32.76853" pt_clust_10="36.69645"></scales>
<clustering>
<clus scale="   32.769">  1  9  2 -1</clus>
<clus scale="   36.696">  2 10  1 -1</clus>
<clus scale="   89.653">  5  6 -1 -1</clus>
<clus scale="   89.697">  7  8 -1 -1</clus>
<clus scale="  119.561">  1  5  2 -1</clus>
<clus scale="   32.769">  1  5  2 -1</clus>
</clustering>
</event>
<event>
10    2  0.1898324E-006  0.1439392E+03  0.7546771E-02  0.1208264E+00
          2   -1    0    0  502    0  0.00000000000E+00  0.00000000000E+00  0.28869358121E+03  0.28869358121E+03  0.00000000000E+00 0. -1.
         -2   -1    0    0    0  501 -0.00000000000E+00 -0.00000000000E+00 -0.17873741777E+03  0.17873741777E+03  0.00000000000E+00 0.  1.
         23    2    1    2    0    0 -0.12043687191E+03  0.31640264025E+02  0.24577796090E+02  0.15637881189E+03  0.91346145639E+02 0.  0.
         23    2    1    2    0    0  0.97477773602E+02 -0.41831775321E+01  0.63561866982E+02  0.14758043664E+03  0.90666747072E+02 0.  0.
        -13    1    3    3    0    0 -0.10328956590E+03  0.61062254306E+02  0.23737265135E+02  0.12231431266E+03  0.00000000000E+00 0. -1.
         13    1    3    3    0    0 -0.17147306015E+02 -0.29421990281E+02  0.84053095467E+00  0.34064499232E+02  0.00000000000E+00 0.  1.
        -13    1    4    4    0    0  0.32285750875E+02  0.38101780447E+02  0.48245606109E+01  0.50173616253E+02  0.00000000000E+00 0.  1.
         13    1    4    4    0    0  0.65192022727E+02 -0.42284957980E+02  0.58737306371E+02  0.97406820389E+02  0.00000000000E+00 0. -1.
         21    1    1    2  502  503  0.24359416458E+02 -0.36876379279E+01  0.88919510629E+02  0.92269492326E+02  0.00000000000E+00 0.  1.
         21    1    1    2  503  501 -0.14003181457E+01 -0.23769448565E+02 -0.67103010262E+02  0.71202258126E+02  0.00000000000E+00 0. -1.
<scales pt_clust_5="13000.00000" pt_clust_6="13000.00000" pt_clust_7="13000.00000" pt_clust_8="13000.00000" pt_clust_9="24.67284" pt_clust_10="23.81066"></scales>
<clustering>
<clus scale="   23.811">  2 10  1 -1</clus>
<clus scale="   24.673">  1  9  2 -1</clus>
<clus scale="   90.667">  7  8 -1 -1</clus>
<clus scale="   91.346">  5  6 -1 -1</clus>
<clus scale="  143.509">  1  7  2 -1</clus>
<clus scale="   24.673">  1  5  2 -1</clus>
</clustering>
</event>
<event>
10    2  0.1898324E-006  0.2483236E+03  0.7546771E-02  0.1144438E+00
          2   -1    0    0  502    0  0.00000000000E+00  0.00000000000E+00  0.26532035968E+03  0.26532035968E+03  0.00000000000E+00 0. -1.
         -2   -1    0    0    0  501 -0.00000000000E+00 -0.00000000000E+00 -0.81982568861E+03  0.81982568861E+03  0.00000000000E+00 0.  1.
         23    2    1    2    0    0  0.21916867510E+03  0.11970974809E+03 -0.46153087028E+03  0.53323063345E+03  0.94651108274E+02 0.  0.
         23    2    1    2    0    0 -0.82689649988E+02  0.27715791439E+01  0.71479637453E+02  0.13711127029E+03  0.82733922936E+02 0.  0.
        -13    1    4    4    0    0 -0.45768161386E+02 -0.29717677917E+02  0.68859628813E+02  0.87860761764E+02  0.00000000000E+00 0. -1.
         13    1    4    4    0    0 -0.36921488601E+02  0.32489257061E+02  0.26200086398E+01  0.49250508527E+02  0.00000000000E+00 0.  1.
        -13    1    3    3    0    0  0.10886052266E+03  0.95332483261E+02 -0.32681336142E+03  0.35741554102E+03  0.00000000000E+00 0. -1.
         13    1    3    3    0    0  0.11030815243E+03  0.24377264828E+02 -0.13471750887E+03  0.17581509244E+03  0.00000000000E+00 0.  1.
         21    1    1    2  502  503 -0.98389226417E+02 -0.16674905513E+03  0.43810165048E+02  0.19850697172E+03  0.00000000000E+00 0. -1.
         21    1    1    2  503  501 -0.38089798692E+02  0.44267727897E+02 -0.20826426115E+03  0.21629717282E+03  0.00000000000E+00 0.  1.
<scales pt_clust_5="13000.00000" pt_clust_6="13000.00000" pt_clust_7="13000.00000" pt_clust_8="13000.00000" pt_clust_9="229.57738" pt_clust_10="58.39918"></scales>
<clustering>
<clus scale="   58.399">  2 10  1 -1</clus>
<clus scale="   82.734">  5  6 -1 -1</clus>
<clus scale="   94.651">  7  8 -1 -1</clus>
<clus scale="  118.548">  1  5  2 -1</clus>
<clus scale="  229.577">  1  9  2 -1</clus>
<clus scale="  118.548">  1  5  2 -1</clus>
</clustering>
</event>
<event>
10    2  0.1898324E-006  0.9810692E+02  0.7546771E-02  0.1284590E+00
          2   -1    0    0  502    0  0.00000000000E+00  0.00000000000E+00  0.15931601281E+03  0.15931601281E+03  0.00000000000E+00 0. -1.
         -2   -1    0    0    0  501 -0.00000000000E+00 -0.00000000000E+00 -0.34834818611E+03  0.34834818611E+03  0.00000000000E+00 0.  1.
         23    2    1    2    0    0  0.90509628794E+01  0.52163985574E+02 -0.20956773933E+02  0.10749273168E+03  0.91172910831E+02 0.  0.
         23    2    1    2    0    0  0.29214237709E+02 -0.39419664869E+02  0.35586651343E+02  0.10991364119E+03  0.91690877968E+02 0.  0.
        -13    1    3    3    0    0  0.24251088448E+02  0.68276750087E+01  0.28949019604E+02  0.38376792114E+02  0.00000000000E+00 0. -1.
         13    1    3    3    0    0 -0.15200125568E+02  0.45336310565E+02 -0.49905793537E+02  0.69115939561E+02  0.00000000000E+00 0.  1.
        -13    1    4    4    0    0  0.51843856171E+02  0.67813902417E+01  0.21837366141E+02  0.56662538209E+02  0.00000000000E+00 0.  1.
         13    1    4    4    0    0 -0.22629618462E+02 -0.46201055110E+02  0.13749285202E+02  0.53251102981E+02  0.00000000000E+00 0. -1.
         21    1    1    2  502  503 -0.35902497418E+02  0.36771003977E+02  0.24386223740E+02  0.56883951714E+02  0.00000000000E+00 0.  1.
         21    1    1    2  503  501 -0.23627031699E+01 -0.49515324682E+02 -0.22804827446E+03  0.23337387435E+03  0.00000000000E+00 0.  1.
<scales pt_clust_5="13000.00000" pt_clust_6="13000.00000" pt_clust_7="13000.00000" pt_clust_8="13000.00000" pt_clust_9="46.99394" pt_clust_10="49.57166"></scales>
<clustering>
<clus scale="   49.572">  2 10  1 -1</clus>
<clus scale="   46.994">  1  9  2 -1</clus>
<clus scale="   91.173">  5  6 -1 -1</clus>
<clus scale="   91.691">  7  8 -1 -1</clus>
<clus scale="   97.623">  2  5  1 -1</clus>
<clus scale="   46.994">  1  5  2 -1</clus>
</clustering>
</event>
<event>
10    2  0.1898324E-006  0.1142226E+03  0.7546771E-02  0.1255737E+00
         -1   -1    0    0    0  501 -0.00000000000E+00  0.00000000000E+00  0.20102612590E+03  0.20102612590E+03  0.00000000000E+00 0.  1.
          1   -1    0    0  502    0  0.00000000000E+00 -0.00000000000E+00 -0.33504448230E+03  0.33504448230E+03  0.00000000000E+00 0. -1.
         23    2    1    2    0    0 -0.68980738512E+02  0.85312720010E+02 -0.31500121138E+02  0.14673515224E+03  0.92208160103E+02 0.  0.
         23    2    1    2    0    0  0.66759578119E+02  0.28147512048E+02 -0.19793506821E+03  0.22707123403E+03  0.84462597579E+02 0.  0.
        -13    1    4    4    0    0  0.36939704283E+02  0.40010274223E+02 -0.18434459850E+03  0.19221939234E+03  0.00000000000E+00 0. -1.
         13    1    4    4    0    0  0.29819873837E+02 -0.11862762176E+02 -0.13590469715E+02  0.34851841690E+02  0.00000000000E+00 0.  1.
        -13    1    3    3    0    0 -0.59254909573E+02  0.17117727632E+02 -0.45243237931E+02  0.76492558371E+02  0.00000000000E+00 0.  1.
         13    1    3    3    0    0 -0.97258289392E+01  0.68194992378E+02  0.13743116792E+02  0.70242593867E+02  0.00000000000E+00 0. -1.
         21    1    1    2  502  503  0.93919622684E+01 -0.69278601617E+02  0.94429901898E+02  0.11749357416E+03  0.00000000000E+00 0.  1.
         21    1    1    2  503  501 -0.71708018761E+01 -0.44181630441E+02  0.98693105416E+00  0.44770647760E+02  0.00000000000E+00 0.  1.
<scales pt_clust_5="13000.00000" pt_clust_6="13000.00000" pt_clust_7="13000.00000" pt_clust_8="13000.00000" pt_clust_9="95.69519" pt_clust_10="44.75977"></scales>
<clustering>
<clus scale="   44.760">  1 10  2 -1</clus>
<clus scale="   84.463">  5  6 -1 -1</clus>
<clus scale="   92.208">  7  8 -1 -1</clus>
<clus scale="   95.695">  1  9  2 -1</clus>
<clus scale="  108.067">  2  5  1 -1</clus>
<clus scale="  108.067">  2  5  1 -1</clus>
</clustering>
</event>
<event>
10    2  0.1898324E-006  0.1734951E+03  0.7546771E-02  0.1174702E+00
         -1   -1    0    0    0  501 -0.00000000000E+00  0.00000000000E+00  0.10134408691E+03  0.10134408691E+03  0.00000000000E+00 0.  1.
          1   -1    0    0  502    0  0.00000000000E+00 -0.00000000000E+00 -0.10667125057E+04  0.10667125057E+04  0.00000000000E+00 0. -1.
         23    2    1    2    0    0  0.33703081589E+02  0.15460111922E+03 -0.22690031652E+02  0.18328156828E+03  0.89665444644E+02 0.  0.
         23    2    1    2    0    0  0.44781350604E+02 -0.14641460819E+03 -0.75182081702E+03  0.77286907011E+03  0.93002428875E+02 0.  0.
        -11    1    3    3    0    0  0.25716225433E+02  0.81989533366E+02 -0.56446533372E+02  0.10280962485E+03  0.00000000000E+00 0.  1.
         11    1    3    3    0    0  0.79868561563E+01  0.72611585851E+02  0.33756501720E+02  0.80471943430E+02  0.00000000000E+00 0. -1.
        -13    1    4    4    0    0  0.47026146281E+02 -0.17537161989E+02 -0.20213794617E+03  0.20827568213E+03  0.00000000000E+00 0.  1.
         13    1    4    4    0    0 -0.22447956761E+01 -0.12887744620E+03 -0.54968287086E+03  0.56459338799E+03  0.00000000000E+00 0. -1.
         21    1    1    2  502  503 -0.33700709890E+02  0.20187962291E+01 -0.13711123286E+03  0.14120659886E+03  0.00000000000E+00 0. -1.
         21    1    1    2  503  501 -0.44783722304E+02 -0.10205307255E+02 -0.53746337290E+02  0.70699355383E+02  0.00000000000E+00 0. -1.
<scales pt_clust_5="13000.00000" pt_clust_6="13000.00000" pt_clust_7="13000.00000" pt_clust_8="13000.00000" pt_clust_9="33.76112" pt_clust_10="48.11012"></scales>
<clustering>
<clus scale="   33.761">  2  9  1 -1</clus>
<clus scale="   48.110">  1 10  2 -1</clus>
<clus scale="   89.665">  5  6 -1 -1</clus>
<clus scale="   93.002">  7  8 -1 -1</clus>
<clus scale="  171.729">  1  5  2 -1</clus>
<clus scale="   33.761">  2  5  1 -1</clus>
</clustering>
</event>
<event>
10    2  0.1898324E-006  0.1015435E+03  0.7546771E-02  0.1279829E+00
          2   -1    0    0  502    0  0.00000000000E+00  0.00000000000E+00  0.41845010669E+03  0.41845010669E+03  0.00000000000E+00 0. -1.
         -2   -1    0    0    0  501 -0.00000000000E+00 -0.00000000000E+00 -0.15897971709E+03  0.15897971709E+03  0.00000000000E+00 0.  1.
         23    2    1    2    0    0  0.59075352039E+02 -0.19804024269E+01  0.34670176623E+02  0.11102663739E+03  0.87356017825E+02 0.  0.
         23    2    1    2    0    0  0.25001331348E+01 -0.41149662661E+02  0.92340888030E+02  0.14010401980E+03  0.96967785165E+02 0.  0.
        -11    1    4    4    0    0  0.15080201903E+02  0.27430122160E+02  0.11497710312E+02  0.33346985375E+02  0.00000000000E+00 0. -1.
         11    1    4    4    0    0 -0.12580068768E+02 -0.68579784821E+02  0.80843177717E+02  0.10675703443E+03  0.00000000000E+00 0.  1.
        -13    1    3    3    0    0 -0.13739951745E+02 -0.23204723653E+02 -0.14768590981E+01  0.27007898596E+02  0.00000000000E+00 0.  1.
         13    1    3    3    0    0  0.72815303784E+02  0.21224321226E+02  0.36147035721E+02  0.84018738791E+02  0.00000000000E+00 0. -1.
         21    1    1    2  502  503  0.25356979033E+02 -0.48347144561E+01  0.20291734628E+03  0.20455268336E+03  0.00000000000E+00 0. -1.
         21    1    1    2  503  501 -0.86932464206E+02  0.47964779544E+02 -0.70458021330E+02  0.12174648323E+03  0.00000000000E+00 0.  1.
<scales pt_clust_5="13000.00000" pt_clust_6="13000.00000" pt_clust_7="13000.00000" pt_clust_8="13000.00000" pt_clust_9="25.81377" pt_clust_10="96.36099"></scales>
<clustering>
<clus scale="   25.814">  1  9  2 -1</clus>
<clus scale="   87.356">  7  8 -1 -1</clus>
<clus scale="   96.361">  2 10  1 -1</clus>
<clus scale="   96.361">  2  7  1 -1</clus>
<clus scale="   96.968">  5  6 -1 -1</clus>
<clus scale="   25.814">  1  5  2 -1</clus>
</clustering>
</event>
<event>
10    2  0.1898324E-006  0.2105924E+03  0.7546771E-02  0.1141243E+00
          3   -1    0    0  502    0  0.00000000000E+00  0.00000000000E+00  0.20060332826E+03  0.20060332826E+03  0.00000000000E+00 0. -1.
         -3   -1    0    0    0  501 -0.00000000000E+00 -0.00000000000E+00 -0.96769821419E+03  0.96769821419E+03  0.00000000000E+00 0.  1.
         23    2    1    2    0    0 -0.12725318668E+03  0.34838164646E+02 -0.30681192829E+03  0.34578404397E+03  0.89587803238E+02 0.  0.
         23    2    1    2    0    0  0.27363120361E+03 -0.87533412417E+02 -0.53125846136E+03  0.61082460473E+03  0.91296281948E+02 0.  0.
        -11    1    4    4    0    0  0.47853731720E+02 -0.52492611128E+02 -0.15725413621E+03  0.17255236080E+03  0.00000000000E+00 0. -1.
         11    1    4    4    0    0  0.22577747189E+03 -0.35040801289E+02 -0.37400432515E+03  0.43827224393E+03  0.00000000000E+00 0.  1.
        -13    1    3    3    0    0 -0.38344837913E+02 -0.30617346295E+02 -0.93240592334E+02  0.10536392432E+03  0.00000000000E+00 0.  1.
         13    1    3    3    0    0 -0.88908348770E+02  0.65455510942E+02 -0.21357133595E+03  0.24042011965E+03  0.00000000000E+00 0. -1.
         21    1    1    2  502  503 -0.12587076647E+03  0.52282834929E+02  0.10493989223E+03  0.17201548087E+03  0.00000000000E+00 0. -1.
         21    1    1    2  503  501 -0.20507250454E+02  0.41241284132E+00 -0.33964388513E+02  0.39677412877E+02  0.00000000000E+00 0.  1.
<scales pt_clust_5="13000.00000" pt_clust_6="13000.00000" pt_clust_7="13000.00000" pt_clust_8="13000.00000" pt_clust_9="136.98555" pt_clust_10="20.51140"></scales>
<clustering>
<clus scale="   20.511">  2 10  1 -1</clus>
<clus scale="   89.588">  7  8 -1 -1</clus>
<clus scale="   91.296">  5  6 -1 -1</clus>
<clus scale="  136.986">  1  9  2 -1</clus>
<clus scale="  209.857">  2  7  1 -1</clus>
<clus scale="  136.986">  1  5  2 -1</clus>
</clustering>
</event>
<event>
10    2  0.1898324E-006  0.2330721E+03  0.7546771E-02  0.1124924E+00
         -2   -1    0    0    0  501 -0.00000000000E+00  0.00000000000E+00  0.10345413549E+03  0.10345413549E+03  0.00000000000E+00 0.  1.
          2   -1    0    0  502    0  0.00000000000E+00 -0.00000000000E+00 -0.86793846646E+03  0.86793846646E+03  0.00000000000E+00 0. -1.
         23    2    1    2    0    0 -0.21092702342E+03  0.50923770228E+01 -0.12923851882E+03  0.26217200020E+03  0.86691530296E+02 0.  0.
         23    2    1    2    0    0  0.19986014864E+03 -0.33796772723E+02 -0.48625547818E+03  0.53496507529E+03  0.93042682972E+02 0.  0.
        -13    1    3    3    0    0 -0.13962575140E+03  0.38758778977E+02 -0.58591601788E+02  0.15630281252E+03  0.00000000000E+00 0.  1.
         13    1    3    3    0    0 -0.71301272029E+02 -0.33666401954E+02 -0.70646917035E+02  0.10586918768E+03  0.00000000000E+00 0. -1.
        -13    1    4    4    0    0  0.18311996709E+03 -0.56648627918E+02 -0.38890749210E+03  0.43357932009E+03  0.00000000000E+00 0. -1.
         13    1    4    4    0    0  0.16740181550E+02  0.22851855196E+02 -0.97347986079E+02  0.10138575520E+03  0.00000000000E+00 0.  1.
         21    1    1    2  502  503  0.21701019596E+02 -0.62488271705E+01 -0.13208006646E+03  0.13399673895E+03  0.00000000000E+00 0. -1.
         21    1    1    2  503  501 -0.10634144811E+02  0.34953222870E+02 -0.16910267497E+02  0.40258787509E+02  0.00000000000E+00 0.  1.
<scales pt_clust_5="13000.00000" pt_clust_6="13000.00000" pt_clust_7="13000.00000" pt_clust_8="13000.00000" pt_clust_9="22.58278" pt_clust_10="36.06440"></scales>
<clustering>
<clus scale="   22.583">  2  9  1 -1</clus>
<clus scale="   36.064">  1 10  2 -1</clus>
<clus scale="   86.692">  5  6 -1 -1</clus>
<clus scale="   93.043">  7  8 -1 -1</clus>
<clus scale="  230.610">  1  5  2 -1</clus>
<clus scale="   22.583">  2  5  1 -1</clus>
</clustering>
</event>
<event>
10    2  0.1898324E-006  0.9921835E+02  0.7546771E-02  0.1282815E+00
         -1   -1    0    0    0  501 -0.00000000000E+00  0.00000000000E+00  0.98562159680E+02  0.98562159680E+02  0.00000000000E+00 0.  1.
          1   -1    0    0  502    0  0.00000000000E+00 -0.00000000000E+00 -0.40458809757E+03  0.40458809757E+03  0.00000000000E+00 0. -1.
         23    2    1    2    0    0  0.31881510656E+02 -0.13020268917E+02 -0.31880312924E+02  0.10391732865E+03  0.92717305377E+02 0.  0.
         23    2    1    2    0    0  0.14775730174E+02 -0.76171576930E+02 -0.52991106250E+02  0.13320318042E+03  0.94417152040E+02 0.  0.
        -13    1    4    4    0    0 -0.28367621654E+02 -0.49746423757E+02  0.34943586896E+01  0.57372808695E+02  0.00000000000E+00 0.  1.
         13    1    4    4    0    0  0.43143351828E+02 -0.26425153173E+02 -0.56485464940E+02  0.75830371729E+02  0.00000000000E+00 0. -1.
        -13    1    3    3    0    0 -0.19034142514E+02 -0.20813889998E+02  0.16979460176E+02  0.32921401336E+02  0.00000000000E+00 0.  1.
         13    1    3    3    0    0  0.50915653170E+02  0.77936210805E+01 -0.48859773099E+02  0.70995927310E+02  0.00000000000E+00 0. -1.
         21    1    1    2  502  503 -0.61531902866E+02  0.59278133300E+02 -0.21592542465E+03  0.23221511830E+03  0.00000000000E+00 0. -1.
         21    1    1    2  503  501  0.14874662035E+02  0.29913712548E+02 -0.52290940678E+01  0.33814629879E+02  0.00000000000E+00 0.  1.
<scales pt_clust_5="13000.00000" pt_clust_6="13000.00000" pt_clust_7="13000.00000" pt_clust_8="13000.00000" pt_clust_9="86.46587" pt_clust_10="33.40787"></scales>
<clustering>
<clus scale="   33.408">  1 10  2 -1</clus>
<clus scale="   86.466">  2  9  1 -1</clus>
<clus scale="   92.717">  7  8 -1 -1</clus>
<clus scale="   94.417">  5  6 -1 -1</clus>
<clus scale="   97.602">  1  7  2 -1</clus>
<clus scale="   86.466">  2  5  1 -1</clus>
</clustering>
</event>
<event>
10    2  0.1898324E-006  0.1481584E+03  0.7546771E-02  0.1202808E+00
         -1   -1    0    0    0  501 -0.00000000000E+00  0.00000000000E+00  0.15872913470E+03  0.15872913470E+03  0.00000000000E+00 0.  1.
          1   -1    0    0  502    0  0.00000000000E+00 -0.00000000000E+00 -0.10574347663E+04  0.10574347663E+04  0.00000000000E+00 0. -1.
         23    2    1    2    0    0 -0.15839063043E+03  0.84252741618E+02 -0.54421067203E+01  0.20036628952E+03  0.89055697023E+02 0.  0.
         23    2    1    2    0    0  0.23270923959E+02 -0.79009834910E+02 -0.39910100969E+03  0.41706869779E+03  0.88772703172E+02 0.  0.
        -11    1    4    4    0    0  0.46822558762E+02 -0.12709191636E+02 -0.12510864441E+03  0.13418661806E+03  0.00000000000E+00 0.  1.
         11    1    4    4    0    0 -0.23551634803E+02 -0.66300643274E+02 -0.27399236528E+03  0.28288207973E+03  0.00000000000E+00 0. -1.
        -13    1    3    3    0    0 -0.29366823760E+02  0.13863518162E+02 -0.37837835913E+02  0.49862905051E+02  0.00000000000E+00 0. -1.
         13    1    3    3    0    0 -0.12902380667E+03  0.70389223456E+02  0.32395729193E+02  0.15050338447E+03  0.00000000000E+00 0.  1.
         21    1    1    2  502  503  0.65024896450E+02 -0.61654544433E+01 -0.51994914372E+03  0.52403564960E+03  0.00000000000E+00 0. -1.
         21    1    1    2  503  501  0.70094810021E+02  0.92254773518E+00  0.25786628556E+02  0.74693264077E+02  0.00000000000E+00 0. -1.
<scales pt_clust_5="13000.00000" pt_clust_6="13000.00000" pt_clust_7="13000.00000" pt_clust_8="13000.00000" pt_clust_9="65.31654" pt_clust_10="73.06727"></scales>
<clustering>
<clus scale="   65.317">  2  9  1 -1</clus>
<clus scale="   73.067">  1 10  2 -1</clus>
<clus scale="   88.773">  5  6 -1 -1</clus>
<clus scale="   89.056">  7  8 -1 -1</clus>
<clus scale="  147.988">  2  5  1 -1</clus>
<clus scale="   65.317">  2  5  1 -1</clus>
</clustering>
</event>
<event>
10    2  0.1898324E-006  0.9374587E+02  0.7546771E-02  0.1298100E+00
          2   -1    0    0  502    0  0.00000000000E+00  0.00000000000E+00  0.19594709566E+03  0.19594709566E+03  0.00000000000E+00 0. -1.
         -2   -1    0    0    0  501 -0.00000000000E+00 -0.00000000000E+00 -0.16912444434E+03  0.16912444434E+03  0.00000000000E+00 0.  1.
         23    2    1    2    0    0  0.63211469884E+01 -0.54663768182E+01 -0.72296858983E+02  0.11813578440E+03  0.93055841099E+02 0.  0.
         23    2    1    2    0    0  0.88875616023E+01  0.19650830455E+02  0.83543254299E+02  0.12194775192E+03  0.86177926235E+02 0.  0.
        -11    1    4    4    0    0  0.38102287574E+01  0.48506499190E+02  0.21221574728E+02  0.53082516338E+02  0.00000000000E+00 0.  1.
         11    1    4    4    0    0  0.50773328450E+01 -0.28855668734E+02  0.62321679571E+02  0.68865235580E+02  0.00000000000E+00 0. -1.
        -13    1    3    3    0    0 -0.38069127041E+02  0.30958942310E+01 -0.71796793587E+01  0.38863746480E+02  0.00000000000E+00 0.  1.
         13    1    3    3    0    0  0.44390274030E+02 -0.85622710492E+01 -0.65117179624E+02  0.79272037921E+02  0.00000000000E+00 0. -1.
         21    1    1    2  502  503 -0.17276715589E+02 -0.48630178038E+02  0.53073992539E+02  0.74028560716E+02  0.00000000000E+00 0. -1.
         21    1    1    2  503  501  0.20680069987E+01  0.34445724401E+02 -0.37497736535E+02  0.50959442969E+02  0.00000000000E+00 0.  1.
<scales pt_clust_5="13000.00000" pt_clust_6="13000.00000" pt_clust_7="13000.00000" pt_clust_8="13000.00000" pt_clust_9="48.83362" pt_clust_10="34.50775"></scales>
<clustering>
<clus scale="   34.508">  2 10  1 -1</clus>
<clus scale="   48.834">  1  9  2 -1</clus>
<clus scale="   86.178">  5  6 -1 -1</clus>
<clus scale="   86.923">  1  5  2 -1</clus>
<clus scale="   93.056">  7  8 -1 -1</clus>
<clus scale="   48.834">  1  5  2 -1</clus>
</clustering>
</event>
<event>
10    2  0.1898324E-006  0.9344228E+02  0.7546771E-02  0.1297952E+00
          2   -1    0    0  502    0  0.00000000000E+00  0.00000000000E+00  0.16435634127E+03  0.16435634127E+03  0.00000000000E+00 0. -1.
         -2   -1    0    0    0  501 -0.00000000000E+00 -0.00000000000E+00 -0.18539346506E+03  0.18539346506E+03  0.00000000000E+00 0.  1.
         23    2    1    2    0    0 -0.15595509741E+02 -0.10903046979E+02  0.36424183056E+02  0.10195364644E+03  0.93304493749E+02 0.  0.
         23    2    1    2    0    0 -0.22712520410E+02 -0.16558840906E+02  0.35841944365E+02  0.98970257438E+02  0.87865881239E+02 0.  0.
        -13    1    3    3    0    0  0.33846036798E+02  0.14662372244E+02  0.29504682407E+01  0.37003305658E+02  0.00000000000E+00 0.  1.
         13    1    3    3    0    0 -0.49441546539E+02 -0.25565419223E+02  0.33473714815E+02  0.64950340783E+02  0.00000000000E+00 0. -1.
        -13    1    4    4    0    0  0.22396173269E+02 -0.16359809961E+02 -0.14564617744E+02  0.31326666741E+02  0.00000000000E+00 0.  1.
         13    1    4    4    0    0 -0.45108693679E+02 -0.19903094455E+00  0.50406562108E+02  0.67643590697E+02  0.00000000000E+00 0. -1.
         21    1    1    2  502  503  0.19813092937E+02  0.14235063766E+02  0.21056939356E+02  0.32227168464E+02  0.00000000000E+00 0.  1.
         21    1    1    2  503  501  0.18494937214E+02  0.13226824119E+02 -0.11436019057E+03  0.11659873398E+03  0.00000000000E+00 0.  1.
<scales pt_clust_5="13000.00000" pt_clust_6="13000.00000" pt_clust_7="13000.00000" pt_clust_8="13000.00000" pt_clust_9="26.21306" pt_clust_10="22.73789"></scales>
<clustering>
<clus scale="   22.738">  2 10  1 -1</clus>
<clus scale="   26.213">  1  9  2 -1</clus>
<clus scale="   87.866">  7  8 -1 -1</clus>
<clus scale="   88.012">  1  7  2 -1</clus>
<clus scale="   93.304">  5  6 -1 -1</clus>
<clus scale="   26.213">  1  5  2 -1</clus>
</clustering>
</event>
<event>
10    2  0.1898324E-006  0.1005459E+03  0.7546771E-02  0.1279818E+00
         -1   -1    0    0    0  501 -0.00000000000E+00  0.00000000000E+00  0.22422946700E+03  0.22422946700E+03  0.00000000000E+00 0.  1.
          1   -1    0    0  502    0  0.00000000000E+00 -0.00000000000E+00 -0.30486759310E+03  0.30486759310E+03  0.00000000000E+00 0. -1.
         23    2    1    2    0    0  0.10529774358E+02  0.26977437606E+00  0.11948405798E+02  0.91758106157E+02  0.90365019329E+02 0.  0.
         23    2    1    2    0    0 -0.29113692922E+02  0.50369881565E+02 -0.21804114246E+03  0.24360959119E+03  0.91754896493E+02 0.  0.
        -11    1    4    4    0    0 -0.46589157956E+02  0.63409233515E+02 -0.20126296437E+03  0.21609734233E+03  0.00000000000E+00 0. -1.
         11    1    4    4    0    0  0.17475465035E+02 -0.13039351950E+02 -0.16778178089E+02  0.27512248862E+02  0.00000000000E+00 0.  1.
        -13    1    3    3    0    0  0.47895985013E+02  0.15722329972E+02  0.41816347342E+01  0.50583624911E+02  0.00000000000E+00 0. -1.
         13    1    3    3    0    0 -0.37366210655E+02 -0.15452555596E+02  0.77667710633E+01  0.41174481246E+02  0.00000000000E+00 0.  1.
         21    1    1    2  502  503 -0.89283551691E+01 -0.18688601161E+02 -0.27864050267E+02  0.34718649695E+02  0.00000000000E+00 0. -1.
         21    1    1    2  503  501  0.27512273733E+02 -0.31951054780E+02  0.15331866083E+03  0.15901071305E+03  0.00000000000E+00 0.  1.
<scales pt_clust_5="13000.00000" pt_clust_6="13000.00000" pt_clust_7="13000.00000" pt_clust_8="13000.00000" pt_clust_9="20.71182" pt_clust_10="42.25109"></scales>
<clustering>
<clus scale="   20.712">  2  9  1 -1</clus>
<clus scale="   42.251">  1 10  2 -1</clus>
<clus scale="   90.365">  7  8 -1 -1</clus>
<clus scale="   91.755">  5  6 -1 -1</clus>
<clus scale="   99.279">  1  7  2 -1</clus>
<clus scale="   20.712">  2  5  1 -1</clus>
</clustering>
</event>
<event>
10    2  0.1898324E-006  0.1498187E+03  0.7546771E-02  0.1204348E+00
         -1   -1    0    0    0  501 -0.00000000000E+00  0.00000000000E+00  0.49344211979E+02  0.49344211979E+02  0.00000000000E+00 0.  1.
          1   -1    0    0  502    0  0.00000000000E+00 -0.00000000000E+00 -0.11512495689E+04  0.11512495689E+04  0.00000000000E+00 0. -1.
         23    2    1    2    0    0 -0.42454222118E+02 -0.72006384370E+02 -0.23310951594E+03  0.26504776887E+03  0.94461595366E+02 0.  0.
         23    2    1    2    0    0  0.25950126724E+02  0.17876304592E+03 -0.47799788275E+03  0.51648358717E+03  0.75124458278E+02 0.  0.
        -11    1    4    4    0    0  0.48632207709E+02  0.15496230951E+03 -0.40843327411E+03  0.43954083815E+03  0.00000000000E+00 0.  1.
         11    1    4    4    0    0 -0.22682080985E+02  0.23800736411E+02 -0.69564608641E+02  0.76942749021E+02  0.00000000000E+00 0. -1.
        -13    1    3    3    0    0  0.10418876836E+02 -0.40241501916E+02 -0.26190947447E+02  0.49131427815E+02  0.00000000000E+00 0.  1.
         13    1    3    3    0    0 -0.52873098953E+02 -0.31764882454E+02 -0.20691856849E+03  0.21591634106E+03  0.00000000000E+00 0. -1.
         21    1    1    2  502  503 -0.43364645589E+01 -0.93147926500E+02 -0.38111178741E+03  0.39235383984E+03  0.00000000000E+00 0. -1.
         21    1    1    2  503  501  0.20840559953E+02 -0.13608735053E+02 -0.96861708680E+01  0.26708585043E+02  0.00000000000E+00 0. -1.
<scales pt_clust_5="13000.00000" pt_clust_6="13000.00000" pt_clust_7="13000.00000" pt_clust_8="13000.00000" pt_clust_9="95.03262" pt_clust_10="24.89029"></scales>
<clustering>
<clus scale="   24.890">  1 10  2 -1</clus>
<clus scale="   75.124">  5  6 -1 -1</clus>
<clus scale="   94.462">  7  8 -1 -1</clus>
<clus scale="   95.033">  2  9  1 -1</clus>
<clus scale="  138.443">  2  5  1 -1</clus>
<clus scale="   95.033">  2  5  1 -1</clus>
</clustering>
</event>
<event>
10    2  0.1898324E-006  0.2235246E+03  0.7546771E-02  0.1162614E+00
          1   -1    0    0  502    0  0.00000000000E+00  0.00000000000E+00  0.26324008585E+03  0.26324008585E+03  0.00000000000E+00 0. -1.
         -1   -1    0    0    0  501 -0.00000000000E+00 -0.00000000000E+00 -0.66388304963E+03  0.66388304963E+03  0.00000000000E+00 0.  1.
         23    2    1    2    0    0 -0.41310222820E+02 -0.29232212232E+02 -0.10552488280E+03  0.14905653453E+03  0.92310849072E+02 0.  0.
         23    2    1    2    0    0  0.15685744267E+03 -0.70698400988E+02  0.13718201262E+03  0.23828778536E+03  0.91431082471E+02 0.  0.
        -13    1    4    4    0    0  0.10390920370E+03  0.12743268224E+01  0.58621002512E+02  0.11931122520E+03  0.00000000000E+00 0.  1.
         13    1    4    4    0    0  0.52948238963E+02 -0.71972727810E+02  0.78561010107E+02  0.11897656016E+03  0.00000000000E+00 0. -1.
        -13    1    3    3    0    0  0.19325315870E+02 -0.21114074495E+02 -0.18561641802E+01  0.28683049363E+02  0.00000000000E+00 0.  1.
         13    1    3    3    0    0 -0.60635538690E+02 -0.81181377369E+01 -0.10366871862E+03  0.12037348517E+03  0.00000000000E+00 0. -1.
         21    1    1    2  502  503  0.20610685262E+02 -0.50329774493E+02  0.80553869211E+01  0.54979776336E+02  0.00000000000E+00 0. -1.
         21    1    1    2  503  501 -0.13615790511E+03  0.15026038771E+03 -0.44035548052E+03  0.48479903926E+03  0.00000000000E+00 0.  1.
<scales pt_clust_5="13000.00000" pt_clust_6="13000.00000" pt_clust_7="13000.00000" pt_clust_8="13000.00000" pt_clust_9="54.38646" pt_clust_10="203.96960"></scales>
<clustering>
<clus scale="   54.386">  1  9  2 -1</clus>
<clus scale="   91.431">  5  6 -1 -1</clus>
<clus scale="   92.311">  7  8 -1 -1</clus>
<clus scale="  105.948">  2  7  1 -1</clus>
<clus scale="  203.970">  2 10  1 -1</clus>
<clus scale="   54.386">  1  5  2 -1</clus>
</clustering>
</event>
<event>
10    2  0.1898324E-006  0.2638323E+03  0.7546771E-02  0.1104957E+00
          1   -1    0    0  502    0  0.00000000000E+00  0.00000000000E+00  0.56077118509E+03  0.56077118509E+03  0.00000000000E+00 0. -1.
         -1   -1    0    0    0  501 -0.00000000000E+00 -0.00000000000E+00 -0.37781705489E+03  0.37781705489E+03  0.00000000000E+00 0.  1.
         23    2    1    2    0    0  0.26212855751E+03  0.65932839645E+02 -0.14522934633E+03  0.32061517951E+03  0.92973169758E+02 0.  0.
         23    2    1    2    0    0 -0.24124009594E+03 -0.22642246341E+02  0.78349729111E+02  0.27047159347E+03  0.91141360602E+02 0.  0.
        -13    1    4    4    0    0 -0.60870202403E+02 -0.44052527737E+02  0.75206584221E+01  0.75514018855E+02  0.00000000000E+00 0.  1.
         13    1    4    4    0    0 -0.18036989354E+03  0.21410281395E+02  0.70829070689E+02  0.19495757461E+03  0.00000000000E+00 0. -1.
        -13    1    3    3    0    0  0.17416980204E+03  0.83464356748E+02 -0.12025477024E+03  0.22751401837E+03  0.00000000000E+00 0.  1.
         13    1    3    3    0    0  0.87958755468E+02 -0.17531517103E+02 -0.24974576092E+02  0.93101161144E+02  0.00000000000E+00 0. -1.
         21    1    1    2  502  503  0.14237779643E+02 -0.38732115745E+02  0.29058929425E+03  0.29350473436E+03  0.00000000000E+00 0. -1.
         21    1    1    2  503  501 -0.35126241211E+02 -0.45584775589E+01 -0.40755546829E+02  0.53996732647E+02  0.00000000000E+00 0. -1.
<scales pt_clust_5="13000.00000" pt_clust_6="13000.00000" pt_clust_7="13000.00000" pt_clust_8="13000.00000" pt_clust_9="41.23179" pt_clust_10="35.42079"></scales>
<clustering>
<clus scale="   35.421">  2 10  1 -1</clus>
<clus scale="   41.232">  1  9  2 -1</clus>
<clus scale="   91.141">  5  6 -1 -1</clus>
<clus scale="   92.973">  7  8 -1 -1</clus>
<clus scale="  263.192">  1  5  2 -1</clus>
<clus scale="   41.232">  1  5  2 -1</clus>
</clustering>
</event>
<event>
10    2  0.1898324E-006  0.1621371E+03  0.7546771E-02  0.1201555E+00
          2   -1    0    0  502    0  0.00000000000E+00  0.00000000000E+00  0.17424207395E+03  0.17424207395E+03  0.00000000000E+00 0. -1.
         -2   -1    0    0    0  501 -0.00000000000E+00 -0.00000000000E+00 -0.53486448450E+03  0.53486448450E+03  0.00000000000E+00 0.  1.
         23    2    1    2    0    0 -0.16021226108E+03  0.21088358863E+02 -0.14836178911E+03  0.23755664072E+03  0.91155085445E+02 0.  0.
         23    2    1    2    0    0  0.32024869961E+02  0.56596755159E+02 -0.35151384182E+02  0.11707569721E+03  0.90787191143E+02 0.  0.
        -11    1    3    3    0    0 -0.52161688514E+02 -0.53493053279E+01 -0.39047483340E+00  0.52436716971E+02  0.00000000000E+00 0. -1.
         11    1    3    3    0    0 -0.10805057256E+03  0.26437664191E+02 -0.14797131428E+03  0.18511992375E+03  0.00000000000E+00 0.  1.
        -13    1    4    4    0    0 -0.16738530787E+02  0.25032365842E+02  0.20661478384E+02  0.36519781511E+02  0.00000000000E+00 0. -1.
         13    1    4    4    0    0  0.48763400748E+02  0.31564389317E+02 -0.55812862566E+02  0.80555915694E+02  0.00000000000E+00 0.  1.
         21    1    1    2  502  503  0.91576074572E+02 -0.90150945937E+02  0.39500921108E+02  0.13443843668E+03  0.00000000000E+00 0. -1.
         21    1    1    2  503  501  0.36611316544E+02  0.12465831914E+02 -0.21661015837E+03  0.22003578385E+03  0.00000000000E+00 0.  1.
<scales pt_clust_5="13000.00000" pt_clust_6="13000.00000" pt_clust_7="13000.00000" pt_clust_8="13000.00000" pt_clust_9="134.08646" pt_clust_10="38.67539"></scales>
<clustering>
<clus scale="   38.675">  2 10  1 -1</clus>
<clus scale="   90.787">  7  8 -1 -1</clus>
<clus scale="   91.155">  5  6 -1 -1</clus>
<clus scale="  116.020">  1  7  2 -1</clus>
<clus scale="  134.086">  1  9  2 -1</clus>
<clus scale="  116.020">  1  5  2 -1</clus>
</clustering>
</event>
<event>
10    2  0.1898324E-006  0.1348247E+03  0.7546771E-02  0.1223264E+00
         -2   -1    0    0    0  501 -0.00000000000E+00  0.00000000000E+00  0.10254709913E+03  0.10254709913E+03  0.00000000000E+00 0.  1.
          2   -1    0    0  502    0  0.00000000000E+00 -0.00000000000E+00 -0.30648942201E+03  0.30648942201E+03  0.00000000000E+00 0. -1.
         23    2    1    2    0    0 -0.93278421950E+02 -0.44203925002E+02 -0.30148049452E+02  0.14761041785E+03  0.10111913560E+03 0.  0.
         23    2    1    2    0    0  0.49797216376E+02  0.71379483673E+02 -0.96008182718E+02  0.15814248158E+03  0.90645903844E+02 0.  0.
        -11    1    3    3    0    0 -0.70057312011E+02  0.22718738374E+02 -0.14374939308E+02  0.75038702812E+02  0.00000000000E+00 0.  1.
         11    1    3    3    0    0 -0.23221109939E+02 -0.66922663377E+02 -0.15773110143E+02  0.72571715040E+02  0.00000000000E+00 0. -1.
        -13    1    4    4    0    0  0.29403956735E+02  0.45185514398E+02 -0.10970175028E+03  0.12223255457E+03  0.00000000000E+00 0. -1.
         13    1    4    4    0    0  0.20393259641E+02  0.26193969275E+02  0.13693567562E+02  0.35909927008E+02  0.00000000000E+00 0.  1.
         21    1    1    2  502  503  0.11898608830E+02 -0.16706041130E+02 -0.64108254668E+02  0.67309263991E+02  0.00000000000E+00 0. -1.
         21    1    1    2  503  501  0.31582596745E+02 -0.10469517540E+02 -0.13677836044E+02  0.35974357722E+02  0.00000000000E+00 0.  1.
<scales pt_clust_5="13000.00000" pt_clust_6="13000.00000" pt_clust_7="13000.00000" pt_clust_8="13000.00000" pt_clust_9="20.51021" pt_clust_10="35.00148"></scales>
<clustering>
<clus scale="   20.510">  2  9  1 -1</clus>
<clus scale="   35.001">  1 10  2 -1</clus>
<clus scale="   90.646">  7  8 -1 -1</clus>
<clus scale="  101.119">  5  6 -1 -1</clus>
<clus scale="  127.159">  2  7  1 -1</clus>
<clus scale="   20.510">  2  5  1 -1</clus>
</clustering>
</event>
<event>
10    2  0.1898324E-006  0.1452481E+03  0.7546771E-02  0.1206772E+00
         -1   -1    0    0    0  501 -0.00000000000E+00  0.00000000000E+00  0.78595738584E+02  0.78595738584E+02  0.00000000000E+00 0.  1.
          1   -1    0    0  502    0  0.00000000000E+00 -0.00000000000E+00 -0.61686276784E+03  0.61686276784E+03  0.00000000000E+00 0. -1.
         23    2    1    2    0    0  0.14190220991E+03 -0.66454110995E+01 -0.19962028004E+03  0.26129687010E+03  0.90815193964E+02 0.  0.
         23    2    1    2    0    0 -0.78911848142E+02  0.55151855495E+02 -0.19575629628E+03  0.23565929204E+03  0.89140156197E+02 0.  0.
        -11    1    3    3    0    0  0.31380540429E+02 -0.15035004716E+02 -0.21705282284E+01  0.34864034150E+02  0.00000000000E+00 0.  1.
         11    1    3    3    0    0  0.11052166948E+03  0.83895936160E+01 -0.19744975181E+03  0.22643283595E+03  0.00000000000E+00 0. -1.
        -13    1    4    4    0    0 -0.84295138752E+02  0.25118112091E+02 -0.18210039835E+03  0.20223042563E+03  0.00000000000E+00 0.  1.
         13    1    4    4    0    0  0.53832906101E+01  0.30033743404E+02 -0.13655897933E+02  0.33428866404E+02  0.00000000000E+00 0. -1.
         21    1    1    2  502  503 -0.30206462373E+02 -0.67596374509E+01 -0.14208269233E+03  0.14541531737E+03  0.00000000000E+00 0. -1.
         21    1    1    2  503  501 -0.32783899397E+02 -0.41746806945E+02 -0.80776060859E+00  0.53087026918E+02  0.00000000000E+00 0.  1.
<scales pt_clust_5="13000.00000" pt_clust_6="13000.00000" pt_clust_7="13000.00000" pt_clust_8="13000.00000" pt_clust_9="30.95356" pt_clust_10="54.45772"></scales>
<clustering>
<clus scale="   30.954">  2  9  1 -1</clus>
<clus scale="   54.458">  1 10  2 -1</clus>
<clus scale="   89.140">  7  8 -1 -1</clus>
<clus scale="   90.815">  5  6 -1 -1</clus>
<clus scale="  144.207">  2  7  1 -1</clus>
<clus scale="   30.954">  2  5  1 -1</clus>
</clustering>
</event>
<event>
10    2  0.1898324E-006  0.1473861E+03  0.7546771E-02  0.1203805E+00
          1   -1    0    0  502    0  0.00000000000E+00  0.00000000000E+00  0.40569836068E+03  0.40569836068E+03  0.00000000000E+00 0. -1.
         -1   -1    0    0    0  501 -0.00000000000E+00 -0.00000000000E+00 -0.22689498790E+03  0.22689498790E+03  0.00000000000E+00 0.  1.
         23    2    1    2    0    0 -0.91042741850E+02 -0.10116606494E+03 -0.97974546248E+02  0.19175571638E+03  0.92994029448E+02 0.  0.
         23    2    1    2    0    0  0.30007298850E+02  0.91915306885E+02  0.31270050402E+03  0.34014820653E+03  0.92576106896E+02 0.  0.
        -11    1    4    4    0    0 -0.32782640539E+02  0.43351984553E+02  0.13457520275E+03  0.14513642300E+03  0.00000000000E+00 0.  1.
         11    1    4    4    0    0  0.62789939388E+02  0.48563322332E+02  0.17812530126E+03  0.19501178353E+03  0.00000000000E+00 0. -1.
        -13    1    3    3    0    0 -0.66452846885E+02 -0.11545036159E+03 -0.65030355879E+02  0.14823533329E+03  0.00000000000E+00 0.  1.
         13    1    3    3    0    0 -0.24589894966E+02  0.14284296649E+02 -0.32944190369E+02  0.43520383090E+02  0.00000000000E+00 0. -1.
         21    1    1    2  502  503  0.14555893206E+02  0.14419473591E+02  0.19422403747E+02  0.28231631426E+02  0.00000000000E+00 0. -1.
         21    1    1    2  503  501  0.46479549794E+02 -0.51687155378E+01 -0.55344988733E+02  0.72457794248E+02  0.00000000000E+00 0. -1.
<scales pt_clust_5="13000.00000" pt_clust_6="13000.00000" pt_clust_7="13000.00000" pt_clust_8="13000.00000" pt_clust_9="20.48891" pt_clust_10="47.05585"></scales>
<clustering>
<clus scale="   20.489">  1  9  2 -1</clus>
<clus scale="   47.056">  2 10  1 -1</clus>
<clus scale="   92.576">  5  6 -1 -1</clus>
<clus scale="   92.994">  7  8 -1 -1</clus>
<clus scale="  147.123">  1  5  2 -1</clus>
<clus scale="   20.489">  1  5  2 -1</clus>
</clustering>
</event>
<event>
10    2  0.1898324E-006  0.2277573E+03  0.7546771E-02  0.1128252E+00
         -1   -1    0    0    0  501 -0.00000000000E+00  0.00000000000E+00  0.42998878465E+03  0.42998878465E+03  0.00000000000E+00 0.  1.
          1   -1    0    0  502    0  0.00000000000E+00 -0.00000000000E+00 -0.37343462601E+03  0.37343462601E+03  0.00000000000E+00 0. -1.
         23    2    1    2    0    0  0.23921892509E+03 -0.38071777659E+02  0.23144455095E+03  0.34726193627E+03  0.91373507349E+02 0.  0.
         23    2    1    2    0    0 -0.20796689041E+03  0.53103918391E+02 -0.25232422973E+03  0.34372421725E+03  0.91698238585E+02 0.  0.
        -11    1    3    3    0    0  0.23173722068E+03 -0.12362102323E+02  0.20949689943E+03  0.31264022756E+03  0.00000000000E+00 0.  1.
         11    1    3    3    0    0  0.74817044138E+01 -0.25709675335E+02  0.21947651523E+02  0.34621708712E+02  0.00000000000E+00 0. -1.
        -11    1    4    4    0    0 -0.18383363422E+03  0.20047335235E+02 -0.23561016395E+03  0.29951435704E+03  0.00000000000E+00 0. -1.
         11    1    4    4    0    0 -0.24133256195E+02  0.33056583156E+02 -0.16714065780E+02  0.44209860206E+02  0.00000000000E+00 0.  1.
         21    1    1    2  502  503  0.10854372301E+02 -0.21319334816E+02 -0.16842336874E+00  0.23924042332E+02  0.00000000000E+00 0.  1.
         21    1    1    2  503  501 -0.42106406980E+02  0.62871940835E+01  0.77602260785E+02  0.88513214816E+02  0.00000000000E+00 0.  1.
<scales pt_clust_5="13000.00000" pt_clust_6="13000.00000" pt_clust_7="13000.00000" pt_clust_8="13000.00000" pt_clust_9="23.92345" pt_clust_10="42.36464"></scales>
<clustering>
<clus scale="   23.923">  2  9  1 -1</clus>
<clus scale="   42.365">  1 10  2 -1</clus>
<clus scale="   91.374">  5  6 -1 -1</clus>
<clus scale="   91.698">  7  8 -1 -1</clus>
<clus scale="  227.627">  1  5  2 -1</clus>
<clus scale="   23.923">  2  5  1 -1</clus>
</clustering>
</event>
<event>
10    2  0.1898324E-006  0.1015846E+03  0.7546771E-02  0.1277549E+00
          1   -1    0    0  503    0  0.00000000000E+00  0.00000000000E+00  0.98661987188E+02  0.98661987188E+02  0.00000000000E+00 0. -1.
         -1   -1    0    0    0  501 -0.00000000000E+00 -0.00000000000E+00 -0.34948528025E+03  0.34948528025E+03  0.00000000000E+00 0.  1.
         23    2    1    2    0    0 -0.46800299809E+02 -0.37004908022E+02 -0.13197372817E+03  0.17057749426E+03  0.90110961280E+02 0.  0.
         23    2    1    2    0    0  0.33030455396E+02  0.24492663809E+02  0.38555351859E+02  0.10729491373E+03  0.91295026099E+02 0.  0.
        -11    1    4    4    0    0  0.38117682912E+02  0.52913642205E+02  0.87498999780E+01  0.65797963734E+02  0.00000000000E+00 0. -1.
         11    1    4    4    0    0 -0.50872275158E+01 -0.28420978396E+02  0.29805451881E+02  0.41496949992E+02  0.00000000000E+00 0.  1.
        -11    1    3    3    0    0 -0.56553339507E+02 -0.13688033240E+02 -0.29895802969E+02  0.65417134594E+02  0.00000000000E+00 0. -1.
         11    1    3    3    0    0  0.97530396976E+01 -0.23316874782E+02 -0.10207792520E+03  0.10516035967E+03  0.00000000000E+00 0.  1.
         21    1    1    2  502  501 -0.12260415125E+02  0.23815816497E+02 -0.32155785752E+02  0.41850991049E+02  0.00000000000E+00 0.  1.
         21    1    1    2  503  502  0.26030259538E+02 -0.11303572284E+02 -0.12524913100E+03  0.12842386840E+03  0.00000000000E+00 0. -1.
<scales pt_clust_5="13000.00000" pt_clust_6="13000.00000" pt_clust_7="13000.00000" pt_clust_8="13000.00000" pt_clust_9="26.78639" pt_clust_10="21.11728"></scales>
<clustering>
<clus scale="   26.786">  2  9  1 -1</clus>
<clus scale="   21.117">  2 10  1 -1</clus>
<clus scale="   90.111">  7  8 -1 -1</clus>
<clus scale="   91.295">  5  6 -1 -1</clus>
<clus scale="  100.522">  2  7  1 -1</clus>
<clus scale="  101.585">  1  5  2 -1</clus>
</clustering>
</event>
<event>
10    2  0.1898324E-006  0.9675078E+02  0.7546771E-02  0.1287690E+00
         -1   -1    0    0    0  501 -0.00000000000E+00  0.00000000000E+00  0.42544203741E+02  0.42544203741E+02  0.00000000000E+00 0.  1.
          1   -1    0    0  502    0  0.00000000000E+00 -0.00000000000E+00 -0.82285500305E+03  0.82285500305E+03  0.00000000000E+00 0. -1.
         23    2    1    2    0    0 -0.19635708035E+02  0.36061238582E+02 -0.15558068574E+03  0.18460643218E+03  0.90488734499E+02 0.  0.
         23    2    1    2    0    0 -0.61204604918E+02 -0.19918495448E+01 -0.37330972311E+03  0.38915458492E+03  0.91275245645E+02 0.  0.
        -13    1    4    4    0    0 -0.38986913373E+02  0.44003166236E+02 -0.19423297172E+03  0.20293522453E+03  0.00000000000E+00 0. -1.
         13    1    4    4    0    0 -0.22217691545E+02 -0.45995015781E+02 -0.17907675139E+03  0.18621936039E+03  0.00000000000E+00 0.  1.
        -13    1    3    3    0    0  0.36243921148E+02  0.14955276327E+02 -0.70165809755E+02  0.80377378464E+02  0.00000000000E+00 0.  1.
         13    1    3    3    0    0 -0.55879629182E+02  0.21105962255E+02 -0.85414875982E+02  0.10422905372E+03  0.00000000000E+00 0. -1.
         21    1    1    2  502  503  0.38393991638E+02 -0.38489376704E+02 -0.24187304289E+03  0.24790744158E+03  0.00000000000E+00 0.  1.
         21    1    1    2  503  501  0.42446321315E+02  0.44199876668E+01 -0.95473475669E+01  0.43730748104E+02  0.00000000000E+00 0.  1.
<scales pt_clust_5="13000.00000" pt_clust_6="13000.00000" pt_clust_7="13000.00000" pt_clust_8="13000.00000" pt_clust_9="57.68156" pt_clust_10="42.67583"></scales>
<clustering>
<clus scale="   42.676">  1 10  2 -1</clus>
<clus scale="   57.682">  2  9  1 -1</clus>
<clus scale="   90.489">  7  8 -1 -1</clus>
<clus scale="   91.275">  5  6 -1 -1</clus>
<clus scale="   96.009">  1  7  2 -1</clus>
<clus scale="   57.682">  2  5  1 -1</clus>
</clustering>
</event>
<event>
10    2  0.1898324E-006  0.1613660E+03  0.7546771E-02  0.1191684E+00
         -1   -1    0    0    0  501 -0.00000000000E+00  0.00000000000E+00  0.59366950845E+03  0.59366950845E+03  0.00000000000E+00 0.  1.
          1   -1    0    0  502    0  0.00000000000E+00 -0.00000000000E+00 -0.24357780322E+03  0.24357780322E+03  0.00000000000E+00 0. -1.
         23    2    1    2    0    0 -0.48264625430E+02  0.12206458708E+03  0.32835817557E+03  0.36476991307E+03  0.89491678543E+02 0.  0.
         23    2    1    2    0    0  0.11231506697E+03 -0.10052624714E+03 -0.41157953526E+01  0.18832155973E+03  0.11281785965E+03 0.  0.
        -13    1    3    3    0    0  0.15839345420E+02  0.78094403605E+02  0.14163055407E+03  0.16250795237E+03  0.00000000000E+00 0. -1.
         13    1    3    3    0    0 -0.64103970850E+02  0.43970183475E+02  0.18672762150E+03  0.20226196069E+03  0.00000000000E+00 0.  1.
        -13    1    4    4    0    0 -0.12469738031E+02 -0.40124672913E+02 -0.23809993397E+02  0.48294922388E+02  0.00000000000E+00 0.  1.
         13    1    4    4    0    0  0.12478480500E+03 -0.60401574231E+02  0.19694198044E+02  0.14002663735E+03  0.00000000000E+00 0. -1.
         21    1    1    2  502  503 -0.78547803453E+02  0.68297611367E+00 -0.11586351536E+03  0.13998063464E+03  0.00000000000E+00 0.  1.
         21    1    1    2  503  501  0.14497361909E+02 -0.22221316049E+02  0.14171284037E+03  0.14417520423E+03  0.00000000000E+00 0.  1.
<scales pt_clust_5="13000.00000" pt_clust_6="13000.00000" pt_clust_7="13000.00000" pt_clust_8="13000.00000" pt_clust_9="78.16000" pt_clust_10="26.53225"></scales>
<clustering>
<clus scale="   26.532">  1 10  2 -1</clus>
<clus scale="   78.160">  2  9  1 -1</clus>
<clus scale="   89.492">  5  6 -1 -1</clus>
<clus scale="  112.818">  7  8 -1 -1</clus>
<clus scale="  146.013">  1  5  2 -1</clus>
<clus scale="   78.160">  2  5  1 -1</clus>
</clustering>
</event>
<event>
10    2  0.1898324E-006  0.1742873E+03  0.7546771E-02  0.1175717E+00
          1   -1    0    0  503    0  0.00000000000E+00  0.00000000000E+00  0.38896302248E+03  0.38896302248E+03  0.00000000000E+00 0. -1.
         -1   -1    0    0    0  501 -0.00000000000E+00 -0.00000000000E+00 -0.20824667030E+03  0.20824667030E+03  0.00000000000E+00 0.  1.
         23    2    1    2    0    0 -0.15272612702E+02  0.10698351578E+03 -0.83334398750E+02  0.16449680379E+03  0.91846889411E+02 0.  0.
         23    2    1    2    0    0 -0.22321783490E+02 -0.14285182565E+03  0.29596619522E+03  0.34627687913E+03  0.10680253835E+03 0.  0.
        -11    1    3    3    0    0 -0.47540299885E+02  0.97027148835E+02 -0.64284472339E+02  0.12572526042E+03  0.00000000000E+00 0.  1.
         11    1    3    3    0    0  0.32267687183E+02  0.99563669461E+01 -0.19049926411E+02  0.38771543369E+02  0.00000000000E+00 0. -1.
        -11    1    4    4    0    0  0.17264696332E+01 -0.63288847630E+02  0.23451074589E+03  0.24290687283E+03  0.00000000000E+00 0. -1.
         11    1    4    4    0    0 -0.24048253123E+02 -0.79562978022E+02  0.61455449336E+02  0.10337000630E+03  0.00000000000E+00 0.  1.
         21    1    1    2  502  501 -0.41297796691E+01  0.30800721210E+02  0.37638458325E+01  0.31303450970E+02  0.00000000000E+00 0. -1.
         21    1    1    2  503  502  0.41724175860E+02  0.50675886617E+01 -0.35679290124E+02  0.55132558891E+02  0.00000000000E+00 0. -1.
<scales pt_clust_5="13000.00000" pt_clust_6="13000.00000" pt_clust_7="13000.00000" pt_clust_8="13000.00000" pt_clust_9="31.07635" pt_clust_10="42.56353"></scales>
<clustering>
<clus scale="   31.076">  2  9  1 -1</clus>
<clus scale="   42.564">  2 10  1 -1</clus>
<clus scale="   91.847">  5  6 -1 -1</clus>
<clus scale="  106.803">  7  8 -1 -1</clus>
<clus scale="  165.545">  2  5  1 -1</clus>
<clus scale="  174.287">  1  5  2 -1</clus>
</clustering>
</event>
<event>
10    2  0.1898324E-006  0.1888848E+03  0.7546771E-02  0.1187874E+00
         -2   -1    0    0    0  501 -0.00000000000E+00  0.00000000000E+00  0.58072550056E+03  0.58072550056E+03  0.00000000000E+00 0.  1.
          2   -1    0    0  502    0  0.00000000000E+00 -0.00000000000E+00 -0.33813441285E+03  0.33813441285E+03  0.00000000000E+00 0. -1.
         23    2    1    2    0    0 -0.36058716807E+02  0.26111763071E+02  0.69237855268E+02  0.12081315596E+03  0.88430101337E+02 0.  0.
         23    2    1    2    0    0  0.19011075089E+03  0.42564231478E+02 -0.22363516546E+03  0.30958267910E+03  0.88740839285E+02 0.  0.
        -11    1    3    3    0    0 -0.16111053111E+02  0.49432986598E+02  0.83904812917E+01  0.52664849498E+02  0.00000000000E+00 0. -1.
         11    1    3    3    0    0 -0.19947663696E+02 -0.23321223528E+02  0.60847373976E+02  0.68148306462E+02  0.00000000000E+00 0.  1.
        -11    1    4    4    0    0  0.18342633263E+02 -0.10753767312E+02  0.16321033198E+01  0.21325090098E+02  0.00000000000E+00 0.  1.
         11    1    4    4    0    0  0.17176811763E+03  0.53317998790E+02 -0.22526726878E+03  0.28825758900E+03  0.00000000000E+00 0. -1.
         21    1    1    2  502  503 -0.23294442002E+02 -0.33284920328E+02 -0.23335046526E+02  0.46851268347E+02  0.00000000000E+00 0.  1.
         21    1    1    2  503  501 -0.13075759209E+03 -0.35391074221E+02  0.42032344443E+03  0.44161281001E+03  0.00000000000E+00 0.  1.
<scales pt_clust_5="13000.00000" pt_clust_6="13000.00000" pt_clust_7="13000.00000" pt_clust_8="13000.00000" pt_clust_9="40.62655" pt_clust_10="166.74089"></scales>
<clustering>
<clus scale="   40.627">  2  9  1 -1</clus>
<clus scale="   88.430">  5  6 -1 -1</clus>
<clus scale="   88.741">  7  8 -1 -1</clus>
<clus scale="   99.040">  1  5  2 -1</clus>
<clus scale="  166.741">  1 10  2 -1</clus>
<clus scale="   40.627">  2  5  1 -1</clus>
</clustering>
</event>
<event>
10    2  0.1898324E-006  0.9502098E+02  0.7546771E-02  0.1291969E+00
          2   -1    0    0  502    0  0.00000000000E+00  0.00000000000E+00  0.78298037806E+02  0.78298037806E+02  0.00000000000E+00 0. -1.
         -2   -1    0    0    0  501 -0.00000000000E+00 -0.00000000000E+00 -0.78406344051E+03  0.78406344051E+03  0.00000000000E+00 0.  1.
         23    2    1    2    0    0 -0.33696834942E+01  0.17929495332E+02 -0.23529316740E+03  0.25316634275E+03  0.91637879194E+02 0.  0.
         23    2    1    2    0    0 -0.46254076202E+01  0.36321244129E+02 -0.46857264152E+02  0.10588483025E+03  0.87609171342E+02 0.  0.
        -11    1    3    3    0    0  0.36588469094E+02  0.54152365196E+01 -0.44653870071E+02  0.57982833404E+02  0.00000000000E+00 0. -1.
         11    1    3    3    0    0 -0.39958152588E+02  0.12514258812E+02 -0.19063929733E+03  0.19518350934E+03  0.00000000000E+00 0.  1.
        -13    1    4    4    0    0 -0.42388332781E+02  0.37024410626E+02 -0.20812958367E+02  0.60006307787E+02  0.00000000000E+00 0.  1.
         13    1    4    4    0    0  0.37762925161E+02 -0.70316649747E+00 -0.26044305786E+02  0.45878522466E+02  0.00000000000E+00 0. -1.
         21    1    1    2  502  503 -0.48821037508E+02 -0.92666799198E+02 -0.37654681947E+02  0.11130365874E+03  0.00000000000E+00 0.  1.
         21    1    1    2  503  501  0.56816128622E+02  0.38416059737E+02 -0.38596028920E+03  0.39200664657E+03  0.00000000000E+00 0. -1.
<scales pt_clust_5="13000.00000" pt_clust_6="13000.00000" pt_clust_7="13000.00000" pt_clust_8="13000.00000" pt_clust_9="93.54024" pt_clust_10="68.58474"></scales>
<clustering>
<clus scale="   68.585">  2 10  1 -1</clus>
<clus scale="   87.609">  7  8 -1 -1</clus>
<clus scale="   91.638">  5  6 -1 -1</clus>
<clus scale="   93.540">  1  9  2 -1</clus>
<clus scale="   93.540">  1  7  2 -1</clus>
<clus scale="   93.540">  1  5  2 -1</clus>
</clustering>
</event>
<event>
10    2  0.1898324E-006  0.1081361E+03  0.7546771E-02  0.1269338E+00
         -1   -1    0    0    0  501 -0.00000000000E+00  0.00000000000E+00  0.23799228178E+03  0.23799228178E+03  0.00000000000E+00 0.  1.
          1   -1    0    0  502    0  0.00000000000E+00 -0.00000000000E+00 -0.90477314278E+02  0.90477314278E+02  0.00000000000E+00 0. -1.
         23    2    1    2    0    0 -0.69402832717E+01 -0.11660606350E+02  0.11897597495E+03  0.15050299551E+03  0.91168699506E+02 0.  0.
         23    2    1    2    0    0  0.37365737645E+02  0.47940092055E+02  0.71521326578E+01  0.11927605529E+03  0.10237760296E+03 0.  0.
        -11    1    4    4    0    0 -0.35362653001E+02  0.92581922078E+01 -0.38523881192E+00  0.36556528270E+02  0.00000000000E+00 0.  1.
         11    1    4    4    0    0  0.72728390646E+02  0.38681899847E+02  0.75373714697E+01  0.82719527020E+02  0.00000000000E+00 0. -1.
        -11    1    3    3    0    0  0.22598784611E+02 -0.43245396509E+02  0.59021308047E+02  0.76579267355E+02  0.00000000000E+00 0.  1.
         11    1    3    3    0    0 -0.29539067883E+02  0.31584790158E+02  0.59954666900E+02  0.73923728151E+02  0.00000000000E+00 0. -1.
         21    1    1    2  502  503 -0.16913841836E+02 -0.18885962409E+02 -0.33458535091E+01  0.25572492203E+02  0.00000000000E+00 0.  1.
         21    1    1    2  503  501 -0.13511612538E+02 -0.17393523296E+02  0.24732713408E+02  0.33118053061E+02  0.00000000000E+00 0.  1.
<scales pt_clust_5="13000.00000" pt_clust_6="13000.00000" pt_clust_7="13000.00000" pt_clust_8="13000.00000" pt_clust_9="26.52071" pt_clust_10="22.02495"></scales>
<clustering>
<clus scale="   22.025">  1 10  2 -1</clus>
<clus scale="   26.521">  2  9  1 -1</clus>
<clus scale="   91.169">  7  8 -1 -1</clus>
<clus scale="   97.591">  1  7  2 -1</clus>
<clus scale="  102.378">  5  6 -1 -1</clus>
<clus scale="   26.521">  2  5  1 -1</clus>
</clustering>
</event>
